/*--------------------------------*- C++ -*----------------------------------*\
  =========                 |
  \\      /  F ield         | OpenFOAM: The Open Source CFD Toolbox
   \\    /   O peration     | Website:  https://openfoam.org
    \\  /    A nd           | Version:  13
     \\/     M anipulation  |
\*---------------------------------------------------------------------------*/
FoamFile
{
    format      ascii;
    class       volScalarField;
    location    "35";
    object      p;
}
// * * * * * * * * * * * * * * * * * * * * * * * * * * * * * * * * * * * * * //

dimensions      [0 2 -2 0 0 0 0];

internalField   nonuniform List<scalar> 
918
(
0.619735
1.27133
0.0138611
0.619051
0.00979795
1.23838
-0.438568
0.786907
0.59987
-0.0285296
0.0339899
0.59469
1.09894
0.865087
-1.06497
0.0877589
0.737759
-0.318405
0.598873
0.0207866
0.821624
0.606464
0.609499
0.600087
0.661873
0.846609
0.979792
0.00434092
-0.0130415
-0.00798517
0.075932
0.0619459
0.0592468
1.12202
1.17312
1.1958
0.568255
0.393862
-0.2983
-0.368533
-0.361213
-0.485048
0.778452
0.780664
-0.107262
0.788231
0.797854
0.587096
0.599232
0.600118
0.601222
0.600167
0.601565
0.475982
-0.0342923
-0.0670363
-0.00813783
0.00305903
0.136184
0.0357775
0.0328015
0.0360527
0.0410972
0.519408
0.590634
0.587796
0.599706
0.607862
1.21088
1.18278
1.20893
1.12263
1.13913
1.07691
1.04956
0.885694
0.907514
0.850963
0.839878
-1.50312
-2.46603
-0.468729
-0.214041
-0.0175261
0.0874307
0.0931227
0.728789
0.727752
0.739096
0.751391
1.145
-0.313664
-0.436328
0.599002
0.597797
0.606193
0.606888
0.6029
0.601995
0.0271875
0.0325372
0.000580782
0.0173014
0.0161254
0.810903
0.809414
0.600631
0.597653
0.615142
0.635818
0.627667
0.352174
0.665966
0.678763
0.668021
0.835915
0.830579
0.839035
0.953179
0.916938
1.01703
1.04011
-0.0232761
-0.0387496
0.07336
0.0697505
0.0858172
0.564208
0.556971
0.583005
0.571608
0.574014
0.309457
0.174419
0.479602
0.504932
-0.209033
-0.271131
-0.372995
-0.391318
-0.503349
0.668986
0.768587
0.768485
-0.127593
-0.0490756
-0.183941
0.0240285
-0.0361283
0.577516
0.584421
0.579483
0.594847
0.589357
0.591302
0.603456
0.600532
0.602094
0.539622
0.663461
0.401981
0.368652
-0.178901
-0.0864171
-0.181075
0.0151477
0.0206557
0.146176
0.172753
0.125094
0.114365
0.0258852
0.0327498
0.0292453
0.0477403
0.0457348
0.512557
0.502071
0.531637
0.538843
0.581048
0.582133
0.585284
0.583888
1.00025
1.02255
1.03024
1.00406
-3.46775
-6.27191
0.115481
0.254432
-0.0636466
-0.0454405
-0.0362857
0.0690101
-0.000305733
0.00799852
0.0908237
0.0863167
0.089077
0.0912735
0.713367
0.712554
1.06244
1.06083
1.04564
0.994337
0.587062
0.589187
0.594764
0.590599
0.0432617
0.0337394
0.0423185
0.797737
0.805016
0.804257
0.315565
0.229901
0.400908
0.428321
0.699149
0.683305
0.696605
0.728959
0.76628
1.04755
1.06588
1.06405
1.07257
1.11661
1.13302
1.09838
0.544374
0.553955
0.549135
0.586216
0.583903
0.584849
0.580315
0.581813
0.579578
0.0222512
-0.36151
0.559569
0.576371
0.553887
0.561575
0.747223
0.821273
0.751081
0.760474
0.759678
0.0896954
0.0330359
0.326597
0.291676
0.455092
0.489766
0.469796
0.971458
0.932007
0.982059
0.95527
0.916764
0.942069
-0.313216
-1.82765
-0.938292
0.61011
0.420772
0.509576
0.100654
0.0913744
0.0972001
1.05506
1.13423
0.719924
0.885611
0.895625
0.805594
0.835452
0.890349
0.81644
0.850442
0.885243
0.865785
0.625391
0.572851
0.581594
0.889747
0.944885
0.203962
0.149628
0.105482
0.192643
0.246484
0.221461
1.09934
1.00117
1.07257
0.5974
0.598092
-0.0196366
0.00161431
0.602218
0.602263
0.0689021
0.0835355
0.491898
-0.774765
0.193249
0.590696
0.580974
0.597881
-0.00978275
0.433828
0.0300917
0.132801
0.0915942
0.592116
0.529627
0.490741
-0.00411747
0.0856848
0.0294573
-0.140389
0.595073
0.593383
0.597342
0.598331
0.598988
-0.00921028
-0.00194426
-0.0401533
0.0174542
0.0161562
0.0149265
0.562662
0.579776
-0.0935203
0.597458
0.59959
0.599401
0.592556
0.598253
0.596457
0.0791454
0.0748726
0.0725891
0.300379
0.420994
0.739269
0.834465
0.704923
0.477872
0.239097
0.638628
0.704446
0.606667
0.765456
0.761643
0.780701
0.256397
0.10908
0.264621
0.206749
0.588561
0.587205
0.579207
0.57632
0.592733
0.590836
0.595384
0.592332
0.595323
0.596738
0.0278425
0.00613709
-0.00854948
-0.0706155
0.390282
0.650998
0.327779
0.359012
0.224087
0.0418949
0.0414186
0.0289685
0.0268519
0.0816743
0.0758614
0.128826
0.134513
0.110883
0.0897845
0.0766761
0.0731694
0.0663116
0.585889
0.584469
0.590555
0.599268
0.538894
0.542703
0.509079
0.528758
0.514943
0.455669
0.490179
0.465745
0.0475873
0.0315233
0.0273417
0.0799019
0.0856951
0.0280001
0.0159831
0.0159173
0.0296201
0.0305011
0.0411315
0.0430992
-0.0988062
-0.211411
1.04973
0.987762
0.190712
0.584273
0.590688
0.587478
0.592283
0.595383
0.596226
0.593989
0.59057
0.580349
0.582133
0.578531
0.579186
-0.0317655
-0.169062
0.00517584
-0.0627325
0.203541
0.692567
0.433869
0.37401
0.368195
0.590146
0.989699
0.785252
0.780318
0.802837
-0.279113
0.117642
-0.211986
0.406638
0.228823
0.736642
0.78756
0.81015
0.757099
0.708501
-0.0479905
0.612143
0.0165037
0.0620127
0.255235
0.146654
0.781414
0.74499
0.7507
0.768429
0.787693
0.750509
0.73089
0.726126
0.764206
0.768048
0.566056
0.333479
0.28873
0.249693
0.72842
0.606839
0.664294
0.57661
0.583481
0.58628
0.584849
0.567313
0.574646
0.570354
0.576136
0.579356
0.588476
0.588823
0.58423
0.586413
0.0262016
0.0250469
0.0419261
-0.0650464
-0.0536572
-0.113616
0.0037822
0.142907
0.106267
0.300345
0.406699
0.119735
0.0040128
0.0334781
0.0659383
0.245087
0.269734
0.148324
0.242381
0.224141
0.210374
0.314016
0.322508
0.0577571
0.0486009
0.0472135
0.0460575
0.102703
0.172692
0.18327
0.0835533
0.0754984
0.0419545
0.0485203
0.0540343
0.0511185
0.0530006
0.0912597
0.00684889
0.066316
0.0847634
0.0861185
0.0815188
0.0765175
0.579154
0.581102
0.580885
0.588489
0.605104
0.620401
0.580151
0.560669
0.55164
0.554613
0.528261
0.53818
0.534378
0.547176
0.56751
0.576165
0.574341
0.57685
0.56023
0.561599
0.548947
0.552701
0.528941
0.510565
0.49893
0.021143
0.0203845
0.0309427
0.0287702
0.0427623
0.043245
0.0887165
0.102944
0.0851557
0.0865491
0.077882
0.0437249
0.047466
-0.00698917
0.071234
-0.11451
-0.146759
-0.215418
0.953958
1.07364
0.878739
0.654887
0.667273
0.906231
0.992219
0.617463
0.800719
0.824229
0.641451
0.905497
0.589101
0.588681
0.586275
0.585764
0.586999
0.057208
0.157995
0.166825
0.221189
0.335749
0.448956
0.374606
0.250042
0.383205
0.387919
0.687904
0.703452
0.651413
0.674853
0.67235
0.500327
0.578574
0.633756
0.586089
0.632401
0.654917
0.615593
0.646135
0.591626
0.547918
0.546259
0.493702
0.514543
0.492849
0.474795
0.578623
0.556468
0.566844
0.557873
0.57709
0.602768
0.598492
0.626933
0.637939
0.56197
0.521567
0.531355
0.560072
0.520471
0.533828
0.549537
0.287099
0.186674
0.270583
-0.021529
0.0594134
0.0442677
-0.00282362
0.0427535
0.328754
-0.369812
-0.342613
-0.975481
0.551653
1.0206
0.73482
0.70706
0.783445
0.762275
0.764994
0.787801
0.794753
0.717941
0.736226
0.739721
0.696605
0.720132
0.742904
0.740519
0.586033
0.460176
0.45163
0.411268
0.28574
0.319528
0.522123
0.444678
0.370834
0.374046
0.536652
0.425235
0.491554
0.53011
0.461699
0.416771
0.620714
0.68724
0.677335
0.652508
0.568422
0.581916
0.606989
0.643079
0.670224
0.702283
0.575952
0.581725
0.583006
0.580479
0.577688
0.580608
0.580698
0.58321
0.584065
0.586971
0.585958
0.0346582
0.0463366
0.0355292
0.0278789
0.052058
0.0469703
0.0918337
0.0787429
0.0668626
0.073915
0.0462278
0.0424661
0.0479926
0.0574451
0.166933
0.181264
0.167091
0.127174
0.312723
0.445279
0.514549
0.391608
0.285587
0.310471
0.333955
0.063151
0.0926198
0.0775221
0.118171
0.108219
0.0561222
0.0452323
0.0483613
0.0563963
0.0686831
0.0489789
0.0576248
0.0614288
0.054769
0.0488657
0.0409354
0.562731
0.556329
0.557441
0.551709
0.550731
0.564137
0.568497
0.570211
0.575518
0.577466
0.568105
0.57347
0.577004
0.0823047
0.0562308
0.0559023
0.0633166
0.0618376
0.0607231
0.0613086
0.184365
0.110407
0.115897
0.0724189
-0.0527572
0.00361117
0.548769
0.546699
0.545494
0.776613
0.627823
0.54729
0.643612
0.749619
0.333489
0.532073
0.365385
0.945426
0.838456
0.983919
0.601724
0.300207
0.454538
0.504774
0.314127
0.386584
0.391507
0.281027
0.312536
0.344295
0.444718
0.323464
0.297903
0.0564254
0.244977
0.360633
0.341781
0.469274
0.531978
0.320829
0.240599
0.195489
0.679946
0.699217
0.719006
0.689056
0.713647
0.638006
0.628594
0.646612
0.654386
0.649521
-0.703971
-0.412036
-1.35601
-0.67119
-0.222036
0.580811
0.544741
0.822898
0.710903
0.775321
0.760687
0.720894
0.687161
0.698639
0.731163
0.42995
0.540648
0.514898
0.520901
0.422738
0.355977
0.655767
0.649906
0.685631
0.709823
0.677575
0.710691
0.573652
0.573287
0.572961
0.569405
0.567799
0.569952
0.129221
0.0998739
0.13207
0.115456
0.0937517
0.0814883
0.078407
0.0716438
0.0682093
0.0654442
0.0827289
0.0803042
0.226309
0.167936
0.0904567
0.121338
0.0610686
-0.00535706
-0.0236055
0.0760322
0.168817
0.159007
0.464112
0.714923
0.536438
0.704671
0.544222
0.59979
0.535602
0.526482
0.554861
0.439397
0.519163
0.280244
-0.222085
-0.131114
0.837775
0.856421
0.637836
0.451606
0.222879
0.412197
0.612503
0.548537
0.586952
0.65595
0.648102
0.0674196
0.13496
0.393345
0.621364
0.291359
0.282831
0.277868
0.451675
0.376642
)
;

boundaryField
{
    wall-4
    {
        type            zeroGradient;
    }
    velocity-inlet-5
    {
        type            zeroGradient;
    }
    velocity-inlet-6
    {
        type            zeroGradient;
    }
    pressure-outlet-7
    {
        type            fixedValue;
        value           uniform 0;
    }
    wall-8
    {
        type            zeroGradient;
    }
    frontAndBackPlanes
    {
        type            empty;
    }
}


// ************************************************************************* //
