/*--------------------------------*- C++ -*----------------------------------*\
  =========                 |
  \\      /  F ield         | OpenFOAM: The Open Source CFD Toolbox
   \\    /   O peration     | Website:  https://openfoam.org
    \\  /    A nd           | Version:  13
     \\/     M anipulation  |
\*---------------------------------------------------------------------------*/
FoamFile
{
    format      ascii;
    class       volVectorField;
    location    "35";
    object      U;
}
// * * * * * * * * * * * * * * * * * * * * * * * * * * * * * * * * * * * * * //

dimensions      [0 1 -1 0 0 0 0];

internalField   nonuniform List<vector> 
918
(
(0.985165 -0.00049868 0)
(0.005012 2.96625 0)
(-0.0263427 0.82375 0)
(0.979702 0.00215025 0)
(-0.090221 1.61317 -5.14132e-20)
(-0.00704252 2.94879 -2.65565e-18)
(0.83144 1.17485 3.85828e-19)
(0.318185 0.145275 -1.74702e-20)
(0.999908 -0.000287822 0)
(0.0492443 0.834723 0)
(0.000788712 0.643519 0)
(0.734535 -0.0118612 0)
(0.011092 2.9304 0)
(0.00225567 2.79498 0)
(-0.0176632 3.15713 7.22421e-19)
(-0.00843969 1.84903 -8.23135e-20)
(0.391406 0.0451884 1.15161e-18)
(0.190427 1.18486 2.5389e-19)
(0.96279 0.00502376 0)
(-0.00478097 0.631458 0)
(0.0756299 0.190739 -8.22966e-19)
(1.00198 -0.00498249 0)
(1.00022 -0.0097964 0)
(0.975719 -0.00644346 0)
(0.585807 -0.037381 0)
(0.0161212 2.63848 0)
(-0.0149727 2.91007 9.90076e-19)
(-0.0272233 0.812195 0)
(-0.0923723 1.00793 0)
(-0.0251522 0.800136 0)
(-0.200652 2.56778 0)
(-0.133529 1.79774 4.07065e-20)
(-0.0836442 1.62597 0)
(-0.0206167 2.9876 -9.60189e-23)
(-0.0166922 3.0053 2.06404e-18)
(0.00210047 3.00019 0)
(0.870558 -0.0094836 0)
(0.403241 0.936516 2.1902e-19)
(0.812319 1.19122 -3.83882e-19)
(0.960447 1.03006 4.5063e-19)
(0.681941 1.28435 -8.85328e-20)
(0.679431 1.27015 5.17441e-19)
(0.359799 0.231633 1.70436e-20)
(0.333464 0.115337 0)
(1.13599 0.55339 0)
(0.325073 0.228917 7.79061e-20)
(0.287055 0.154754 -8.08456e-20)
(0.919709 -0.00745611 0)
(1.00027 0.000138594 0)
(0.999909 0.000328287 0)
(1.00363 -0.00777756 0)
(1.00096 -0.000929839 0)
(1.00017 2.82897e-05 0)
(0.0800396 1.80064 -9.11704e-19)
(0.0332027 1.00127 0)
(0.0870434 0.900398 0)
(0.0170838 0.956373 0)
(0.0355882 0.770634 0)
(0.0227925 1.9996 0)
(0.00316676 0.810297 0)
(0.0235801 0.655821 0)
(-0.0051554 0.809151 0)
(-0.00685415 0.649054 0)
(0.836797 -0.0154727 0)
(0.850065 0.0278246 0)
(0.768137 -0.00203151 0)
(0.822875 0.0366992 0)
(0.702897 -0.0171681 0)
(0.0146902 3.0004 9.87051e-19)
(0.0115018 3.00798 0)
(0.00612086 3.00279 0)
(0.0135309 2.99734 1.12393e-23)
(0.0079822 2.95848 -1.467e-18)
(0.0144899 2.98208 0)
(0.010834 2.9036 0)
(0.0245741 2.93085 2.3046e-24)
(0.00451466 2.82492 0)
(0.0304853 2.9162 0)
(-0.0053944 2.74462 0)
(0.308379 3.55391 0)
(-0.131915 3.63542 0)
(0.139614 3.24759 -6.72296e-19)
(-0.0125049 2.98292 0)
(-0.186257 2.34388 0)
(-0.0458258 2.03051 8.11731e-20)
(0.00711695 1.91012 -8.32237e-20)
(0.480403 0.146641 -3.98476e-19)
(0.389117 0.0253966 -3.8467e-19)
(0.465498 0.169676 -1.20008e-18)
(0.376201 0.0652805 -7.91243e-19)
(0.218236 0.942843 0)
(0.272516 1.32478 -3.21934e-19)
(0.377013 1.26985 5.43039e-19)
(0.987498 0.00856659 0)
(0.941938 0.00587873 0)
(1.0003 0.00057797 0)
(1.00286 0.0093045 0)
(1.00302 0.00846494 -3.06226e-18)
(0.991915 0.00969379 2.31257e-18)
(0.000867408 0.78513 0)
(-0.0091036 0.635072 0)
(0.0134186 0.842136 0)
(-0.0199967 0.787779 0)
(0.00967425 0.628963 0)
(0.11903 0.19731 2.54447e-19)
(0.175194 0.175078 0)
(0.993535 -0.00838333 0)
(0.954401 -0.00652551 0)
(0.774905 0.0454684 0)
(0.712133 0.0557036 0)
(0.661266 -0.0302132 0)
(0.953397 -0.0106032 0)
(0.628948 0.0701953 0)
(0.456776 -0.0178845 1.67987e-18)
(-0.0368942 2.86309 7.6876e-19)
(0.0420014 2.90897 0)
(0.0544815 2.88509 0)
(-0.00475881 2.69906 0)
(-0.0131639 2.9853 9.42595e-19)
(-0.0179654 2.89527 0)
(-0.0153357 2.98811 -2.91192e-18)
(-0.0133669 2.92521 9.95029e-19)
(-0.0456587 1.17795 0)
(-0.0900076 1.29854 0)
(-0.0587751 2.00514 -2.1815e-21)
(-0.0850194 1.91674 0)
(-0.0665922 1.74674 0)
(0.937766 -0.00769044 0)
(0.856087 -0.00936448 0)
(0.863543 0.00656764 0)
(0.949055 -0.00797581 0)
(0.883534 -0.00818815 0)
(0.515407 1.13043 -2.74586e-19)
(0.564981 1.18235 0)
(0.367183 0.880385 3.90926e-20)
(0.309519 0.739818 0)
(0.9197 1.06822 -1.19562e-19)
(1.0306 0.87014 2.34559e-19)
(0.372232 1.37564 0)
(0.535605 1.34586 0)
(0.544914 1.29997 0)
(0.112387 0.182534 -3.28339e-19)
(0.393762 0.217624 0)
(0.360283 0.108685 2.23057e-19)
(1.00076 0.924808 0)
(1.06497 0.772562 0)
(1.09015 0.713513 -1.61542e-19)
(1.11619 0.614138 0)
(1.16059 0.397852 5.4616e-20)
(0.957422 -0.00885461 0)
(0.96232 -0.0101315 0)
(0.901406 -0.00795649 0)
(0.984163 -0.00918079 0)
(0.974617 -0.00941157 0)
(0.937027 -0.0063774 0)
(1.00019 0.00233893 0)
(1.00091 0.00139097 0)
(0.999913 0.000852813 0)
(0.0334439 2.05871 4.99643e-19)
(0.121199 1.74239 0)
(0.0128668 2.1735 7.98816e-19)
(0.05555 1.86021 -6.87869e-19)
(0.104906 1.18918 -2.06668e-19)
(0.0463621 1.07643 0)
(0.141603 1.04643 0)
(0.0109236 0.909276 0)
(0.0189949 0.729095 0)
(-0.00459128 2.21107 -1.93945e-21)
(0.0308895 1.98888 0)
(-0.00620855 2.18589 -1.04288e-19)
(0.0286482 2.00093 1.97463e-19)
(0.0121968 0.868632 0)
(0.0118699 0.833905 0)
(0.0245141 0.692416 0)
(-0.00292472 0.806959 0)
(-0.0182682 0.639849 0)
(0.93457 0.0088402 0)
(0.843758 -0.0146885 0)
(0.924943 -0.000448183 0)
(0.8393 -0.0126139 0)
(0.812594 0.00212184 0)
(0.90244 0.0193065 0)
(0.87958 0.0236343 0)
(0.789474 0.000361208 0)
(0.00578837 3.06488 -9.31371e-21)
(0.0166622 3.05782 0)
(0.0147219 2.96907 0)
(0.00864286 2.87623 0)
(0.925457 3.97036 0)
(1.24016 3.30245 9.20712e-19)
(0.0703034 3.07494 0)
(-0.0280296 2.90581 0)
(0.0366801 1.48844 0)
(-0.0604063 2.10796 0)
(-0.128509 1.84887 0)
(-0.15349 2.50885 5.79169e-20)
(-0.152714 2.44885 0)
(-0.206044 2.49712 0)
(0.0190368 1.9781 2.23152e-21)
(-0.0133134 2.10065 7.74146e-20)
(-0.0252938 2.06351 8.48221e-20)
(0.0121074 1.95117 0)
(0.506298 0.12091 5.97702e-19)
(0.405471 0.00472023 -5.87206e-19)
(0.260917 1.56968 0)
(0.266939 0.718969 -3.31967e-19)
(0.177673 1.65424 -1.12031e-18)
(0.227284 1.18712 1.12322e-18)
(0.902292 0.00656278 0)
(0.967532 0.0109884 0)
(0.974621 0.0107591 0)
(0.923471 0.00651902 0)
(-0.0133581 0.81296 0)
(-0.0031108 0.801487 0)
(-0.0067472 0.637942 0)
(0.277844 0.225711 7.17001e-19)
(0.228849 0.208745 -8.48029e-19)
(0.240532 0.167735 0)
(1.07514 0.0811234 3.48665e-20)
(1.05617 0.0361275 0)
(0.997265 0.0369405 0)
(0.89537 -0.00873847 0)
(0.531191 0.0958294 0)
(0.564667 0.0750994 -2.68812e-18)
(0.425119 -0.003211 1.00854e-18)
(0.00919117 2.98147 8.10188e-19)
(-0.0322932 2.86645 4.7763e-20)
(0.00364472 3.05021 -1.96396e-20)
(0.0201625 3.04342 6.97711e-19)
(-0.0150206 2.99657 3.25973e-20)
(-0.0129467 2.94946 -1.31064e-22)
(-0.0172542 3.01196 -6.00429e-19)
(0.0148152 3.02394 4.34228e-19)
(0.00733139 3.03674 -6.8995e-19)
(0.932279 -0.00207452 0)
(0.938333 -0.00394605 0)
(0.843841 -0.00871197 0)
(0.956782 0.0116562 0)
(0.943185 0.0128326 0)
(0.881885 0.00619885 0)
(0.918486 0.0159397 0)
(0.926799 0.0145267 0)
(0.838906 0.00432682 0)
(0.719119 1.40989 -7.97001e-21)
(0.752925 1.51935 0)
(0.190626 0.329931 8.04212e-20)
(0.215956 0.654204 6.48311e-19)
(0.258728 0.716881 -3.74594e-19)
(0.266325 0.536845 7.46165e-19)
(0.329391 0.780925 1.71562e-18)
(0.130078 0.219492 3.94876e-19)
(0.440309 0.191527 8.39651e-19)
(0.417547 0.208142 2.17888e-19)
(0.37147 0.0905387 4.16992e-19)
(1.15021 0.456346 -2.09864e-20)
(1.1611 0.250829 -2.95613e-20)
(0.00213702 2.21223 3.23137e-19)
(0.0547047 1.92396 0)
(0.961907 0.0270115 0)
(0.937791 0.0124974 0)
(0.860502 -0.0185969 0)
(0.0111223 3.07425 0)
(0.0197037 2.94412 1.29239e-18)
(0.0164571 2.95629 0)
(0.00634635 2.85065 -1.28182e-18)
(0.00631596 3.0914 3.14978e-19)
(0.00726668 3.08268 0)
(0.786101 1.82237 -1.4741e-19)
(1.24786 2.50122 3.68229e-19)
(0.768341 1.96239 -1.20067e-18)
(0.0201761 2.98156 -7.10919e-19)
(0.0360811 3.00212 0)
(-0.0336095 2.87861 0)
(-0.00918332 2.16194 -7.13681e-21)
(-0.0120369 2.13373 -1.62997e-19)
(0.0225462 1.99606 -4.0481e-21)
(0.27441 1.37604 1.08173e-18)
(0.221915 0.50417 -7.41619e-19)
(0.0627346 1.98375 8.38685e-19)
(0.13753 1.87352 -9.86212e-19)
(0.178599 1.48097 9.03407e-20)
(0.00328412 3.11804 -1.9851e-18)
(0.017224 3.11797 2.12575e-18)
(-0.00900852 2.98088 8.75495e-19)
(-0.00310184 2.97739 -8.35652e-19)
(-0.0213913 2.88167 -8.91665e-19)
(0.00871391 3.09886 -2.34842e-18)
(0.0020124 3.10682 2.29085e-18)
(0.272221 0.679896 0)
(0.23388 0.668592 -1.3386e-18)
(0.0976222 0.221776 5.92311e-19)
(0.345487 0.905692 1.17451e-18)
(0.18495 0.262731 -1.81226e-18)
(1.1554 0.16997 9.75034e-20)
(1.16281 0.305269 0)
(1.14185 0.118451 -4.68387e-20)
(-0.0029362 2.21928 -2.61428e-21)
(-0.00343538 2.22203 0)
(0.0393252 1.96444 0)
(0.338007 1.28381 -3.9016e-19)
(0.364447 1.11505 -8.40932e-19)
(0.19815 0.357939 1.50063e-18)
(1.00587 -0.0108729 0)
(1.00765 -0.00765609 5.65585e-19)
(0.0272625 1.21245 0)
(0.00429381 1.06881 0)
(1.00222 0.00349595 1.79999e-21)
(1.00364 0.00942143 1.15361e-18)
(-0.121877 2.52063 -7.49407e-20)
(-0.0980178 2.52593 0)
(0.0365474 3.17927 4.88667e-19)
(0.39548 3.49257 0)
(1.13885 0.652435 -9.77849e-20)
(1.01292 0.0130742 -2.13158e-21)
(1.0212 -0.0104402 0)
(1.00168 9.53326e-05 6.2362e-23)
(0.0975589 1.35176 0)
(0.148403 2.58283 0)
(0.0194698 1.30571 0)
(-0.00215185 2.62941 1.02884e-19)
(-0.0251885 2.57888 7.82381e-20)
(1.00311 0.0271901 2.44228e-21)
(1.06147 0.00331799 0)
(1.09419 0.0216793 0)
(-0.0517913 1.95696 0)
(-0.0295224 2.5657 0)
(0.0328218 1.22661 0)
(0.286974 1.46569 -1.04883e-19)
(1.01125 -0.00965758 0)
(1.0094 -0.0149417 0)
(1.00233 0.000683694 7.22103e-19)
(1.00547 -0.0048532 -8.49485e-19)
(1.00118 -0.00100018 0)
(0.0993955 1.66654 0)
(0.0760561 1.30958 0)
(0.0231613 1.5237 0)
(0.0275686 1.19896 0)
(0.0369858 1.0998 0)
(0.00272626 1.0513 0)
(1.03423 -0.00655712 0)
(1.0208 0.0157151 -9.39831e-22)
(0.796815 1.26297 1.95052e-19)
(1.00229 0.000245987 -7.21937e-19)
(1.00406 0.00523332 8.42298e-19)
(1.00118 0.00205971 0)
(1.01285 0.0102609 7.17143e-19)
(1.00803 0.00826926 -8.67428e-19)
(1.00861 0.0146687 0)
(-0.0575316 2.58308 0)
(-0.0866602 2.54854 7.70328e-20)
(-0.0650979 2.56187 -5.87446e-20)
(1.21651 0.254562 7.5512e-19)
(1.15258 0.0781015 0)
(0.0454087 3.07768 -1.04031e-18)
(0.0659238 2.85373 -7.53588e-20)
(0.142833 3.19387 1.57319e-18)
(0.137797 3.22271 -2.51154e-19)
(0.136154 3.23539 0)
(0.0201748 3.13759 2.72286e-19)
(0.077144 3.16095 1.02774e-18)
(0.0700212 3.18687 -5.12224e-19)
(0.0229046 3.12966 0)
(0.654334 0.303162 0)
(0.576087 0.348206 0)
(1.10871 0.684931 2.56063e-19)
(1.10453 0.814049 -2.78922e-19)
(1.16737 0.572059 0)
(1.19688 0.512223 0)
(1.01618 0.0132853 -1.33787e-18)
(1.015 0.0142599 1.67938e-18)
(1.02514 -0.0100423 0)
(1.02317 -0.0119897 0)
(1.00648 0.00258748 0)
(1.0104 0.00365673 0)
(1.00461 0.00183364 0)
(1.00988 0.00613703 0)
(1.00781 0.00600693 0)
(1.0045 0.00458262 0)
(0.0873203 1.34835 0)
(0.0791037 1.32281 0)
(0.118535 1.38459 0)
(0.127264 1.39883 0)
(0.1461 2.60693 0)
(0.186962 2.67205 -4.8164e-19)
(0.0994037 2.66441 0)
(0.088292 2.66679 2.56335e-19)
(0.0389898 2.68614 -2.53694e-19)
(0.0347368 1.31142 0)
(0.000782508 1.23645 0)
(0.0293091 1.32385 0)
(0.0413585 1.27018 0)
(-0.0065504 1.98972 -6.2946e-20)
(-0.0279234 2.60725 6.78828e-20)
(-0.015496 2.67116 1.06848e-19)
(-0.0225372 2.6803 0)
(-0.0314384 2.61106 -1.83036e-19)
(-0.0303728 2.60292 -1.11751e-19)
(0.0030983 1.99019 4.82258e-20)
(-0.020528 2.41343 -9.10354e-20)
(-0.0221372 2.43025 -1.21175e-19)
(1.01183 0.0353018 1.35745e-18)
(1.00815 0.0167784 -1.68247e-18)
(1.00448 0.0415395 -1.36383e-18)
(0.982864 0.0218239 1.73266e-18)
(1.06255 0.00698802 0)
(1.04793 -0.00911461 0)
(1.09093 0.0323081 0)
(1.07214 0.0110303 0)
(1.06972 -0.001304 0)
(1.13494 0.0739789 0)
(1.10693 0.0396616 0)
(1.10924 0.0273583 0)
(-0.142044 2.48284 -7.56946e-21)
(-0.0261518 2.23321 0)
(-0.118849 2.39541 0)
(-0.0442036 2.58302 4.31065e-20)
(-0.033483 2.59508 -1.96566e-21)
(0.0598895 1.73814 2.52154e-20)
(0.0550669 1.62464 -2.63074e-20)
(0.0588411 1.41072 0)
(0.0610649 1.41334 0)
(0.0747167 1.40968 0)
(0.0394216 1.25164 0)
(0.0247658 1.11649 0)
(0.377421 1.48056 1.51476e-19)
(0.415614 1.48661 1.04421e-19)
(0.596518 2.45157 -2.52682e-19)
(0.403652 2.54639 7.50408e-19)
(0.355255 2.07106 9.30982e-20)
(1.02092 -0.00826064 0)
(1.01543 -0.0098278 0)
(1.01487 -0.0155584 0)
(1.00747 -0.00122189 0)
(1.0049 -0.000973275 0)
(1.00776 -0.00477389 0)
(1.00923 -0.00376292 0)
(1.01414 -0.00455053 0)
(1.02148 0.0159388 1.31075e-18)
(1.01815 0.0157783 -1.68105e-18)
(1.02197 0.017898 -1.31998e-18)
(1.01978 0.0165622 1.65572e-18)
(0.764411 1.31097 0)
(0.699184 1.36481 1.63776e-19)
(0.87259 1.20864 2.88542e-20)
(0.914978 1.16317 -3.83829e-20)
(1.15602 2.60803 4.21785e-19)
(0.81103 0.0984509 6.61057e-19)
(1.1539 0.0964294 0)
(1.19664 0.180941 -6.06275e-19)
(1.18069 0.145313 -2.56095e-20)
(1.00533 0.140298 0)
(0.138178 2.96197 6.23143e-19)
(0.115145 2.86784 -1.31164e-18)
(0.0262966 2.37046 8.85781e-19)
(0.0926215 -0.00125944 -3.99375e-19)
(0.34024 3.42155 -1.69054e-19)
(0.194857 3.31414 0)
(0.237393 3.35643 2.20165e-19)
(0.246542 3.03526 -2.0084e-18)
(0.341093 3.1943 0)
(0.00585928 3.12106 5.20789e-20)
(0.0163581 3.12975 -6.09648e-19)
(0.0143298 3.12576 8.97283e-19)
(0.0355926 3.1401 0)
(0.0341413 3.15072 0)
(1.2149 2.60792 0)
(0.530967 0.841067 -5.81161e-19)
(1.03444 0.989226 5.13634e-20)
(0.971594 1.06343 0)
(0.818487 0.963176 -1.46504e-19)
(1.05747 0.877468 2.94598e-20)
(0.369454 0.40766 -1.0266e-18)
(0.700236 0.325843 -2.27842e-20)
(0.672861 0.244512 4.72318e-19)
(0.591681 0.38336 3.48342e-20)
(0.509152 0.359914 -1.40226e-18)
(0.669593 0.342238 0)
(0.702766 0.427297 8.01903e-19)
(0.709783 0.425192 0)
(0.62801 0.369546 0)
(0.604222 0.296415 0)
(0.791507 0.616442 4.85314e-19)
(1.21331 0.277317 -6.3935e-19)
(1.20744 0.416679 0)
(1.21914 0.360513 0)
(0.753774 0.191338 7.04358e-19)
(0.837651 0.536077 -4.39644e-19)
(0.741584 0.511635 7.80068e-19)
(0.940371 0.422236 -8.69717e-19)
(1.01984 0.0145732 9.01644e-19)
(1.0179 0.014163 -9.06255e-19)
(1.01596 0.0155697 0)
(1.03573 -0.00619634 0)
(1.02949 -0.00867677 -8.51919e-19)
(1.02745 -0.012228 8.43641e-19)
(1.02513 0.00953946 0)
(1.02374 0.013146 0)
(1.01141 0.00401639 0)
(1.01431 0.0089357 0)
(1.01508 0.00392172 0)
(1.01419 0.00273326 0)
(0.0593291 1.33232 0)
(0.0620547 1.29396 0)
(0.147302 1.35315 -6.58476e-20)
(0.265082 1.4631 4.9496e-20)
(0.155782 1.43371 9.90949e-20)
(0.186121 1.44237 -1.6445e-19)
(0.159855 1.37836 0)
(0.131172 1.58852 -1.45241e-19)
(0.116085 1.55855 0)
(0.354541 2.02494 -1.35323e-19)
(0.348864 2.35788 7.00467e-19)
(0.184221 1.44163 1.26633e-19)
(0.260671 1.37472 -8.87047e-21)
(0.197823 1.35921 7.19334e-21)
(0.272288 1.31547 -1.75821e-19)
(0.242001 1.5736 0)
(0.26129 1.61541 1.68755e-19)
(0.0293713 2.27647 -6.15239e-20)
(0.0391458 2.67747 0)
(0.0630432 2.4137 2.07815e-19)
(0.0561267 2.43557 0)
(0.06947 2.67968 -2.83558e-19)
(0.0501953 2.70616 0)
(0.0212998 1.40865 -5.20585e-20)
(0.0301331 1.4599 0)
(0.0323464 1.37663 0)
(0.0208287 1.38175 5.87394e-20)
(-0.00455608 2.65873 -2.02158e-20)
(0.0267685 2.70413 2.96032e-19)
(0.00810663 2.72697 2.08415e-21)
(-0.00758135 1.83873 6.34376e-20)
(-0.0179872 1.67672 2.84008e-20)
(0.0124321 1.2956 0)
(0.0163829 1.19415 0)
(0.0445648 1.56539 7.83588e-20)
(0.0279994 1.44188 7.27168e-20)
(0.0333274 1.50755 -9.14223e-20)
(0.0367462 1.58946 0)
(-0.0396241 2.2981 -7.74576e-20)
(-0.0622779 2.54211 2.95197e-20)
(-0.02232 2.45251 -2.23526e-20)
(-0.0215803 1.8524 -7.68691e-20)
(-0.0375648 2.49623 -2.89527e-20)
(-0.0290926 2.44321 1.28703e-19)
(1.02004 0.0205674 -8.97075e-19)
(1.01635 0.0257702 8.99611e-19)
(1.01525 0.0162139 0)
(1.01281 0.065141 1.26221e-18)
(0.993102 0.0555503 -1.41011e-18)
(0.955104 0.0430418 1.57501e-18)
(1.01616 0.101693 -1.68777e-19)
(1.04189 -0.00627013 0)
(1.04998 -0.00212152 8.16417e-19)
(1.0382 -0.0102059 -8.17024e-19)
(1.06992 0.0400918 -4.88264e-20)
(1.06341 0.0218819 4.20351e-19)
(1.06392 0.0518881 0)
(1.05219 0.0466139 -1.50621e-19)
(1.03309 0.039336 0)
(1.02628 0.0356081 0)
(1.02775 0.0126594 0)
(1.02445 0.0154926 0)
(1.03924 0.030088 3.09812e-19)
(1.03941 0.0253813 -6.82437e-19)
(1.05025 0.0322156 -3.29321e-19)
(1.04699 0.0325918 -3.62111e-19)
(1.06759 0.0596583 7.11904e-19)
(1.09309 0.0470045 0)
(1.10067 0.0892438 0)
(-0.0622361 2.29457 -3.15448e-20)
(-0.0241997 2.1799 -4.95462e-21)
(-0.00434172 2.12944 0)
(-0.0625931 2.469 3.3695e-20)
(-0.0819842 2.46166 1.17871e-20)
(-0.100134 2.4747 -1.8403e-20)
(-0.031817 2.61481 9.69687e-20)
(-0.0473723 2.55243 -7.97506e-21)
(-0.0328465 2.51264 3.04238e-20)
(-0.0303569 2.6039 -5.09077e-20)
(-0.0327303 2.60763 6.30373e-20)
(0.0884228 1.58693 2.79496e-21)
(0.0403116 1.7478 5.85998e-20)
(0.366961 1.42021 -5.05443e-20)
(0.36503 1.36369 1.0983e-19)
(0.646249 1.41067 -1.58409e-19)
(0.513607 1.47498 -1.01084e-19)
(0.565648 1.44824 0)
(0.591968 2.42712 2.2621e-19)
(0.658744 2.41867 3.57019e-19)
(0.410822 2.52203 8.26876e-20)
(0.40547 2.55024 -7.07858e-19)
(0.514243 2.4956 6.71778e-19)
(0.551482 2.46527 0)
(0.488835 2.5208 -5.99895e-19)
(0.248849 2.59712 1.28045e-18)
(0.353616 2.57116 -8.39772e-20)
(0.28486 2.65885 -1.73782e-18)
(0.941769 2.37881 8.02839e-19)
(0.834076 2.38365 0)
(1.01091 0.000380482 2.9348e-20)
(1.01521 -0.00557188 -2.38437e-20)
(1.01766 -0.00366874 -4.35781e-19)
(1.01493 -0.00103169 4.37869e-19)
(1.01229 0.000998072 0)
(0.634633 1.28053 0)
(0.65272 1.17518 0)
(0.754375 1.08238 0)
(0.644071 1.14197 0)
(1.18536 2.62251 5.9474e-20)
(1.07407 2.36647 0)
(0.83752 2.18715 4.71035e-21)
(0.826452 2.44957 0)
(0.92207 2.53942 -4.98964e-19)
(0.957613 2.49524 3.32216e-19)
(0.819797 0.14905 0)
(0.789892 0.127949 1.80853e-19)
(0.925171 0.132838 1.05137e-18)
(0.841273 0.127452 -3.94427e-19)
(0.820789 0.0698241 -1.20618e-18)
(1.07401 0.2216 -1.05309e-18)
(0.994656 0.279356 -1.5358e-20)
(0.918949 0.275009 9.83224e-19)
(1.00542 0.207938 8.25902e-19)
(0.952253 0.174082 -1.40378e-18)
(0.9185 0.175305 1.75302e-19)
(0.9501 0.236165 -3.78517e-19)
(0.929091 0.198134 0)
(0.996274 0.173112 6.93613e-19)
(1.04632 0.173387 0)
(1.04504 0.199941 0)
(1.10103 0.106887 3.3507e-19)
(1.07236 0.161948 -1.36787e-20)
(1.06787 0.224107 -1.82356e-19)
(1.09748 0.190339 0)
(1.02302 0.0438182 6.96967e-19)
(1.04117 0.0555779 8.70624e-19)
(1.03319 0.0415301 -6.91017e-19)
(1.04148 0.0609383 -5.83422e-19)
(1.0168 0.0682134 -8.88205e-19)
(0.990442 0.147133 0)
(0.999692 0.0982692 0)
(0.970845 0.0635398 -5.60527e-19)
(0.92304 0.0844636 2.20079e-19)
(1.03789 0.0967704 8.07422e-19)
(1.06822 0.109579 -9.64313e-19)
(1.07253 0.142108 8.59977e-19)
(1.03157 0.134194 0)
(1.07352 0.09982 0)
(1.05684 0.0828555 -3.91396e-19)
(1.04484 0.0898256 -6.6195e-19)
(0.578757 1.07801 1.76161e-19)
(0.611403 1.41373 -7.88815e-20)
(1.15591 2.74142 -2.77375e-19)
(1.2227 3.08241 1.18286e-20)
(1.2482 2.72232 -2.40937e-19)
(1.27835 2.70637 1.80483e-20)
(1.2063 2.34557 -1.0086e-20)
(1.20982 2.98608 -1.3554e-19)
(1.22919 2.95102 3.01222e-19)
(1.21383 3.23606 -1.26183e-19)
(1.37505 2.9675 1.74528e-19)
(1.36577 2.88561 0)
(0.537182 0.848714 -5.52954e-20)
(0.138777 1.25977 6.09573e-19)
(0.530228 0.46492 6.62715e-19)
(0.365404 0.215882 7.33117e-19)
(0.530166 0.392095 7.91373e-19)
(0.54219 0.48185 -1.29863e-18)
(0.545149 0.487648 1.06069e-18)
(0.497793 0.412617 -3.99479e-19)
(0.424108 0.34908 9.06754e-19)
(0.75714 0.249379 -4.03497e-19)
(0.719661 0.285426 0)
(0.711111 0.214191 9.84641e-21)
(0.725793 0.514472 4.22592e-19)
(0.696854 0.482028 -1.53948e-18)
(0.614273 0.478867 1.64445e-20)
(0.625021 0.45995 0)
(0.66697 0.735073 4.45926e-19)
(0.81732 0.771416 4.71423e-19)
(0.743782 0.853982 -5.49726e-19)
(0.85898 0.803471 -1.91245e-19)
(0.89252 0.847383 -5.12191e-20)
(0.900876 0.848967 5.24394e-20)
(0.831461 0.64269 -8.05339e-19)
(0.909081 0.69891 1.77624e-19)
(0.966181 0.71342 0)
(0.956894 0.689535 -2.47008e-19)
(1.0197 0.319463 2.54568e-19)
(1.13003 0.289844 3.67274e-19)
(1.05979 0.259064 4.30534e-19)
(1.00379 0.354515 -5.08232e-19)
(1.04249 0.421146 0)
(1.09461 0.406458 0)
(0.906683 0.349688 5.23379e-21)
(0.840694 0.283067 0)
(0.868204 0.275761 4.60261e-19)
(0.902573 0.281204 -5.74416e-21)
(0.932153 0.425329 2.42717e-18)
(0.887915 0.486308 6.27305e-19)
(0.893435 0.450448 -6.59285e-19)
(0.817389 0.434056 7.06207e-19)
(0.799952 0.430466 4.20575e-19)
(0.770401 0.418233 -4.13438e-19)
(1.02719 -0.000481681 7.26798e-19)
(1.01999 -0.000260918 0)
(1.0185 0.000682764 4.73486e-19)
(1.02166 -0.00197493 -1.07285e-18)
(1.02228 0.00403337 5.21087e-19)
(1.02043 0.0109584 -1.09134e-18)
(1.02138 0.0103588 0)
(1.02075 0.0106279 -2.27208e-19)
(1.016 0.00754533 5.69962e-19)
(1.01678 0.0102818 -2.84322e-19)
(1.01748 0.0096185 2.09481e-19)
(0.0309778 1.30925 0)
(0.039505 1.34522 0)
(0.0432601 1.31093 0)
(0.0508447 1.2755 0)
(0.0686749 1.36755 1.05677e-19)
(0.0767198 1.34025 -2.41903e-20)
(0.111862 1.49761 -5.40674e-20)
(0.0911667 1.3401 3.47828e-20)
(0.0321928 1.4438 -1.00124e-19)
(0.0361214 1.4346 7.75724e-20)
(0.0619429 1.35011 -5.66564e-21)
(0.0555261 1.35135 -5.77351e-20)
(0.0515004 1.33194 -8.74922e-21)
(0.0407484 1.35226 -1.15754e-20)
(0.10671 2.38573 -2.2975e-19)
(0.0956643 2.43 0)
(0.173036 2.06001 1.40197e-19)
(0.108493 1.70866 7.42666e-20)
(0.232391 2.05171 -1.13016e-19)
(0.208532 2.44766 0)
(0.267707 2.39885 -6.88592e-19)
(0.306976 2.39673 4.88229e-19)
(0.234074 2.00991 -3.16389e-19)
(0.15443 2.17546 2.00732e-19)
(0.145753 2.2941 0)
(0.0118136 1.88123 -1.11576e-19)
(-0.0099148 2.41102 -1.81666e-19)
(-0.00171051 2.16401 0)
(0.00977875 2.46946 -1.42417e-20)
(0.0195571 2.3172 6.68128e-20)
(0.0145861 1.39304 9.23385e-21)
(0.0122798 1.38196 -1.40056e-19)
(0.0145523 1.39038 3.37653e-20)
(0.0122673 1.38925 5.11341e-20)
(0.0203841 1.41259 0)
(0.0176613 1.37154 0)
(0.0557661 1.26093 5.89781e-20)
(0.0540642 1.37307 -2.10046e-20)
(0.0192718 1.36505 0)
(0.035381 1.2746 3.69008e-20)
(0.0087746 1.1492 -7.74209e-20)
(1.03991 0.010901 0)
(1.04611 0.00715698 -7.65837e-20)
(1.03855 0.0201297 -5.50324e-19)
(1.04767 0.0190409 0)
(1.05121 0.0192783 0)
(1.03653 0.0108389 -6.60765e-21)
(1.03105 0.0106183 8.8328e-19)
(1.03202 0.0157009 1.07098e-18)
(1.02599 0.0196498 0)
(1.0233 0.020098 0)
(1.03519 0.0236864 5.49465e-19)
(1.02637 0.0250806 0)
(1.02473 0.0251052 0)
(-0.0473821 2.01864 0)
(0.0240393 1.73367 3.06044e-21)
(-0.0127978 1.8112 2.48212e-21)
(0.0633035 1.37876 0)
(0.0204881 1.59832 4.16176e-20)
(0.0541444 1.50679 -2.2513e-20)
(0.0872045 1.44008 0)
(0.395872 1.6774 0)
(0.366811 1.29288 -1.97108e-19)
(0.307372 1.34105 0)
(0.423634 1.29331 1.67001e-19)
(0.466557 1.44878 0)
(0.447657 1.39363 -4.72789e-20)
(1.03441 2.68668 -1.72515e-20)
(0.963688 2.409 -1.00897e-18)
(0.913052 2.18722 1.16674e-18)
(0.847369 2.3754 2.62217e-19)
(0.846235 2.49832 0)
(0.91644 2.49375 0)
(0.92515 2.37224 0)
(0.902891 2.35921 -1.02e-18)
(0.691586 2.4681 -4.59204e-19)
(0.801842 2.45876 -1.1147e-19)
(0.812657 2.43151 8.50751e-20)
(0.693696 2.39302 0)
(0.797411 2.38815 0)
(0.756355 2.40105 -3.89407e-19)
(0.769352 2.48933 0)
(0.611595 1.09822 0)
(0.481528 0.928555 -5.76118e-19)
(0.549054 0.964194 -3.6542e-20)
(0.519156 1.0559 0)
(0.519022 1.00546 8.65084e-19)
(0.767618 0.880466 -1.59635e-19)
(0.778554 1.01312 0)
(0.751953 0.97149 2.40243e-19)
(0.63996 1.03497 0)
(0.644242 0.944344 0)
(1.16405 2.76222 -2.79795e-19)
(1.14154 2.82602 -1.33203e-19)
(0.931071 2.34661 1.61861e-19)
(0.898973 2.32519 -1.02894e-19)
(1.12893 2.73469 0)
(1.08249 2.70469 1.23843e-19)
(1.08876 2.48634 -3.58318e-19)
(0.983534 2.2334 -3.03723e-20)
(0.498358 1.35827 0)
(0.510822 1.07637 -1.55399e-19)
(0.562311 1.16289 0)
(0.860952 0.213073 0)
(0.797378 0.166769 0)
(0.748556 0.140461 0)
(0.855544 0.219195 -7.24467e-19)
(0.77392 0.211195 4.23465e-19)
(0.936686 0.0713348 -4.54602e-19)
(0.950261 0.116123 0)
(0.928795 0.124764 1.95271e-19)
(0.870282 0.100623 7.82279e-19)
(0.847508 0.0601716 -4.89553e-19)
(1.16146 3.36159 -6.8617e-19)
(1.20891 3.2809 0)
(1.16007 3.38958 -1.42564e-18)
(0.647644 3.55048 1.2091e-18)
(0.872489 3.11799 3.14357e-20)
(0.511229 0.854359 6.55682e-19)
(0.429047 0.847151 0)
(0.339629 0.499403 -1.64642e-19)
(0.446191 0.684482 9.42531e-19)
(0.533275 0.471333 -2.28851e-19)
(0.507785 0.523133 2.58828e-19)
(0.658197 0.535216 5.68206e-19)
(0.686168 0.552979 0)
(0.637671 0.618558 0)
(0.596148 0.555687 0)
(0.969173 0.598251 1.32271e-19)
(0.889476 0.535485 -6.10465e-19)
(0.913207 0.568607 4.75788e-19)
(0.949236 0.503876 -4.74596e-19)
(1.05221 0.48013 0)
(1.06077 0.568656 -1.24474e-19)
(0.84088 0.385846 -9.61256e-19)
(0.844821 0.371111 -1.19238e-18)
(0.792674 0.383449 7.49405e-19)
(0.789872 0.351714 -7.63361e-19)
(0.840021 0.307127 -5.979e-19)
(0.793844 0.306387 7.34651e-19)
(1.02673 0.00540727 -5.5771e-19)
(1.02648 0.00562595 1.13756e-18)
(1.02905 -0.000550537 7.05498e-19)
(1.03333 0.000512504 -8.4928e-19)
(1.03297 0.00805245 0)
(1.03003 0.00865739 -1.3826e-18)
(0.060304 1.64346 4.09783e-20)
(0.0414128 1.56741 0)
(0.0863439 1.69545 2.66199e-19)
(0.0936742 1.67498 -2.39078e-19)
(0.08962 1.51498 1.01474e-19)
(0.0826629 1.49511 0)
(0.00018282 1.69583 0)
(-0.0102808 1.50674 -2.31065e-20)
(0.00920698 1.44709 2.08116e-20)
(0.0158228 1.58829 5.98881e-21)
(-0.00693137 1.89128 -4.32575e-20)
(-0.0355918 1.93884 2.34591e-20)
(0.4976 1.37416 -3.889e-19)
(0.493131 1.37873 4.25106e-19)
(0.446519 1.28979 -1.14971e-19)
(0.438281 1.29438 1.38421e-20)
(0.626206 1.2938 0)
(0.543635 1.38085 1.88162e-20)
(0.560996 1.38927 -1.83208e-20)
(0.455784 1.27672 1.10752e-19)
(0.5115 1.23127 0)
(0.564502 1.19832 0)
(0.658753 2.42785 6.74579e-19)
(0.670837 2.46469 1.39267e-18)
(0.716883 2.47713 -9.58729e-19)
(0.61633 2.45455 -2.206e-19)
(0.563613 2.54562 3.16065e-19)
(0.512394 2.51895 -8.35241e-19)
(0.975373 2.37748 -6.53889e-19)
(1.01187 2.39211 0)
(0.921168 2.16592 -7.51827e-19)
(1.05253 2.68385 0)
(1.05466 2.67045 0)
(0.612652 2.27833 -1.57322e-19)
(1.04176 3.16465 9.25054e-20)
(0.913007 3.03499 5.7228e-21)
(0.282517 0.918944 0)
(0.323783 0.78097 -3.43038e-19)
(0.480539 0.734892 -3.53611e-19)
(0.39201 2.02599 0)
(0.468009 2.78707 -2.18834e-20)
(0.424627 2.55115 0)
(0.680084 0.68204 -9.47275e-19)
(0.762525 0.681453 1.30126e-18)
(0.782393 0.623543 -1.28978e-18)
(0.662179 0.644237 -1.22104e-19)
(0.719024 0.598081 -5.07967e-19)
(1.00358 2.76836 -7.0337e-20)
(1.04043 2.82477 -2.28839e-19)
(0.641054 2.15533 7.34987e-19)
(0.596169 1.72032 -5.20121e-19)
(0.699228 1.91034 -4.80489e-19)
(0.989019 2.45124 -1.21513e-19)
(0.993909 2.44535 3.65469e-19)
(0.66083 1.85117 3.27775e-20)
(0.450569 1.33758 1.78281e-19)
)
;

boundaryField
{
    wall-4
    {
        type            noSlip;
    }
    velocity-inlet-5
    {
        type            fixedValue;
        value           uniform (1 0 0);
    }
    velocity-inlet-6
    {
        type            fixedValue;
        value           uniform (0 3 0);
    }
    pressure-outlet-7
    {
        type            zeroGradient;
    }
    wall-8
    {
        type            noSlip;
    }
    frontAndBackPlanes
    {
        type            empty;
    }
}


// ************************************************************************* //
