/*--------------------------------*- C++ -*----------------------------------*\
  =========                 |
  \\      /  F ield         | OpenFOAM: The Open Source CFD Toolbox
   \\    /   O peration     | Website:  https://openfoam.org
    \\  /    A nd           | Version:  13
     \\/     M anipulation  |
\*---------------------------------------------------------------------------*/
FoamFile
{
    format      ascii;
    class       volScalarField;
    location    "3.63";
    object      T;
}
// * * * * * * * * * * * * * * * * * * * * * * * * * * * * * * * * * * * * * //

dimensions      [0 0 0 1 0 0 0];

internalField   nonuniform List<scalar> 
1000
(
9.031e-61
1.22108e-60
1.96739e-60
3.4005e-60
6.01513e-60
1.07106e-59
1.90956e-59
3.40312e-59
6.05923e-59
1.07767e-58
1.9145e-58
3.39723e-58
6.0213e-58
1.06598e-57
1.88497e-57
3.32928e-57
5.87342e-57
1.03496e-56
1.82159e-56
3.20235e-56
5.62314e-56
9.86237e-56
1.72773e-55
3.02315e-55
5.28366e-55
9.2236e-55
1.60826e-54
2.80093e-54
4.87233e-54
8.46567e-54
1.46918e-53
2.54669e-53
4.40927e-53
7.62509e-53
1.31707e-52
2.27229e-52
3.91565e-52
6.73954e-52
1.15863e-51
1.98949e-51
3.41214e-51
5.84518e-51
1.00012e-50
1.7092e-50
2.91755e-50
4.97425e-50
8.47073e-50
1.44078e-49
2.4477e-49
4.15337e-49
7.03925e-49
1.19161e-48
2.01477e-48
3.40249e-48
5.73918e-48
9.66906e-48
1.62705e-47
2.73461e-47
4.59063e-47
7.69712e-47
1.28903e-46
2.15615e-46
3.60225e-46
6.01099e-46
1.00184e-45
1.66773e-45
2.7729e-45
4.60489e-45
7.63803e-45
1.26538e-44
2.0938e-44
3.46041e-44
5.7121e-44
9.41758e-44
1.55081e-43
2.55066e-43
4.19008e-43
6.87489e-43
1.12664e-42
1.84406e-42
3.01468e-42
4.92243e-42
8.0277e-42
1.3076e-41
2.12732e-41
3.45671e-41
5.61001e-41
9.09361e-41
1.47225e-40
2.38065e-40
3.84487e-40
6.20208e-40
9.99227e-40
1.6079e-39
2.5842e-39
4.14821e-39
6.65067e-39
1.06497e-38
1.70325e-38
2.72075e-38
4.34076e-38
6.91688e-38
1.10083e-37
1.74985e-37
2.77809e-37
4.40513e-37
6.97648e-37
1.10352e-36
1.74337e-36
2.75084e-36
4.33515e-36
6.82353e-36
1.0727e-35
1.68427e-35
2.64124e-35
4.13684e-35
6.47131e-35
1.01107e-34
1.57772e-34
2.4589e-34
3.8275e-34
5.95048e-34
9.23953e-34
1.43288e-33
2.21937e-33
3.4333e-33
5.30461e-33
8.1857e-33
1.26159e-32
1.94196e-32
2.98553e-32
4.58419e-32
7.03011e-32
1.07676e-31
1.64717e-31
2.51659e-31
3.84013e-31
5.85243e-31
8.90809e-31
1.35422e-30
2.05614e-30
3.11796e-30
4.72221e-30
7.14293e-30
1.0791e-29
1.62819e-29
2.4536e-29
3.6928e-29
5.5509e-29
8.33345e-29
1.24951e-28
1.87116e-28
2.79857e-28
4.18035e-28
6.23654e-28
9.2924e-28
1.38282e-27
2.0552e-27
3.05067e-27
4.5226e-27
6.69628e-27
9.90217e-27
1.46244e-26
2.15713e-26
3.1778e-26
4.67549e-26
6.87034e-26
1.00827e-25
1.47785e-25
2.16336e-25
3.16285e-25
4.61825e-25
6.73481e-25
9.80893e-25
1.42681e-24
2.07281e-24
3.00746e-24
4.35801e-24
6.30702e-24
9.11607e-24
1.31595e-23
1.89721e-23
2.73174e-23
3.92834e-23
5.6419e-23
8.09259e-23
1.1593e-22
1.65863e-22
2.36999e-22
3.38213e-22
4.82036e-22
6.86139e-22
9.75415e-22
1.38488e-21
1.96371e-21
2.7809e-21
3.93313e-21
5.55565e-21
7.83744e-21
1.10422e-20
1.55375e-20
2.18348e-20
3.06449e-20
4.29547e-20
6.01318e-20
8.40698e-20
1.17386e-19
1.63695e-19
2.27979e-19
3.17099e-19
4.4049e-19
6.11107e-19
8.46719e-19
1.17166e-18
1.61921e-18
2.23483e-18
3.08054e-18
4.2408e-18
5.83053e-18
8.00584e-18
1.09785e-17
1.50356e-17
2.05654e-17
2.80925e-17
3.8325e-17
5.2217e-17
7.10525e-17
9.65572e-17
1.31047e-16
1.77626e-16
2.4045e-16
3.25071e-16
4.38904e-16
5.91831e-16
7.97006e-16
1.07192e-15
1.43979e-15
1.9314e-15
2.5875e-15
3.46199e-15
4.626e-15
6.17336e-15
8.22759e-15
1.09511e-14
1.45573e-14
1.93257e-14
2.56228e-14
3.39276e-14
4.48655e-14
5.92526e-14
7.81513e-14
1.02943e-13
1.35424e-13
1.77921e-13
2.33448e-13
3.05907e-13
4.00333e-13
5.23222e-13
6.82943e-13
8.90258e-13
1.15899e-12
1.50688e-12
1.95663e-12
2.5373e-12
3.28601e-12
4.25008e-12
5.48982e-12
7.08193e-12
9.12384e-12
1.17391e-11
1.50843e-11
1.93574e-11
2.48086e-11
3.17533e-11
4.05888e-11
5.18151e-11
6.60599e-11
8.41107e-11
1.06954e-10
1.35823e-10
1.72258e-10
2.18182e-10
2.75988e-10
3.48652e-10
4.3987e-10
5.54229e-10
6.97404e-10
8.76418e-10
1.09994e-09
1.37866e-09
1.72575e-09
2.15739e-09
2.69347e-09
3.35834e-09
4.18186e-09
5.20049e-09
6.45878e-09
8.01102e-09
9.9233e-09
1.2276e-08
1.51665e-08
1.87132e-08
2.3059e-08
2.83768e-08
3.48753e-08
4.28059e-08
5.24712e-08
6.42346e-08
7.85324e-08
9.5887e-08
1.16924e-07
1.42389e-07
1.73173e-07
2.10338e-07
2.55145e-07
3.09091e-07
3.73955e-07
4.51838e-07
5.45229e-07
6.57063e-07
7.90801e-07
9.50517e-07
1.141e-06
1.36786e-06
1.6377e-06
1.9582e-06
2.33837e-06
2.7887e-06
3.32143e-06
3.95076e-06
4.69322e-06
5.56793e-06
6.59708e-06
7.80626e-06
9.22506e-06
1.08875e-05
1.28329e-05
1.51062e-05
1.77591e-05
2.08507e-05
2.44488e-05
2.86306e-05
3.34842e-05
3.91097e-05
4.56212e-05
5.31479e-05
6.18361e-05
7.18516e-05
8.33812e-05
9.66359e-05
0.000111853
0.000129299
0.000149273
0.000172111
0.000198187
0.000227921
0.000261777
0.000300276
0.000343995
0.000393573
0.00044972
0.000513217
0.000584929
0.00066581
0.000756905
0.000859365
0.000974449
0.00110354
0.00124814
0.00140989
0.00159057
0.00179214
0.00201669
0.00226651
0.00254405
0.00285197
0.00319312
0.00357058
0.00398764
0.00444782
0.00495488
0.00551284
0.00612595
0.00679875
0.00753604
0.00834289
0.00922465
0.010187
0.0112357
0.0123771
0.0136177
0.0149642
0.0164236
0.0180033
0.0197107
0.0215538
0.0235405
0.0256791
0.027978
0.0304459
0.0330916
0.0359239
0.0389519
0.0421846
0.0456312
0.0493007
0.0532021
0.0573445
0.0617367
0.0663872
0.0713046
0.076497
0.0819723
0.0877379
0.0938009
0.100168
0.106845
0.113837
0.121149
0.128786
0.136751
0.145046
0.153673
0.162634
0.171928
0.181554
0.19151
0.201795
0.212403
0.22333
0.23457
0.246116
0.257961
0.270094
0.282506
0.295186
0.308122
0.3213
0.334707
0.348328
0.362147
0.376148
0.390313
0.404624
0.419064
0.433612
0.44825
0.462957
0.477714
0.492499
0.507293
0.522074
0.536822
0.551516
0.566137
0.580663
0.595075
0.609353
0.62348
0.637435
0.651201
0.664762
0.6781
0.6912
0.704046
0.716625
0.728924
0.740929
0.75263
0.764015
0.775076
0.785802
0.796186
0.806221
0.8159
0.825219
0.834172
0.842755
0.850965
0.858801
0.866258
0.873337
0.880037
0.886356
0.892296
0.897856
0.903037
0.907841
0.912267
0.916318
0.919995
0.923299
0.926232
0.928795
0.930989
0.932815
0.934275
0.935369
0.936098
0.936462
0.936462
0.936098
0.935369
0.934275
0.932815
0.930989
0.928795
0.926232
0.923299
0.919995
0.916318
0.912267
0.907841
0.903037
0.897856
0.892296
0.886356
0.880037
0.873337
0.866258
0.858801
0.850965
0.842755
0.834172
0.825219
0.8159
0.806221
0.796186
0.785802
0.775076
0.764015
0.75263
0.740929
0.728924
0.716625
0.704046
0.6912
0.6781
0.664762
0.651201
0.637435
0.62348
0.609353
0.595075
0.580663
0.566137
0.551516
0.536822
0.522074
0.507293
0.492499
0.477714
0.462957
0.44825
0.433612
0.419064
0.404624
0.390313
0.376148
0.362147
0.348328
0.334707
0.3213
0.308122
0.295186
0.282506
0.270094
0.257961
0.246116
0.23457
0.22333
0.212403
0.201795
0.19151
0.181554
0.171928
0.162634
0.153673
0.145046
0.136751
0.128786
0.121149
0.113837
0.106845
0.100168
0.0938009
0.0877379
0.0819723
0.076497
0.0713046
0.0663872
0.0617367
0.0573445
0.0532021
0.0493007
0.0456312
0.0421846
0.0389519
0.0359239
0.0330916
0.0304459
0.027978
0.0256791
0.0235405
0.0215538
0.0197107
0.0180033
0.0164236
0.0149642
0.0136177
0.0123771
0.0112357
0.010187
0.00922465
0.00834289
0.00753604
0.00679875
0.00612595
0.00551284
0.00495488
0.00444782
0.00398764
0.00357058
0.00319312
0.00285197
0.00254405
0.00226651
0.00201669
0.00179214
0.00159057
0.00140989
0.00124814
0.00110354
0.000974449
0.000859365
0.000756905
0.00066581
0.000584929
0.000513217
0.00044972
0.000393573
0.000343995
0.000300276
0.000261777
0.000227921
0.000198187
0.000172111
0.000149273
0.000129299
0.000111853
9.66359e-05
8.33812e-05
7.18516e-05
6.18361e-05
5.31479e-05
4.56212e-05
3.91097e-05
3.34842e-05
2.86306e-05
2.44488e-05
2.08507e-05
1.77591e-05
1.51062e-05
1.28329e-05
1.08875e-05
9.22506e-06
7.80626e-06
6.59708e-06
5.56793e-06
4.69322e-06
3.95076e-06
3.32143e-06
2.7887e-06
2.33837e-06
1.9582e-06
1.6377e-06
1.36786e-06
1.141e-06
9.50517e-07
7.90801e-07
6.57063e-07
5.45229e-07
4.51838e-07
3.73955e-07
3.09091e-07
2.55145e-07
2.10338e-07
1.73173e-07
1.42389e-07
1.16924e-07
9.5887e-08
7.85324e-08
6.42346e-08
5.24712e-08
4.28059e-08
3.48753e-08
2.83768e-08
2.3059e-08
1.87132e-08
1.51665e-08
1.2276e-08
9.9233e-09
8.01102e-09
6.45878e-09
5.20049e-09
4.18186e-09
3.35834e-09
2.69347e-09
2.15739e-09
1.72575e-09
1.37866e-09
1.09994e-09
8.76418e-10
6.97404e-10
5.54229e-10
4.3987e-10
3.48652e-10
2.75988e-10
2.18182e-10
1.72258e-10
1.35823e-10
1.06954e-10
8.41107e-11
6.60599e-11
5.18151e-11
4.05888e-11
3.17533e-11
2.48086e-11
1.93574e-11
1.50843e-11
1.17391e-11
9.12384e-12
7.08193e-12
5.48982e-12
4.25008e-12
3.28601e-12
2.5373e-12
1.95663e-12
1.50688e-12
1.15899e-12
8.90258e-13
6.82943e-13
5.23222e-13
4.00333e-13
3.05907e-13
2.33448e-13
1.77921e-13
1.35424e-13
1.02943e-13
7.81513e-14
5.92526e-14
4.48655e-14
3.39276e-14
2.56228e-14
1.93257e-14
1.45573e-14
1.09511e-14
8.22759e-15
6.17336e-15
4.626e-15
3.46199e-15
2.5875e-15
1.9314e-15
1.43979e-15
1.07192e-15
7.97006e-16
5.91831e-16
4.38904e-16
3.25071e-16
2.4045e-16
1.77626e-16
1.31047e-16
9.65572e-17
7.10525e-17
5.2217e-17
3.8325e-17
2.80925e-17
2.05654e-17
1.50356e-17
1.09785e-17
8.00584e-18
5.83053e-18
4.2408e-18
3.08054e-18
2.23483e-18
1.61921e-18
1.17166e-18
8.46719e-19
6.11107e-19
4.4049e-19
3.17099e-19
2.27979e-19
1.63695e-19
1.17386e-19
8.40698e-20
6.01318e-20
4.29547e-20
3.06449e-20
2.18348e-20
1.55375e-20
1.10422e-20
7.83744e-21
5.55565e-21
3.93313e-21
2.7809e-21
1.96371e-21
1.38488e-21
9.75415e-22
6.86139e-22
4.82036e-22
3.38213e-22
2.36999e-22
1.65863e-22
1.1593e-22
8.09259e-23
5.6419e-23
3.92834e-23
2.73174e-23
1.89721e-23
1.31595e-23
9.11607e-24
6.30702e-24
4.35801e-24
3.00746e-24
2.07281e-24
1.42681e-24
9.80893e-25
6.73481e-25
4.61825e-25
3.16285e-25
2.16336e-25
1.47785e-25
1.00827e-25
6.87034e-26
4.67549e-26
3.1778e-26
2.15713e-26
1.46244e-26
9.90217e-27
6.69628e-27
4.5226e-27
3.05067e-27
2.0552e-27
1.38282e-27
9.2924e-28
6.23654e-28
4.18035e-28
2.79857e-28
1.87116e-28
1.24951e-28
8.33345e-29
5.5509e-29
3.6928e-29
2.4536e-29
1.62819e-29
1.0791e-29
7.14293e-30
4.72221e-30
3.11796e-30
2.05614e-30
1.35422e-30
8.90809e-31
5.85243e-31
3.84013e-31
2.51659e-31
1.64717e-31
1.07676e-31
7.03011e-32
4.58419e-32
2.98553e-32
1.94196e-32
1.26159e-32
8.1857e-33
5.30461e-33
3.4333e-33
2.21937e-33
1.43288e-33
9.23953e-34
5.95048e-34
3.8275e-34
2.4589e-34
1.57772e-34
1.01107e-34
6.47131e-35
4.13684e-35
2.64124e-35
1.68427e-35
1.0727e-35
6.82353e-36
4.33515e-36
2.75084e-36
1.74337e-36
1.10352e-36
6.97648e-37
4.40513e-37
2.77809e-37
1.74985e-37
1.10083e-37
6.91688e-38
4.34076e-38
2.72075e-38
1.70325e-38
1.06497e-38
6.65067e-39
4.14821e-39
2.5842e-39
1.6079e-39
9.99227e-40
6.20208e-40
3.84487e-40
2.38065e-40
1.47225e-40
9.09361e-41
5.61001e-41
3.45671e-41
2.12732e-41
1.3076e-41
8.0277e-42
4.92243e-42
3.01468e-42
1.84406e-42
1.12664e-42
6.87489e-43
4.19008e-43
2.55066e-43
1.55081e-43
9.41758e-44
5.7121e-44
3.46041e-44
2.0938e-44
1.26538e-44
7.63803e-45
4.60489e-45
2.7729e-45
1.66773e-45
1.00184e-45
6.01099e-46
3.60225e-46
2.15615e-46
1.28903e-46
7.69712e-47
4.59063e-47
2.73461e-47
1.62705e-47
9.66906e-48
5.73918e-48
3.40249e-48
2.01477e-48
1.19161e-48
7.03925e-49
4.15337e-49
2.4477e-49
1.44078e-49
8.47073e-50
4.97425e-50
2.91755e-50
1.7092e-50
1.00012e-50
5.84518e-51
3.41214e-51
1.98949e-51
1.15863e-51
6.73954e-52
3.91565e-52
2.27229e-52
1.31707e-52
7.62509e-53
4.40927e-53
2.54669e-53
1.46918e-53
8.46567e-54
4.87233e-54
2.80093e-54
1.60826e-54
9.2236e-55
5.28366e-55
3.02315e-55
1.72773e-55
9.86237e-56
5.62314e-56
3.20235e-56
1.82159e-56
1.03496e-56
5.87342e-57
3.32928e-57
1.88497e-57
1.06598e-57
6.0213e-58
3.39723e-58
1.9145e-58
1.07767e-58
6.05923e-59
3.40312e-59
1.90956e-59
1.07106e-59
6.01513e-60
3.4005e-60
1.96739e-60
1.22108e-60
9.031e-61
)
;

boundaryField
{
    sides
    {
        type            zeroGradient;
    }
    empty
    {
        type            empty;
    }
}


// ************************************************************************* //
