/*--------------------------------*- C++ -*----------------------------------*\
  =========                 |
  \\      /  F ield         | OpenFOAM: The Open Source CFD Toolbox
   \\    /   O peration     | Website:  https://openfoam.org
    \\  /    A nd           | Version:  13
     \\/     M anipulation  |
\*---------------------------------------------------------------------------*/
FoamFile
{
    format      ascii;
    class       volScalarField;
    location    "0.99";
    object      T;
}
// * * * * * * * * * * * * * * * * * * * * * * * * * * * * * * * * * * * * * //

dimensions      [0 0 0 1 0 0 0];

internalField   nonuniform List<scalar> 
1000
(
1.154e-177
4.4444e-177
2.03633e-176
9.3964e-176
4.32922e-175
1.99076e-174
9.1364e-174
4.18485e-173
1.91307e-172
8.72821e-172
3.97432e-171
1.80609e-170
8.19138e-170
3.70775e-169
1.67495e-168
7.55134e-168
3.39766e-167
1.52569e-166
6.83722e-166
3.05788e-165
1.36486e-164
6.07963e-164
2.70264e-163
1.199e-162
5.30846e-162
2.34549e-161
1.03422e-160
4.55099e-160
1.99852e-159
8.75833e-159
3.83037e-158
1.67173e-157
7.28105e-157
3.16464e-156
1.37263e-155
5.9413e-155
2.56629e-154
1.10618e-153
4.75812e-153
2.04238e-152
8.74835e-152
3.73941e-151
1.59501e-150
6.78906e-150
2.8836e-149
1.22219e-148
5.16918e-148
2.18162e-147
9.18777e-147
3.86111e-146
1.61914e-145
6.77521e-145
2.82897e-144
1.17868e-143
4.90033e-143
2.0329e-142
8.41516e-142
3.47588e-141
1.43259e-140
5.89154e-140
2.41761e-139
9.899e-139
4.04429e-138
1.64868e-137
6.70612e-137
2.72174e-136
1.10219e-135
4.45354e-135
1.7955e-134
7.22266e-134
2.89893e-133
1.16093e-132
4.6387e-132
1.84932e-131
7.35608e-131
2.91944e-130
1.15603e-129
4.56723e-129
1.80032e-128
7.08034e-128
2.77822e-127
1.08764e-126
4.24822e-126
1.6555e-125
6.43653e-125
2.49672e-124
9.66233e-124
3.73067e-123
1.43708e-122
5.52285e-122
2.11754e-121
8.09994e-121
3.0911e-120
1.17686e-119
4.47003e-119
1.69383e-118
6.40329e-118
2.41493e-117
9.08602e-117
3.41041e-116
1.27704e-115
4.77045e-115
1.77776e-114
6.6091e-114
2.45112e-113
9.06854e-113
3.34702e-112
1.23232e-111
4.52622e-111
1.65839e-110
6.06145e-110
2.21005e-109
8.03826e-109
2.91644e-108
1.05554e-107
3.81082e-107
1.37243e-106
4.93038e-106
1.76681e-105
6.31563e-105
2.25194e-104
8.00957e-104
2.84164e-103
1.00563e-102
3.54982e-102
1.24991e-101
4.38983e-101
1.53785e-100
5.3737e-100
1.87294e-99
6.51122e-99
2.2578e-98
7.80895e-98
2.69389e-97
9.26925e-97
3.18115e-96
1.08892e-95
3.71773e-95
1.26598e-94
4.29972e-94
1.45651e-93
4.92094e-93
1.6582e-92
5.57288e-92
1.86798e-91
6.24474e-91
2.08209e-90
6.92355e-90
2.29613e-89
7.59455e-89
2.50519e-88
8.24158e-88
2.70401e-87
8.84774e-87
2.88721e-86
9.39602e-86
3.04949e-85
9.87014e-85
3.18589e-84
1.02553e-83
3.29206e-83
1.05388e-82
3.36445e-82
1.07111e-81
3.40053e-81
1.07659e-80
3.39892e-80
1.07008e-79
3.35949e-79
1.05174e-78
3.28337e-78
1.02212e-77
3.1729e-77
9.82144e-77
3.0315e-76
9.33042e-76
2.86353e-75
8.76306e-75
2.674e-74
8.13606e-74
2.46838e-73
7.46709e-73
2.25232e-72
6.77395e-72
2.03136e-71
6.07382e-71
1.81076e-70
5.3825e-70
1.59524e-69
4.71393e-69
1.38884e-68
4.07975e-68
1.19487e-67
3.48907e-67
1.01578e-66
2.94838e-66
8.53223e-66
2.46168e-65
7.08086e-65
2.0306e-64
5.80553e-64
1.65476e-63
4.70222e-63
1.33211e-62
3.76221e-62
1.05928e-61
2.97327e-61
8.31985e-61
2.32086e-60
6.45405e-60
1.78921e-59
4.9446e-59
1.3622e-58
3.74097e-58
1.02414e-57
2.79489e-57
7.60313e-57
2.06178e-56
5.57326e-56
1.50172e-55
4.03349e-55
1.07989e-54
2.8819e-54
7.66619e-54
2.03271e-53
5.37234e-53
1.41527e-52
3.71623e-52
9.72624e-52
2.53726e-51
6.5972e-51
1.70972e-50
4.41626e-50
1.13697e-49
2.91743e-49
7.4612e-49
1.90181e-48
4.83142e-48
1.22328e-47
3.08686e-47
7.76326e-47
1.94583e-46
4.86063e-46
1.21006e-45
3.0022e-45
7.42321e-45
1.82918e-44
4.49191e-44
1.09929e-43
2.68097e-43
6.51586e-43
1.57814e-42
3.80897e-42
9.1613e-42
2.19578e-41
5.24442e-41
1.24819e-40
2.9603e-40
6.99609e-40
1.64755e-39
3.86614e-39
9.04009e-39
2.10629e-38
4.89e-38
1.13121e-37
2.60744e-37
5.98853e-37
1.37043e-36
3.12477e-36
7.09908e-36
1.60695e-35
3.62426e-35
8.14413e-35
1.82337e-34
4.06732e-34
9.03937e-34
2.00153e-33
4.41544e-33
9.70447e-33
2.12496e-32
4.6356e-32
1.00747e-31
2.18138e-31
4.70535e-31
1.01114e-30
2.16467e-30
4.61658e-30
9.80838e-30
2.07596e-29
4.37702e-29
9.19335e-29
1.92354e-28
4.00916e-28
8.32396e-28
1.72157e-27
3.54677e-27
7.27868e-27
1.48791e-26
3.02974e-26
6.1451e-26
1.2415e-25
2.49836e-25
5.0078e-25
9.99815e-25
1.98824e-24
3.93814e-24
7.7693e-24
1.52664e-23
2.9878e-23
5.824e-23
1.13069e-22
2.18631e-22
4.21042e-22
8.07564e-22
1.54264e-21
2.93482e-21
5.56065e-21
1.04928e-20
1.97187e-20
3.69044e-20
6.87841e-20
1.27674e-19
2.36006e-19
4.34449e-19
7.96432e-19
1.45395e-18
2.64323e-18
4.78522e-18
8.62676e-18
1.5487e-17
2.76857e-17
4.92846e-17
8.73631e-17
1.54207e-16
2.71039e-16
4.74364e-16
8.26679e-16
1.43451e-15
2.47863e-15
4.26435e-15
7.30507e-15
1.24602e-14
2.11615e-14
3.5784e-14
6.02487e-14
1.00999e-13
1.68577e-13
2.80145e-13
4.63521e-13
7.63579e-13
1.25237e-12
2.04504e-12
3.32476e-12
5.38147e-12
8.67208e-12
1.39131e-11
2.22227e-11
3.53379e-11
5.59439e-11
8.81716e-11
1.38346e-10
2.16104e-10
3.36057e-10
5.20255e-10
8.01805e-10
1.23018e-09
1.87892e-09
2.85688e-09
4.32427e-09
6.51582e-09
9.77368e-09
1.45941e-08
2.16932e-08
3.20994e-08
4.72815e-08
6.93278e-08
1.01191e-07
1.47026e-07
2.12647e-07
3.06152e-07
4.38758e-07
6.25925e-07
8.88847e-07
1.25643e-06
1.76787e-06
2.4761e-06
3.45212e-06
4.79077e-06
6.61794e-06
9.09994e-06
1.24552e-05
1.69692e-05
2.30128e-05
3.10649e-05
4.17415e-05
5.58291e-05
7.43274e-05
9.8499e-05
0.00012993
0.000170603
0.000222976
0.000290087
0.000375662
0.000484246
0.00062135
0.000793614
0.00100899
0.00127695
0.00160867
0.00201732
0.00251823
0.00312922
0.00387077
0.00476632
0.00584251
0.00712934
0.0086604
0.010473
0.0126081
0.0151108
0.0180295
0.0214166
0.0253275
0.0298206
0.0349568
0.0407987
0.0474102
0.0548549
0.063196
0.0724944
0.0828079
0.0941899
0.106688
0.120343
0.135186
0.151239
0.168515
0.187012
0.206716
0.227602
0.249628
0.272738
0.296865
0.321926
0.347825
0.374455
0.4017
0.429431
0.457516
0.485815
0.514185
0.542484
0.570569
0.5983
0.625545
0.652175
0.678074
0.703135
0.727262
0.750372
0.772398
0.793284
0.812988
0.831485
0.848761
0.864814
0.879657
0.893312
0.90581
0.917192
0.927506
0.936804
0.945145
0.95259
0.959201
0.965043
0.970179
0.974672
0.978583
0.98197
0.984889
0.987391
0.989526
0.991338
0.992869
0.994155
0.99523
0.996124
0.996864
0.997473
0.99797
0.998374
0.9987
0.99896
0.999165
0.999323
0.999441
0.999526
0.99958
0.999606
0.999606
0.99958
0.999526
0.999441
0.999323
0.999165
0.99896
0.9987
0.998374
0.99797
0.997473
0.996864
0.996124
0.99523
0.994155
0.992869
0.991338
0.989526
0.987391
0.984889
0.98197
0.978583
0.974672
0.970179
0.965043
0.959201
0.95259
0.945145
0.936804
0.927506
0.917192
0.90581
0.893312
0.879657
0.864814
0.848761
0.831485
0.812988
0.793284
0.772398
0.750372
0.727262
0.703135
0.678074
0.652175
0.625545
0.5983
0.570569
0.542484
0.514185
0.485815
0.457516
0.429431
0.4017
0.374455
0.347825
0.321926
0.296865
0.272738
0.249628
0.227602
0.206716
0.187012
0.168515
0.151239
0.135186
0.120343
0.106688
0.0941899
0.0828079
0.0724944
0.063196
0.0548549
0.0474102
0.0407987
0.0349568
0.0298206
0.0253275
0.0214166
0.0180295
0.0151108
0.0126081
0.010473
0.0086604
0.00712934
0.00584251
0.00476632
0.00387077
0.00312922
0.00251823
0.00201732
0.00160867
0.00127695
0.00100899
0.000793614
0.00062135
0.000484246
0.000375662
0.000290087
0.000222976
0.000170603
0.00012993
9.8499e-05
7.43274e-05
5.58291e-05
4.17415e-05
3.10649e-05
2.30128e-05
1.69692e-05
1.24552e-05
9.09994e-06
6.61794e-06
4.79077e-06
3.45212e-06
2.4761e-06
1.76787e-06
1.25643e-06
8.88847e-07
6.25925e-07
4.38758e-07
3.06152e-07
2.12647e-07
1.47026e-07
1.01191e-07
6.93278e-08
4.72815e-08
3.20994e-08
2.16932e-08
1.45941e-08
9.77368e-09
6.51582e-09
4.32427e-09
2.85688e-09
1.87892e-09
1.23018e-09
8.01805e-10
5.20255e-10
3.36057e-10
2.16104e-10
1.38346e-10
8.81716e-11
5.59439e-11
3.53379e-11
2.22227e-11
1.39131e-11
8.67208e-12
5.38147e-12
3.32476e-12
2.04504e-12
1.25237e-12
7.63579e-13
4.63521e-13
2.80145e-13
1.68577e-13
1.00999e-13
6.02487e-14
3.5784e-14
2.11615e-14
1.24602e-14
7.30507e-15
4.26435e-15
2.47863e-15
1.43451e-15
8.26679e-16
4.74364e-16
2.71039e-16
1.54207e-16
8.73631e-17
4.92846e-17
2.76857e-17
1.5487e-17
8.62676e-18
4.78522e-18
2.64323e-18
1.45395e-18
7.96432e-19
4.34449e-19
2.36006e-19
1.27674e-19
6.87841e-20
3.69044e-20
1.97187e-20
1.04928e-20
5.56065e-21
2.93482e-21
1.54264e-21
8.07564e-22
4.21042e-22
2.18631e-22
1.13069e-22
5.824e-23
2.9878e-23
1.52664e-23
7.7693e-24
3.93814e-24
1.98824e-24
9.99815e-25
5.0078e-25
2.49836e-25
1.2415e-25
6.1451e-26
3.02974e-26
1.48791e-26
7.27868e-27
3.54677e-27
1.72157e-27
8.32396e-28
4.00916e-28
1.92354e-28
9.19335e-29
4.37702e-29
2.07596e-29
9.80838e-30
4.61658e-30
2.16467e-30
1.01114e-30
4.70535e-31
2.18138e-31
1.00747e-31
4.6356e-32
2.12496e-32
9.70447e-33
4.41544e-33
2.00153e-33
9.03937e-34
4.06732e-34
1.82337e-34
8.14413e-35
3.62426e-35
1.60695e-35
7.09908e-36
3.12477e-36
1.37043e-36
5.98853e-37
2.60744e-37
1.13121e-37
4.89e-38
2.10629e-38
9.04009e-39
3.86614e-39
1.64755e-39
6.99609e-40
2.9603e-40
1.24819e-40
5.24442e-41
2.19578e-41
9.1613e-42
3.80897e-42
1.57814e-42
6.51586e-43
2.68097e-43
1.09929e-43
4.49191e-44
1.82918e-44
7.42321e-45
3.0022e-45
1.21006e-45
4.86063e-46
1.94583e-46
7.76326e-47
3.08686e-47
1.22328e-47
4.83142e-48
1.90181e-48
7.4612e-49
2.91743e-49
1.13697e-49
4.41626e-50
1.70972e-50
6.5972e-51
2.53726e-51
9.72624e-52
3.71623e-52
1.41527e-52
5.37234e-53
2.03271e-53
7.66619e-54
2.8819e-54
1.07989e-54
4.03349e-55
1.50172e-55
5.57326e-56
2.06178e-56
7.60313e-57
2.79489e-57
1.02414e-57
3.74097e-58
1.3622e-58
4.9446e-59
1.78921e-59
6.45405e-60
2.32086e-60
8.31985e-61
2.97327e-61
1.05928e-61
3.76221e-62
1.33211e-62
4.70222e-63
1.65476e-63
5.80553e-64
2.0306e-64
7.08086e-65
2.46168e-65
8.53223e-66
2.94838e-66
1.01578e-66
3.48907e-67
1.19487e-67
4.07975e-68
1.38884e-68
4.71393e-69
1.59524e-69
5.3825e-70
1.81076e-70
6.07382e-71
2.03136e-71
6.77395e-72
2.25232e-72
7.46709e-73
2.46838e-73
8.13606e-74
2.674e-74
8.76306e-75
2.86353e-75
9.33042e-76
3.0315e-76
9.82144e-77
3.1729e-77
1.02212e-77
3.28337e-78
1.05174e-78
3.35949e-79
1.07008e-79
3.39892e-80
1.07659e-80
3.40053e-81
1.07111e-81
3.36445e-82
1.05388e-82
3.29206e-83
1.02553e-83
3.18589e-84
9.87014e-85
3.04949e-85
9.39602e-86
2.88721e-86
8.84774e-87
2.70401e-87
8.24158e-88
2.50519e-88
7.59455e-89
2.29613e-89
6.92355e-90
2.08209e-90
6.24474e-91
1.86798e-91
5.57288e-92
1.6582e-92
4.92094e-93
1.45651e-93
4.29972e-94
1.26598e-94
3.71773e-95
1.08892e-95
3.18115e-96
9.26925e-97
2.69389e-97
7.80895e-98
2.2578e-98
6.51122e-99
1.87294e-99
5.3737e-100
1.53785e-100
4.38983e-101
1.24991e-101
3.54982e-102
1.00563e-102
2.84164e-103
8.00957e-104
2.25194e-104
6.31563e-105
1.76681e-105
4.93038e-106
1.37243e-106
3.81082e-107
1.05554e-107
2.91644e-108
8.03826e-109
2.21005e-109
6.06145e-110
1.65839e-110
4.52622e-111
1.23232e-111
3.34702e-112
9.06854e-113
2.45112e-113
6.6091e-114
1.77776e-114
4.77045e-115
1.27704e-115
3.41041e-116
9.08602e-117
2.41493e-117
6.40329e-118
1.69383e-118
4.47003e-119
1.17686e-119
3.0911e-120
8.09994e-121
2.11754e-121
5.52285e-122
1.43708e-122
3.73067e-123
9.66233e-124
2.49672e-124
6.43653e-125
1.6555e-125
4.24822e-126
1.08764e-126
2.77822e-127
7.08034e-128
1.80032e-128
4.56723e-129
1.15603e-129
2.91944e-130
7.35608e-131
1.84932e-131
4.6387e-132
1.16093e-132
2.89893e-133
7.22266e-134
1.7955e-134
4.45354e-135
1.10219e-135
2.72174e-136
6.70612e-137
1.64868e-137
4.04429e-138
9.899e-139
2.41761e-139
5.89154e-140
1.43259e-140
3.47588e-141
8.41516e-142
2.0329e-142
4.90033e-143
1.17868e-143
2.82897e-144
6.77521e-145
1.61914e-145
3.86111e-146
9.18777e-147
2.18162e-147
5.16918e-148
1.22219e-148
2.8836e-149
6.78906e-150
1.59501e-150
3.73941e-151
8.74835e-152
2.04238e-152
4.75812e-153
1.10618e-153
2.56629e-154
5.9413e-155
1.37263e-155
3.16464e-156
7.28105e-157
1.67173e-157
3.83037e-158
8.75833e-159
1.99852e-159
4.55099e-160
1.03422e-160
2.34549e-161
5.30846e-162
1.199e-162
2.70264e-163
6.07963e-164
1.36486e-164
3.05788e-165
6.83722e-166
1.52569e-166
3.39766e-167
7.55134e-168
1.67495e-168
3.70775e-169
8.19138e-170
1.80609e-170
3.97432e-171
8.72821e-172
1.91307e-172
4.18485e-173
9.1364e-174
1.99076e-174
4.32922e-175
9.3964e-176
2.03633e-176
4.4444e-177
1.154e-177
)
;

boundaryField
{
    sides
    {
        type            zeroGradient;
    }
    empty
    {
        type            empty;
    }
}


// ************************************************************************* //
