#           x             T        mag(U)             p
       -4.995       348.432   2.53673e-12        100000
       -4.985       348.432   6.92897e-13        100000
       -4.975       348.432   7.07484e-13        100000
       -4.965       348.432   2.15892e-13        100000
       -4.955       348.432     1.838e-13        100000
       -4.945       348.432   7.90631e-13        100000
       -4.935       348.432   1.95178e-12        100000
       -4.925       348.432   7.16236e-13        100000
       -4.915       348.432   2.13412e-12        100000
       -4.905       348.432   5.83492e-14        100000
       -4.895       348.432   1.29389e-12        100000
       -4.885       348.432   1.16698e-14        100000
       -4.875       348.432   1.75048e-14        100000
       -4.865       348.432    1.2443e-12        100000
       -4.855       348.432   9.40881e-13        100000
       -4.845       348.432   1.29973e-12        100000
       -4.835       348.432   1.31286e-13        100000
       -4.825       348.432   6.37465e-13        100000
       -4.815       348.432   1.18741e-12        100000
       -4.805       348.432   1.06196e-12        100000
       -4.795       348.432   2.04514e-12        100000
       -4.785       348.432   1.96053e-12        100000
       -4.775       348.432   1.85405e-12        100000
       -4.765       348.432    1.1276e-12        100000
       -4.755       348.432   1.45435e-12        100000
       -4.745       348.432    7.0019e-13        100000
       -4.735       348.432   5.83492e-14        100000
       -4.725       348.432   2.77159e-14        100000
       -4.715       348.432   7.29365e-15        100000
       -4.705       348.432   2.58341e-12        100000
       -4.695       348.432   3.20921e-13        100000
       -4.685       348.432   1.21512e-12        100000
       -4.675       348.432   1.03278e-12        100000
       -4.665       348.432   1.57105e-12        100000
       -4.655       348.432   1.22533e-13        100000
       -4.645       348.432   2.81827e-12        100000
       -4.635       348.432    1.6119e-12        100000
       -4.625       348.432    9.0733e-13        100000
       -4.615       348.432   5.86409e-13        100000
       -4.605       348.432   1.01965e-12        100000
       -4.595       348.432   2.66948e-13        100000
       -4.585       348.432   8.08136e-13        100000
       -4.575       348.432   1.25159e-12        100000
       -4.565       348.432   1.14073e-12        100000
       -4.555       348.432   4.08444e-14        100000
       -4.545       348.432   2.47546e-12        100000
       -4.535       348.432   1.91094e-13        100000
       -4.525       348.432   2.71324e-13        100000
       -4.515       348.432   1.28806e-12        100000
       -4.505       348.432   1.37266e-12        100000
       -4.495       348.432   6.89979e-13        100000
       -4.485       348.432   1.21075e-13        100000
       -4.475       348.432   9.20458e-13        100000
       -4.465       348.432   2.00429e-12        100000
       -4.455       348.432   1.64545e-12        100000
       -4.445       348.432   2.27562e-13        100000
       -4.435       348.432   2.18809e-13        100000
       -4.425       348.432   7.74585e-13        100000
       -4.415       348.432    1.9722e-12        100000
       -4.405       348.432   1.23992e-12        100000
       -4.395       348.432   6.56428e-14        100000
       -4.385       348.432   1.83071e-12        100000
       -4.375       348.432   7.86255e-13        100000
       -4.365       348.432   7.07484e-13        100000
       -4.355       348.432   5.71822e-13        100000
       -4.345       348.432   1.13781e-13        100000
       -4.335       348.432   1.62357e-12        100000
       -4.325       348.432   3.23838e-13        100000
       -4.315       348.432   8.13971e-13        100000
       -4.305       348.432   5.10555e-14        100000
       -4.295       348.432   3.57389e-13        100000
       -4.285       348.432   1.25159e-12        100000
       -4.275       348.432   2.08598e-13        100000
       -4.265       348.432   1.71984e-12        100000
       -4.255       348.432   4.18655e-13        100000
       -4.245       348.432   1.11447e-12        100000
       -4.235       348.432   2.78617e-13        100000
       -4.225       348.432   5.83492e-15        100000
       -4.215       348.432   1.30702e-12        100000
       -4.205       348.432   1.57251e-12        100000
       -4.195       348.432   8.00843e-13        100000
       -4.185       348.432   1.67754e-13        100000
       -4.175       348.432   1.13052e-12        100000
       -4.165       348.432   1.39017e-12        100000
       -4.155       348.432   4.94509e-13        100000
       -4.145       348.432   1.53458e-12        100000
       -4.135       348.432   3.18003e-13        100000
       -4.125       348.432   1.36099e-12        100000
       -4.115       348.432   1.02257e-12        100000
       -4.105       348.432   1.83216e-12        100000
       -4.095       348.432   2.31938e-13        100000
       -4.085       348.432   3.19316e-12        100000
       -4.075       348.432    1.1203e-12        100000
       -4.065       348.432   1.16844e-12        100000
       -4.055       348.432   2.36898e-12        100000
       -4.045       348.432    2.7993e-12        100000
       -4.035       348.432   3.10709e-12        100000
       -4.025       348.432   2.35585e-12        100000
       -4.015       348.432   1.88176e-12        100000
       -4.005       348.432   9.61303e-13        100000
       -3.995       348.432   2.37044e-12        100000
       -3.985       348.432   3.21942e-12        100000
       -3.975       348.432   2.01451e-12        100000
       -3.965       348.432   2.19685e-12        100000
       -3.955       348.432   1.71547e-12        100000
       -3.945       348.432   3.42656e-12        100000
       -3.935       348.432   3.62203e-12        100000
       -3.925       348.432   2.47546e-12        100000
       -3.915       348.432   2.05827e-12        100000
       -3.905       348.432   2.49589e-12        100000
       -3.895       348.432   7.61457e-13        100000
       -3.885       348.432   1.13927e-12        100000
       -3.875       348.432    6.5497e-13        100000
       -3.865       348.432   1.64836e-13        100000
       -3.855       348.432    6.8852e-13        100000
       -3.845       348.432   7.73127e-13        100000
       -3.835       348.432   5.54317e-13        100000
       -3.825       348.432   2.69865e-13        100000
       -3.815       348.432    1.8803e-12        100000
       -3.805       348.432   1.78111e-12        100000
       -3.795       348.432     1.838e-12        100000
       -3.785       348.432   9.30669e-13        100000
       -3.775       348.432   1.32307e-12        100000
       -3.765       348.432   1.21366e-12        100000
       -3.755       348.432   1.42664e-12        100000
       -3.745       348.432   4.98886e-13        100000
       -3.735       348.432    8.1543e-13        100000
       -3.725       348.432   8.75238e-14        100000
       -3.715       348.432   2.08307e-12        100000
       -3.705       348.432   4.95968e-13        100000
       -3.695       348.432    8.0376e-13        100000
       -3.685       348.432   4.63876e-13        100000
       -3.675       348.432   2.01305e-13        100000
       -3.665       348.432    1.2618e-12        100000
       -3.655       348.432    1.7709e-12        100000
       -3.645       348.432   8.02301e-13        100000
       -3.635       348.432   2.72782e-13        100000
       -3.625       348.432   6.02455e-13        100000
       -3.615       348.432   2.65489e-13        100000
       -3.605       348.432   4.20114e-13        100000
       -3.595       348.432   1.40184e-12        100000
       -3.585       348.432   1.71838e-12        100000
       -3.575       348.432   1.48061e-12        100000
       -3.565       348.432   2.12829e-12        100000
       -3.555       348.432   2.52798e-12        100000
       -3.545       348.432   2.25665e-12        100000
       -3.535       348.432   1.01965e-12        100000
       -3.525       348.432   2.66948e-12        100000
       -3.515       348.432   2.54694e-12        100000
       -3.505       348.432   2.37773e-12        100000
       -3.495       348.432   1.51708e-13        100000
       -3.485       348.432   9.55468e-13        100000
       -3.475       348.432   7.95008e-13        100000
       -3.465       348.432   6.28712e-13        100000
       -3.455       348.432   8.75238e-13        100000
       -3.445       348.432   4.78463e-13        100000
       -3.435       348.432   7.03108e-13        100000
       -3.425       348.432   4.60959e-13        100000
       -3.415       348.432   1.72859e-12        100000
       -3.405       348.432   1.99846e-13        100000
       -3.395       348.432   4.66793e-14        100000
       -3.385       348.432   3.50095e-14        100000
       -3.375       348.432    1.9547e-13        100000
       -3.365       348.432   3.49074e-12        100000
       -3.355       348.432   3.60744e-12        100000
       -3.345       348.432   2.88099e-12        100000
       -3.335       348.432   2.27708e-12        100000
       -3.325       348.432   1.10134e-12        100000
       -3.315       348.432   9.04412e-14        100000
       -3.305       348.432   1.51854e-12        100000
       -3.295       348.432   9.80266e-13        100000
       -3.285       348.432   7.99384e-13        100000
       -3.275       348.432   7.61457e-13        100000
       -3.265       348.432   8.97119e-13        100000
       -3.255       348.432   4.31784e-13        100000
       -3.245       348.432   5.70363e-13        100000
       -3.235       348.432   4.21573e-13        100000
       -3.225       348.432   1.83946e-12        100000
       -3.215       348.432   1.91677e-12        100000
       -3.205       348.432   2.74387e-12        100000
       -3.195       348.432   2.91454e-12        100000
       -3.185       348.432   3.12752e-12        100000
       -3.175       348.432   3.69642e-12        100000
       -3.165       348.432   2.81681e-12        100000
       -3.155       348.432   2.60675e-12        100000
       -3.145       348.432   4.26387e-12        100000
       -3.135       348.432   4.71316e-12        100000
       -3.125       348.432   4.21427e-12        100000
       -3.115       348.432   3.21066e-12        100000
       -3.105       348.432   3.04291e-12        100000
       -3.095       348.432   3.38863e-12        100000
       -3.085       348.432   2.63592e-12        100000
       -3.075       348.432   2.85619e-12        100000
       -3.065       348.432   2.03201e-12        100000
       -3.055       348.432   2.71907e-12        100000
       -3.045       348.432     1.838e-12        100000
       -3.035       348.432   1.68192e-12        100000
       -3.025       348.432   6.18501e-13        100000
       -3.015       348.432   3.88022e-13        100000
       -3.005       348.432   1.11009e-12        100000
       -2.995       348.432   2.47984e-14        100000
       -2.985       348.432   3.04874e-13        100000
       -2.975       348.432   2.66948e-13        100000
       -2.965       348.432   9.83184e-13        100000
       -2.955       348.432   1.98387e-13        100000
       -2.945       348.432   1.19616e-12        100000
       -2.935       348.432   9.80266e-13        100000
       -2.925       348.432   5.52859e-13        100000
       -2.915       348.432   2.84452e-13        100000
       -2.905       348.432   9.91936e-14        100000
       -2.895       348.432      1.52e-12        100000
       -2.885       348.432   5.44106e-13        100000
       -2.875       348.432   2.95247e-12        100000
       -2.865       348.432   1.93573e-12        100000
       -2.855       348.432   2.22019e-12        100000
       -2.845       348.432    8.1543e-13        100000
       -2.835       348.432    8.7232e-13        100000
       -2.825       348.432   3.61698e-25        100000
       -2.815       348.432   1.43685e-12        100000
       -2.805       348.432   8.48981e-13        100000
       -2.795       348.432    3.9094e-13        100000
       -2.785       348.432   4.31784e-13        100000
       -2.775       348.432   4.06986e-13        100000
       -2.765       348.432   1.48499e-12        100000
       -2.755       348.432   1.34495e-12        100000
       -2.745       348.432   1.63378e-13        100000
       -2.735       348.432   1.99846e-13        100000
       -2.725       348.432   9.02954e-13        100000
       -2.715       348.432   2.77159e-13        100000
       -2.705       348.432   1.36683e-12        100000
       -2.695       348.432   9.21917e-13        100000
       -2.685       348.432   2.62571e-13        100000
       -2.675       348.432   1.16698e-14        100000
       -2.665       348.432   9.49633e-13        100000
       -2.655       348.432   2.80076e-13        100000
       -2.645       348.432   6.37465e-13        100000
       -2.635       348.432   7.10401e-13        100000
       -2.625       348.432   7.77503e-13        100000
       -2.615       348.432   1.01528e-12        100000
       -2.605       348.432    8.8399e-13        100000
       -2.595       348.432   1.49082e-12        100000
       -2.585       348.432   1.88322e-12        100000
       -2.575       348.432   5.07638e-13        100000
       -2.565       348.432   1.23554e-12        100000
       -2.555       348.432   1.20637e-12        100000
       -2.545       348.432   3.16544e-13        100000
       -2.535       348.432   1.33328e-12        100000
       -2.525       348.432   9.90477e-13        100000
       -2.515       348.432   1.27055e-12        100000
       -2.505       348.432   1.49374e-12        100000
       -2.495       348.432   9.68596e-13        100000
       -2.485       348.432   4.30325e-13        100000
       -2.475       348.432   3.41343e-13        100000
       -2.465       348.432   1.70671e-12        100000
       -2.455       348.432   6.66639e-13        100000
       -2.445       348.432   6.69557e-13        100000
       -2.435       348.432   8.63568e-13        100000
       -2.425       348.432   8.25641e-13        100000
       -2.415       348.432   2.18955e-12        100000
       -2.405       348.432   1.16844e-12        100000
       -2.395       348.432   1.54625e-13        100000
       -2.385       348.432   1.11301e-12        100000
       -2.375       348.432   8.19806e-13        100000
       -2.365       348.432   9.61303e-13        100000
       -2.355       348.432     2.757e-13        100000
       -2.345       348.432   1.35224e-12        100000
       -2.335       348.432   1.81904e-12        100000
       -2.325       348.432   2.44191e-12        100000
       -2.315       348.432   2.74825e-12        100000
       -2.305       348.432   2.50318e-12        100000
       -2.295       348.432     6.433e-13        100000
       -2.285       348.432   2.37773e-13        100000
       -2.275       348.432   8.28558e-13        100000
       -2.265       348.432   1.00798e-12        100000
       -2.255       348.432   8.09595e-13        100000
       -2.245       348.432   5.84951e-13        100000
       -2.235       348.432   9.02954e-13        100000
       -2.225       348.432   1.21075e-12        100000
       -2.215       348.432   2.51631e-12        100000
       -2.205       348.432   2.63592e-12        100000
       -2.195       348.432   3.40613e-12        100000
       -2.185       348.432   3.45573e-12        100000
       -2.175       348.432   3.32153e-12        100000
       -2.165       348.432    2.3471e-12        100000
       -2.155       348.432   1.80153e-12        100000
       -2.145       348.432   2.93205e-13        100000
       -2.135       348.432   2.04222e-14        100000
       -2.125       348.432   7.74585e-13        100000
       -2.115       348.432    1.1203e-12        100000
       -2.105       348.432   5.38271e-13        100000
       -2.095       348.432   4.13842e-12        100000
       -2.085       348.432   2.56882e-12        100000
       -2.075       348.432   4.18801e-12        100000
       -2.065       348.432   1.19616e-12        100000
       -2.055       348.432   3.55492e-12        100000
       -2.045       348.432   2.97581e-12        100000
       -2.035       348.432   3.70663e-12        100000
       -2.025       348.432   2.30771e-12        100000
       -2.015       348.432   3.94732e-12        100000
       -2.005       348.432   1.16407e-12        100000
       -1.995       348.432   9.04412e-13        100000
       -1.985       348.432   8.48105e-12        100000
       -1.975       348.432   2.56357e-11        100000
       -1.965       348.432   6.29486e-11        100000
       -1.955       348.432   1.49159e-10        100000
       -1.945       348.432   3.40864e-10        100000
       -1.935       348.432   7.67651e-10        100000
       -1.925       348.432   1.70438e-09        100000
       -1.915       348.432    3.7533e-09        100000
       -1.905       348.432   8.17974e-09        100000
       -1.895       348.432   1.76722e-08        100000
       -1.885       348.432   3.78205e-08        100000
       -1.875       348.432   8.01984e-08        100000
       -1.865       348.432    1.6846e-07        100000
       -1.855       348.432   3.50497e-07        100000
       -1.845       348.432   7.22176e-07        100000
       -1.835       348.432   1.47336e-06        100000
       -1.825       348.432   2.97577e-06        100000
       -1.815       348.432   5.94897e-06        100000
       -1.805       348.432   1.17693e-05        100000
       -1.795       348.432   2.30375e-05        100000
       -1.785       348.432   4.46072e-05        100000
       -1.775       348.432   8.54207e-05        100000
       -1.765       348.432   0.000161735       99999.9
       -1.755       348.432   0.000302703       99999.9
       -1.745       348.432   0.000559867       99999.8
       -1.735       348.432    0.00102301       99999.6
       -1.725       348.431    0.00184617       99999.3
       -1.715       348.431    0.00328937       99998.8
       -1.705        348.43    0.00578418       99997.9
       -1.695       348.428     0.0100344       99996.3
       -1.685       348.426     0.0171659       99993.7
       -1.675       348.421     0.0289441       99989.3
       -1.665       348.414     0.0480766       99982.2
       -1.655       348.403     0.0786176       99970.9
       -1.645       348.385      0.126475       99953.2
       -1.635       348.358      0.199998       99925.9
       -1.625       348.317       0.31056       99884.9
       -1.615       348.257      0.472965       99824.5
       -1.605        348.17      0.705351       99737.9
       -1.595        348.05       1.02796       99617.5
       -1.585       347.888       1.45948       99455.9
       -1.575       347.681       2.01005       99249.1
       -1.565        347.43       2.67932       98998.4
       -1.555       347.135       3.46418       98705.7
       -1.545       346.799       4.36228       98371.8
       -1.535       346.422       5.36939       97998.8
       -1.525       346.007       6.47893       97589.5
       -1.515       345.558       7.68282       97147.4
       -1.505       345.077       8.97219         96676
       -1.495       344.569        10.338       96179.2
       -1.485       344.036       11.7716       95660.3
       -1.475       343.482       13.2648       95122.6
       -1.465       342.909       14.8104       94569.1
       -1.455       342.319       16.4018       94002.2
       -1.445       341.716       18.0334       93424.3
       -1.435         341.1       19.7003       92837.1
       -1.425       340.474       21.3981       92242.5
       -1.415       339.838       23.1233       91641.8
       -1.405       339.194       24.8728       91036.2
       -1.395       338.543       26.6437       90426.8
       -1.385       337.885       28.4337       89814.4
       -1.375       337.222        30.241       89199.9
       -1.365       336.554       32.0636       88583.9
       -1.355       335.882       33.9002         87967
       -1.345       335.206       35.7493       87349.7
       -1.335       334.527       37.6099       86732.3
       -1.325       333.844       39.4808       86115.4
       -1.315       333.159       41.3614       85499.2
       -1.305       332.471       43.2507       84883.9
       -1.295       331.781        45.148         84270
       -1.285        331.09       47.0528       83657.5
       -1.275       330.396       48.9645       83046.6
       -1.265       329.701       50.8826       82437.7
       -1.255       329.005       52.8067       81830.7
       -1.245       328.307       54.7363       81225.9
       -1.235       327.609       56.6711       80623.3
       -1.225       326.909       58.6107       80023.1
       -1.215       326.209        60.555       79425.3
       -1.205       325.507       62.5035       78830.2
       -1.195       324.805       64.4561       78237.6
       -1.185       324.103       66.4124       77647.8
       -1.175         323.4       68.3724       77060.7
       -1.165       322.696       70.3358       76476.4
       -1.155       321.993       72.3024         75895
       -1.145       321.288        74.272       75316.6
       -1.135       320.584       76.2445       74741.1
       -1.125       319.879       78.2198       74168.5
       -1.115       319.175       80.1976       73599.1
       -1.105        318.47        82.178       73032.6
       -1.095       317.765       84.1606       72469.3
       -1.085        317.06       86.1455       71909.1
       -1.075       316.355       88.1325       71351.9
       -1.065        315.65       90.1215         70798
       -1.055       314.946       92.1124       70247.2
       -1.045       314.241       94.1051       69699.6
       -1.035       313.537       96.0996       69155.2
       -1.025       312.833       98.0956         68614
       -1.015       312.129       100.093       68076.1
       -1.005       311.425       102.092       67541.3
       -0.995       310.722       104.093       67009.8
       -0.985       310.019       106.094       66481.5
       -0.975       309.316       108.097       65956.5
       -0.965       308.614       110.102       65434.7
       -0.955       307.912       112.107       64916.2
       -0.945        307.21       114.113         64401
       -0.935       306.509        116.12         63889
       -0.925       305.809       118.128       63380.2
       -0.915       305.108       120.137       62874.8
       -0.905       304.409       122.147       62372.5
       -0.895        303.71       124.158       61873.6
       -0.885       303.011       126.169       61377.9
       -0.875       302.314        128.18       60885.4
       -0.865       301.616       130.193       60396.2
       -0.855        300.92       132.205       59910.3
       -0.845       300.224       134.219       59427.6
       -0.835       299.528       136.232       58948.1
       -0.825       298.833       138.246       58471.8
       -0.815       298.139        140.26       57998.8
       -0.805       297.446       142.275         57529
       -0.795       296.753       144.289       57062.5
       -0.785       296.062       146.304       56599.1
       -0.775       295.371       148.319       56138.9
       -0.765        294.68       150.334       55681.9
       -0.755       293.991       152.349       55228.2
       -0.745       293.302       154.364       54777.5
       -0.735       292.614       156.378       54330.1
       -0.725       291.927       158.393       53885.8
       -0.715       291.241       160.407       53444.7
       -0.705       290.556       162.421       53006.8
       -0.695       289.871       164.435       52571.9
       -0.685       289.188       166.448       52140.2
       -0.675       288.505       168.461       51711.7
       -0.665       287.824       170.474       51286.2
       -0.655       287.143       172.486       50863.9
       -0.645       286.464       174.497       50444.6
       -0.635       285.785       176.508       50028.5
       -0.625       285.108       178.518       49615.4
       -0.615       284.431       180.528       49205.4
       -0.605       283.756       182.536       48798.5
       -0.595       283.081       184.544       48394.6
       -0.585       282.408        186.55       47993.8
       -0.575       281.736       188.556       47596.1
       -0.565       281.065        190.56       47201.4
       -0.555       280.395       192.564       46809.7
       -0.545       279.727       194.566         46421
       -0.535        279.06       196.567       46035.4
       -0.525       278.394       198.566       45652.8
       -0.515       277.729       200.564       45273.2
       -0.505       277.066        202.56       44896.7
       -0.495       276.404       204.554       44523.1
       -0.485       275.743       206.547       44152.6
       -0.475       275.084       208.537         43785
       -0.465       274.427       210.526       43420.5
       -0.455       273.771       212.512         43059
       -0.445       273.116       214.496       42700.5
       -0.435       272.464       216.478         42345
       -0.425       271.812       218.456       41992.5
       -0.415       271.163       220.432         41643
       -0.405       270.515       222.405       41296.6
       -0.395        269.87       224.375       40953.2
       -0.385       269.226       226.341       40612.9
       -0.375       268.584       228.304       40275.6
       -0.365       267.945       230.262       39941.4
       -0.355       267.307       232.217       39610.4
       -0.345       266.672       234.167       39282.4
       -0.335       266.039       236.112       38957.5
       -0.325       265.409       238.052       38635.8
       -0.315       264.781       239.987       38317.4
       -0.305       264.156       241.916       38002.1
       -0.295       263.533       243.838       37689.9
       -0.285       262.914       245.754       37381.4
       -0.275       262.299       247.663       37076.4
       -0.265       261.686       249.564       36774.1
       -0.255       261.075       251.455       36474.9
       -0.245        260.47       253.338       36179.9
       -0.235       259.871       255.214       35889.7
       -0.225       259.274        257.08       35602.2
       -0.215       258.678       258.931       35316.3
       -0.205       258.086       260.769       35034.5
       -0.195       257.505       262.599       34759.4
       -0.185       256.932       264.419       34488.9
       -0.175       256.356       266.221       34218.7
       -0.165        255.78       268.003       33950.6
       -0.155       255.219       269.773       33690.5
       -0.145       254.673       271.533       33437.9
       -0.135       254.121       273.272       33184.1
       -0.125       253.559       274.981       32927.9
       -0.115       253.017       276.678       32682.7
       -0.105        252.51       278.378       32452.5
       -0.095       251.997       280.056       32220.2
       -0.085       251.434        281.68       31968.4
       -0.075       250.876       283.274       31722.6
       -0.065       250.402       284.897         31513
       -0.055       249.966       286.541       31317.1
       -0.045       249.454       288.112         31088
       -0.035        248.81       289.566       30811.9
       -0.025       248.315       291.039       30601.4
       -0.015       247.951       292.575       30431.6
       -0.005       247.735       293.615       30304.6
        0.005       247.307       294.011       30115.9
        0.015       247.326       294.313       30113.4
        0.025        247.39       294.648       30132.4
        0.035       247.422       294.919       30139.9
        0.045       247.273       295.073       30073.5
        0.055       247.227       295.194       30055.7
        0.065       247.225       295.371       30053.3
        0.075       247.294       295.569       30078.5
        0.085       247.331       295.719       30087.8
        0.095       247.256       295.783       30054.3
        0.105       247.221       295.833       30038.5
        0.115        247.24       295.916       30046.1
        0.125       247.338       296.017       30081.4
        0.135       247.361       296.067       30086.6
        0.145       247.334       296.048       30072.6
        0.155       247.315       296.008       30062.9
        0.165       247.359       295.987       30080.8
        0.175       247.475       295.971         30120
        0.185       247.486       295.907       30121.3
        0.195        247.48       295.793       30115.9
        0.205       247.477       295.655       30113.3
        0.215        247.54       295.566       30140.1
        0.225       247.624       295.501       30168.1
        0.235       247.648       295.391       30173.7
        0.245        247.65       295.256       30172.5
        0.255        247.63       295.127       30163.7
        0.265       247.681       295.031       30186.9
        0.275       247.747       294.947       30214.7
        0.285       247.738       294.846         30214
        0.295       247.717       294.729       30209.9
        0.305       247.695       294.621       30205.3
        0.315       247.739       294.556       30227.3
        0.325       247.774       294.512       30239.2
        0.335       247.795       294.444       30243.7