#           x             T        mag(U)             p
       -4.995       348.432   6.79184e-12        100000
       -4.985       348.432    6.5424e-12        100000
       -4.975       348.432   7.15361e-12        100000
       -4.965       348.432   8.45771e-12        100000
       -4.955       348.432   8.08282e-12        100000
       -4.945       348.432   9.37234e-12        100000
       -4.935       348.432   7.91361e-12        100000
       -4.925       348.432   9.79537e-12        100000
       -4.915       348.432   7.47161e-12        100000
       -4.905       348.432   9.76036e-12        100000
       -4.895       348.432   7.48037e-12        100000
       -4.885       348.432   8.32059e-12        100000
       -4.875       348.432   6.92459e-12        100000
       -4.865       348.432    9.0908e-12        100000
       -4.855       348.432   7.77795e-12        100000
       -4.845       348.432   8.76696e-12        100000
       -4.835       348.432   8.28413e-12        100000
       -4.825       348.432   8.85449e-12        100000
       -4.815       348.432   7.73127e-12        100000
       -4.805       348.432   8.27391e-12        100000
       -4.795       348.432   6.99023e-12        100000
       -4.785       348.432   6.95231e-12        100000
       -4.775       348.432   6.34839e-12        100000
       -4.765       348.432   5.86118e-12        100000
       -4.755       348.432   6.38924e-12        100000
       -4.745       348.432   7.00774e-12        100000
       -4.735       348.432   5.88452e-12        100000
       -4.725       348.432    5.4221e-12        100000
       -4.715       348.432   4.72191e-12        100000
       -4.705       348.432   4.30325e-12        100000
       -4.695       348.432   5.45857e-12        100000
       -4.685       348.432   4.56874e-12        100000
       -4.675       348.432    5.1712e-12        100000
       -4.665       348.432   3.76352e-12        100000
       -4.655       348.432   6.15146e-12        100000
       -4.645       348.432   2.08452e-12        100000
       -4.635       348.432    2.6899e-12        100000
       -4.625       348.432   2.14725e-12        100000
       -4.615       348.432   3.45719e-12        100000
       -4.605       348.432    1.7213e-12        100000
       -4.595       348.432   2.22019e-12        100000
       -4.585       348.432   2.05243e-12        100000
       -4.575       348.432   3.33174e-12        100000
       -4.565       348.432   2.77159e-12        100000
       -4.555       348.432   4.05235e-12        100000
       -4.545       348.432   1.96345e-12        100000
       -4.535       348.432   1.59002e-12        100000
       -4.525       348.432   1.84675e-12        100000
       -4.515       348.432   2.19393e-12        100000
       -4.505       348.432   1.41643e-12        100000
       -4.495       348.432   3.00498e-12        100000
       -4.485       348.432   1.12906e-12        100000
       -4.475       348.432   2.88537e-12        100000
       -4.465       348.432   1.99262e-12        100000
       -4.455       348.432   2.93788e-12        100000
       -4.445       348.432   3.52867e-12        100000
       -4.435       348.432   3.94732e-12        100000
       -4.425       348.432   5.07784e-12        100000
       -4.415       348.432   4.83277e-12        100000
       -4.405       348.432   6.20252e-12        100000
       -4.395       348.432   2.61113e-12        100000
       -4.385       348.432   4.58916e-12        100000
       -4.375       348.432   2.81389e-12        100000
       -4.365       348.432   3.71976e-12        100000
       -4.355       348.432   8.13971e-13        100000
       -4.345       348.432   5.90785e-13        100000
       -4.335       348.432   1.07508e-12        100000
       -4.325       348.432   8.34393e-13        100000
       -4.315       348.432    7.4687e-13        100000
       -4.305       348.432   9.97771e-13        100000
       -4.295       348.432   2.68114e-12        100000
       -4.285       348.432    2.3223e-12        100000
       -4.275       348.432   3.35362e-12        100000
       -4.265       348.432   3.08375e-12        100000
       -4.255       348.432   4.58187e-12        100000
       -4.245       348.432   3.98233e-12        100000
       -4.235       348.432   5.11868e-12        100000
       -4.225       348.432   5.28352e-12        100000
       -4.215       348.432   6.00705e-12        100000
       -4.205       348.432   6.41549e-12        100000
       -4.195       348.432    6.1573e-12        100000
       -4.185       348.432   6.09311e-12        100000
       -4.175       348.432   5.40168e-12        100000
       -4.165       348.432   6.38048e-12        100000
       -4.155       348.432   4.00275e-12        100000
       -4.145       348.432   6.95085e-12        100000
       -4.135       348.432   5.06909e-12        100000
       -4.125       348.432   6.06248e-12        100000
       -4.115       348.432   3.99692e-12        100000
       -4.105       348.432   6.94209e-12        100000
       -4.095       348.432   4.80651e-12        100000
       -4.085       348.432   7.75169e-12        100000
       -4.075       348.432    6.2667e-12        100000
       -4.065       348.432   6.96106e-12        100000
       -4.055       348.432   5.80866e-12        100000
       -4.045       348.432   7.50954e-12        100000
       -4.035       348.432   5.01074e-12        100000
       -4.025       348.432   6.55115e-12        100000
       -4.015       348.432   4.95676e-12        100000
       -4.005       348.432   7.68021e-12        100000
       -3.995       348.432   7.44098e-12        100000
       -3.985       348.432   9.08643e-12        100000
       -3.975       348.432   9.28773e-12        100000
       -3.965       348.432   8.78739e-12        100000
       -3.955       348.432   7.82171e-12        100000
       -3.945       348.432   7.85964e-12        100000
       -3.935       348.432   6.80789e-12        100000
       -3.925       348.432   8.26224e-12        100000
       -3.915       348.432   8.36727e-12        100000
       -3.905       348.432   9.76765e-12        100000
       -3.895       348.432   9.96604e-12        100000
       -3.885       348.432   9.75307e-12        100000
       -3.875       348.432    9.3738e-12        100000
       -3.865       348.432   9.44819e-12        100000
       -3.855       348.432   9.27023e-12        100000
       -3.845       348.432    1.0039e-11        100000
       -3.835       348.432   8.80343e-12        100000
       -3.825       348.432   8.62255e-12        100000
       -3.815       348.432   9.04996e-12        100000
       -3.805       348.432   8.85886e-12        100000
       -3.795       348.432   8.88075e-12        100000
       -3.785       348.432   7.56789e-12        100000
       -3.775       348.432   6.59054e-12        100000
       -3.765       348.432   6.33964e-12        100000
       -3.755       348.432   6.57304e-12        100000
       -3.745       348.432   6.58616e-12        100000
       -3.735       348.432   7.13465e-12        100000
       -3.725       348.432   7.49933e-12        100000
       -3.715       348.432   6.28712e-12        100000
       -3.705       348.432   7.13173e-12        100000
       -3.695       348.432   6.27254e-12        100000
       -3.685       348.432   6.34547e-12        100000
       -3.675       348.432   7.09818e-12        100000
       -3.665       348.432   6.88374e-12        100000
       -3.655       348.432   7.47599e-12        100000
       -3.645       348.432   8.39645e-12        100000
       -3.635       348.432   7.66854e-12        100000
       -3.625       348.432   6.59783e-12        100000
       -3.615       348.432   5.11722e-12        100000
       -3.605       348.432    4.5279e-12        100000
       -3.595       348.432   4.18072e-12        100000
       -3.585       348.432   2.17059e-12        100000
       -3.575       348.432   1.95032e-12        100000
       -3.565       348.432   3.48053e-12        100000
       -3.555       348.432   3.93419e-12        100000
       -3.545       348.432   5.47753e-12        100000
       -3.535       348.432   5.08221e-12        100000
       -3.525       348.432   5.97787e-12        100000
       -3.515       348.432   5.67592e-12        100000
       -3.505       348.432   4.89112e-12        100000
       -3.495       348.432   3.58847e-12        100000
       -3.485       348.432   2.86203e-12        100000
       -3.475       348.432   1.72714e-12        100000
       -3.465       348.432   4.94509e-13        100000
       -3.455       348.432    1.9722e-12        100000
       -3.445       348.432   1.82925e-12        100000
       -3.435       348.432   1.34203e-13        100000
       -3.425       348.432   1.56084e-13        100000
       -3.415       348.432   4.91592e-13        100000
       -3.405       348.432   8.31476e-13        100000
       -3.395       348.432   2.31063e-12        100000
       -3.385       348.432   2.28875e-12        100000
       -3.375       348.432    1.9547e-12        100000
       -3.365       348.432   2.77596e-12        100000
       -3.355       348.432   1.33474e-12        100000
       -3.345       348.432   2.18809e-14        100000
       -3.335       348.432   3.47178e-13        100000
       -3.325       348.432   1.42372e-12        100000
       -3.315       348.432   2.29458e-12        100000
       -3.305       348.432   3.19316e-12        100000
       -3.295       348.432   2.94226e-12        100000
       -3.285       348.432   1.85842e-12        100000
       -3.275       348.432   1.20783e-12        100000
       -3.265       348.432   7.71668e-13        100000
       -3.255       348.432   4.06986e-13        100000
       -3.245       348.432    4.7117e-13        100000
       -3.235       348.432   1.19762e-12        100000
       -3.225       348.432   4.15154e-12        100000
       -3.215       348.432    7.6029e-12        100000
       -3.205       348.432   1.58053e-11        100000
       -3.195       348.432   2.86801e-11        100000
       -3.185       348.432   5.69648e-11        100000
       -3.175       348.432   1.12044e-10        100000
       -3.165       348.432   2.20561e-10        100000
       -3.155       348.432    4.3296e-10        100000
       -3.145       348.432    8.4528e-10        100000
       -3.135       348.432   1.63921e-09        100000
       -3.125       348.432   3.15979e-09        100000
       -3.115       348.432   6.05224e-09        100000
       -3.105       348.432   1.15156e-08        100000
       -3.095       348.432   2.17697e-08        100000
       -3.085       348.432   4.08845e-08        100000
       -3.075       348.432   7.62757e-08        100000
       -3.065       348.432   1.41346e-07        100000
       -3.055       348.432   2.60151e-07        100000
       -3.045       348.432    4.7552e-07        100000
       -3.035       348.432   8.63129e-07        100000
       -3.025       348.432   1.55561e-06        100000
       -3.015       348.432   2.78356e-06        100000
       -3.005       348.432   4.94455e-06        100000
       -2.995       348.432   8.71826e-06        100000
       -2.985       348.432   1.52567e-05        100000
       -2.975       348.432   2.64949e-05        100000
       -2.965       348.432   4.56542e-05        100000
       -2.955       348.432   7.80472e-05        100000
       -2.945       348.432   0.000132351        100000
       -2.935       348.432   0.000222602       99999.9
       -2.925       348.432   0.000371272       99999.9
       -2.915       348.432   0.000613964       99999.8
       -2.905       348.432    0.00100648       99999.6
       -2.895       348.431    0.00163529       99999.4
       -2.885       348.431    0.00263284         99999
       -2.875        348.43    0.00419954       99998.4
       -2.865        348.43    0.00663476       99997.5
       -2.855       348.428     0.0103797       99996.2
       -2.845       348.426     0.0160754         99994
       -2.835       348.423     0.0246393       99990.9
       -2.825       348.418     0.0373628       99986.1
       -2.815       348.411     0.0560321       99979.2
       -2.805       348.401     0.0830701       99969.2
       -2.795       348.387      0.121692       99954.8
       -2.785       348.367      0.176062       99934.6
       -2.775       348.339      0.251415       99906.6
       -2.765       348.301      0.354114       99868.3
       -2.755       348.249      0.491548       99817.1
       -2.745       348.182       0.67179       99749.9
       -2.735       348.096       0.90284       99663.5
       -2.725       347.988       1.19116       99555.7
       -2.715       347.857       1.53953       99425.1
       -2.705       347.705       1.94666       99272.7
       -2.695       347.531       2.40997       99099.8
       -2.685       347.338       2.92741         98907
       -2.675       347.125       3.49691       98695.3
       -2.665       346.893       4.11584       98465.8
       -2.655       346.645       4.78108       98219.7
       -2.645       346.381       5.48925       97958.4
       -2.635       346.102        6.2368       97683.2
       -2.625        345.81       7.02023       97395.7
       -2.615       345.507       7.83613       97097.1
       -2.605       345.192        8.6813       96788.8
       -2.595       344.868       9.55278       96471.8
       -2.585       344.536       10.4479       96147.2
       -2.575       344.196       11.3641       95815.9
       -2.565       343.849       12.2994       95478.9
       -2.555       343.496       13.2518       95136.8
       -2.545       343.137       14.2195       94790.3
       -2.535       342.774        15.201         94440
       -2.525       342.406        16.195       94086.5
       -2.515       342.034       17.2004       93730.1
       -2.505       341.659       18.2159       93371.3
       -2.495       341.281       19.2408       93010.4
       -2.485         340.9       20.2742       92647.8
       -2.475       340.516       21.3154       92283.8
       -2.465       340.129       22.3637       91918.5
       -2.455       339.741       23.4186       91552.2
       -2.445       339.351       24.4794       91185.1
       -2.435       338.958       25.5459       90817.4
       -2.425       338.565       26.6174       90449.2
       -2.415       338.169       27.6938       90080.7
       -2.405       337.773       28.7746       89711.9
       -2.395       337.375       29.8596       89343.1
       -2.385       336.975       30.9484       88974.3
       -2.375       336.575       32.0409       88605.6
       -2.365       336.174       33.1367       88237.1
       -2.355       335.772       34.2358       87868.8
       -2.345       335.369       35.3378       87500.9
       -2.335       334.965       36.4427       87133.4
       -2.325       334.561       37.5502       86766.3
       -2.315       334.156       38.6603       86399.8
       -2.305        333.75       39.7728       86033.8
       -2.295       333.344       40.8876       85668.3
       -2.285       332.937       42.0045       85303.6
       -2.275        332.53       43.1235       84939.5
       -2.265       332.122       44.2444       84576.1
       -2.255       331.714       45.3672       84213.4
       -2.245       331.305       46.4918       83851.5
       -2.235       330.896       47.6181       83490.5
       -2.225       330.487       48.7461       83130.2
       -2.215       330.077       49.8756       82770.8
       -2.205       329.668       51.0066       82412.2
       -2.195       329.257        52.139       82054.5
       -2.185       328.847       53.2728       81697.8
       -2.175       328.437       54.4079       81341.9
       -2.165       328.026       55.5443         80987
       -2.155       327.615       56.6819       80633.1
       -2.145       327.204       57.8208       80280.1
       -2.135       326.792       58.9607       79928.1
       -2.125       326.381       60.1017       79577.1
       -2.115        325.97       61.2438         79227
       -2.105       325.558       62.3869         78878
       -2.095       325.146        63.531       78530.1
       -2.085       324.734        64.676       78183.1
       -2.075       324.323        65.822       77837.2
       -2.065       323.911       66.9688       77492.4
       -2.055       323.499       68.1164       77148.6
       -2.045       323.087       69.2649       76805.8
       -2.035       322.675       70.4142       76464.2
       -2.025       322.263       71.5642       76123.6
       -2.015       321.851        72.715       75784.1
       -2.005       321.439       73.8665       75445.6
       -1.995       321.027       75.0187       75108.3
       -1.985       320.615       76.1715       74772.1
       -1.975       320.203        77.325         74437
       -1.965       319.791       78.4791         74103
       -1.955       319.379       79.6338       73770.1
       -1.945       318.967       80.7891       73438.3
       -1.935       318.555        81.945       73107.6
       -1.925       318.144       83.1014       72778.1
       -1.915       317.732       84.2583       72449.6
       -1.905        317.32       85.4157       72122.3
       -1.895       316.909       86.5736       71796.2
       -1.885       316.498        87.732       71471.1
       -1.875       316.086       88.8908       71147.2
       -1.865       315.675       90.0501       70824.5
       -1.855       315.264       91.2098       70502.8
       -1.845       314.853       92.3699       70182.3
       -1.835       314.443       93.5304         69863
       -1.825       314.032       94.6913       69544.8
       -1.815       313.621       95.8525       69227.7
       -1.805       313.211       97.0141       68911.8
       -1.795       312.801       98.1761         68597
       -1.785       312.391       99.3383       68283.3
       -1.775       311.981       100.501       67970.8
       -1.765       311.571       101.664       67659.5
       -1.755       311.161       102.827       67349.2
       -1.745       310.752        103.99       67040.2
       -1.735       310.343       105.154       66732.2
       -1.725       309.934       106.318       66425.4
       -1.715       309.525       107.482       66119.8
       -1.705       309.116       108.647       65815.3
       -1.695       308.707       109.811       65511.9
       -1.685       308.299       110.976       65209.7
       -1.675       307.891       112.141       64908.6
       -1.665       307.483       113.307       64608.7
       -1.655       307.075       114.472       64309.8
       -1.645       306.668       115.638       64012.2
       -1.635        306.26       116.804       63715.6
       -1.625       305.853        117.97       63420.2
       -1.615       305.446       119.136         63126
       -1.605       305.039       120.302       62832.8
       -1.595       304.633       121.469       62540.8
       -1.585       304.226       122.636       62249.9
       -1.575        303.82       123.802       61960.2
       -1.565       303.415       124.969       61671.5
       -1.555       303.009       126.136       61384.1
       -1.545       302.604       127.303       61097.7
       -1.535       302.198        128.47       60812.4
       -1.525       301.793       129.638       60528.2
       -1.515       301.389       130.805       60245.2
       -1.505       300.984       131.972       59963.4
       -1.495        300.58        133.14       59682.5
       -1.485       300.176       134.307       59402.8
       -1.475       299.772       135.475       59124.2
       -1.465       299.369       136.643       58846.8
       -1.455       298.966       137.811       58570.5
       -1.445       298.563       138.978       58295.2
       -1.435        298.16       140.146       58020.8
       -1.425       297.757       141.313       57747.7
       -1.415       297.356       142.482         57476
       -1.405       296.954        143.65       57205.3
       -1.395       296.552       144.818       56935.3
       -1.385        296.15       145.985       56666.1
       -1.375       295.749       147.152       56398.5
       -1.365       295.349       148.321       56132.6
       -1.355       294.949        149.49       55867.7
       -1.345       294.548       150.658       55602.7
       -1.335       294.146       151.823       55338.2
       -1.325       293.746       152.991       55075.9
       -1.315       293.349       154.161       54816.4
       -1.305       292.952       155.331       54557.5
       -1.295       292.551       156.498       54296.9
       -1.285       292.147       157.661       54035.8
       -1.275       291.748       158.828       53778.8
       -1.265       291.356       160.001       53526.8
       -1.255       290.964       161.177         53275
       -1.245       290.561       162.343       53017.4
       -1.235        290.15       163.501       52756.5
       -1.225        289.75       164.665       52503.5
       -1.215       289.367       165.849       52261.3
       -1.205       288.983       167.039       52018.8
       -1.195       288.574        168.21       51761.7
       -1.185       288.141       169.358       51492.1
       -1.175       287.732        170.52       51238.8
       -1.165       287.363       171.728       51009.1
       -1.155       286.996        172.96       50780.1
       -1.145        286.58       174.157       50521.7
       -1.135       286.087       175.293       50221.6
       -1.125       285.646       176.455       49955.7
       -1.115       285.295       177.717       49740.8
       -1.105       284.949       179.038       49527.8
       -1.095       284.545       180.306       49278.4
       -1.085       283.936        181.43         48914
       -1.075       283.425       182.575       48616.8
       -1.065       283.109       183.903       48424.2
       -1.055       282.782       185.309       48225.2
       -1.045        282.44       186.637       48016.8
       -1.035       281.762       187.704       47611.8
       -1.025        281.18       188.742       47286.5
       -1.015        280.92       190.018       47128.2
       -1.005       280.628       191.353       46951.8
       -0.995       280.356        192.63         46792
       -0.985       279.839       193.658       46476.7
       -0.975       279.144       194.575       46097.6
       -0.965        278.89       195.728       45948.5
       -0.955        278.63       196.994       45792.3
       -0.945       278.344       198.257       45629.7
       -0.935       278.066       199.402       45455.8
       -0.925       277.322       200.343       45042.1
       -0.915       276.955       201.393       44842.1
       -0.905       276.732       202.645       44707.7
       -0.895       276.415       203.898       44526.8
       -0.885       276.159       205.115       44379.8
       -0.875       275.623        206.15       44069.6
       -0.865       275.066       207.161       43777.1
       -0.855       274.851       208.405       43652.5
       -0.845       274.585       209.709       43497.2
       -0.835       274.241       210.911         43307
       -0.825       273.646       211.891       42976.1
       -0.815       273.112       212.866       42700.6
       -0.805       272.905       214.084       42582.5
       -0.795        272.66       215.364       42443.4
       -0.785       272.382       216.562       42291.1
       -0.775       271.809        217.52       41971.1
       -0.765       271.182       218.448       41655.9
       -0.755       270.984       219.678       41544.4
       -0.745       270.793       221.029       41431.7
       -0.735        270.47       222.314       41258.7
       -0.725       270.077        223.38       41037.2
       -0.715       269.307       224.272       40644.5
       -0.705       269.036       225.365       40502.2
       -0.695       268.885       226.688       40415.3
       -0.685       268.631       227.975       40277.6
       -0.675        268.29       229.105       40101.1
       -0.665         267.6       229.978       39739.5
       -0.655       267.085         230.9       39487.5
       -0.645       266.921       232.164       39393.5
       -0.635       266.782        233.55       39312.2
       -0.625       266.491        234.86       39160.5
       -0.615       266.098       235.956       38960.9
       -0.605       265.282       236.831       38558.8
       -0.595       264.872       237.876       38362.9
       -0.585       264.701        239.28       38265.6
       -0.575        264.52       240.778       38157.3
       -0.565       264.221       242.117       37991.5
       -0.555       263.801       243.193       37786.5
       -0.545       263.447       243.976         37604
       -0.535       262.432        244.51       37120.1
       -0.525       261.963       245.305         36909
       -0.515       261.781       246.568       36813.1
       -0.505       261.607       247.983         36720
       -0.495       261.409       249.363       36612.2
       -0.485       260.942       250.561       36375.8
       -0.475       260.573       251.712       36198.8
       -0.465       260.417       252.927       36110.7
       -0.455       259.923       253.958       35862.8
       -0.445        259.32       254.897       35602.8
       -0.435       259.076           256       35492.2
       -0.425        258.84       257.182       35379.8
       -0.415       258.637       258.381       35281.6
       -0.405       258.507       259.502       35198.6
       -0.395       257.772       260.358       34837.6
       -0.385       257.293       261.261       34619.2
       -0.375       257.157       262.494       34539.8
       -0.365        257.07       263.876       34489.5
       -0.355        256.94        265.14         34416
       -0.345       256.141       266.046       34066.7
       -0.335       255.619       266.869       33864.7
       -0.325       255.421       267.894       33780.9
       -0.315        255.34       269.026       33735.6
       -0.305        255.06       269.985       33569.6
       -0.295       254.244       270.772       33205.5
       -0.285       254.066       271.792       33110.9
       -0.275       254.021       273.059       33074.2
       -0.265       253.875       274.213       32985.6
       -0.255       253.171       275.124       32688.2
       -0.245       252.859       276.045       32565.9
       -0.235        252.65        277.04       32476.8
       -0.225       252.427       277.966       32382.7
       -0.215       252.046       278.675       32201.6
       -0.205        251.41       279.256         31936
       -0.195       251.258       280.006       31860.4
       -0.185       251.167        280.87       31804.8
       -0.175       251.126       281.682       31769.6
       -0.165       251.021       282.316       31699.6
       -0.155       250.666       282.831         31552
       -0.145       250.596       283.465       31528.6
       -0.135       250.622       284.198       31541.8
       -0.125       250.339       284.754       31405.7
       -0.115       249.929       285.208       31239.4
       -0.105       249.899       285.788       31215.2
       -0.095       249.897       286.412       31205.5
       -0.085       249.902       287.004       31209.5
       -0.075        249.91        287.49       31213.6
       -0.065       249.559       287.766       31068.2
       -0.055       249.343       288.001       30988.4
       -0.045       249.323       288.354       30974.3
       -0.035       249.335       288.756       30971.4
       -0.025       249.397        289.14       30984.3
       -0.015       249.221       289.379       30889.7
       -0.005       248.997       289.553       30795.4
        0.005       248.981       289.814       30784.5
        0.015        248.98       290.119       30788.3
        0.025       248.982       290.378       30794.8
        0.035       248.731       290.506       30695.6
        0.045       248.584       290.625         30644
        0.055       248.579       290.844       30639.2
        0.065       248.621       291.103       30651.9
        0.075       248.595       291.294       30627.6
        0.085       248.407       291.411       30548.4
        0.095       248.382       291.568       30537.3
        0.105       248.398       291.782       30544.1
        0.115       248.415       291.974       30548.1
        0.125       248.272       292.084       30486.7
        0.135       248.204       292.185       30460.6
        0.145       248.203       292.333         30458
        0.155       248.215        292.49       30462.8
        0.165        248.24       292.626       30471.7
        0.175       248.141       292.695       30429.2
        0.185       248.052       292.747       30397.7
        0.195       248.039       292.841       30393.6
        0.205       248.033       292.951       30391.2
        0.215       248.026       293.057       30388.1
        0.225       248.022       293.158       30385.5
        0.235       248.029       293.262       30387.7
        0.245       248.053        293.36       30395.4
        0.255        248.01       293.416       30373.9
        0.265       247.953       293.455       30352.4
        0.275       247.952       293.521       30352.6
        0.285       247.971       293.599       30361.3
        0.295       247.946       293.647       30348.7
        0.305       247.878       293.669       30322.7
        0.315       247.874       293.711       30319.9
        0.325       247.891       293.775       30325.3
        0.335       247.919       293.836       30332.3