/*--------------------------------*- C++ -*----------------------------------*\
  =========                 |
  \\      /  F ield         | OpenFOAM: The Open Source CFD Toolbox
   \\    /   O peration     | Website:  https://openfoam.org
    \\  /    A nd           | Version:  13
     \\/     M anipulation  |
\*---------------------------------------------------------------------------*/
FoamFile
{
    format      ascii;
    class       volScalarField;
    location    "42";
    object      p;
}
// * * * * * * * * * * * * * * * * * * * * * * * * * * * * * * * * * * * * * //

dimensions      [0 2 -2 0 0 0 0];

internalField   nonuniform List<scalar> 
918
(
0.574133
1.22497
0.00786099
0.573496
-0.00702288
1.19198
-0.481919
0.729404
0.554287
-0.0767267
-0.0112326
0.550186
1.0528
0.818716
-1.10635
0.0040088
0.679666
-0.360583
0.553331
-0.0100165
0.765449
0.560867
0.563897
0.554482
0.618802
0.796663
0.933924
0.0218056
0.0017897
0.00112173
-0.0139453
-0.0342434
-0.0250843
1.07562
1.12671
1.1494
0.522492
0.349539
-0.346201
-0.413587
-0.40629
-0.525936
0.722722
0.722599
-0.163915
0.732082
0.739178
0.541449
0.553649
0.554553
0.555625
0.554581
0.555974
0.432572
-0.0806897
-0.112396
-0.0569401
-0.0488657
0.082638
-0.0107199
-0.0126981
-0.0115929
-0.0152078
0.473023
0.545774
0.542897
0.555343
0.564293
1.16452
1.13644
1.16257
1.07632
1.09276
1.03077
1.00333
0.83922
0.861264
0.804435
0.790373
-1.54401
-2.50575
-0.510823
-0.257088
-0.0153198
0.00642645
0.0172869
0.671815
0.670534
0.681379
0.691899
1.10277
-0.35833
-0.471002
0.553463
0.552261
0.560638
0.561334
0.557348
0.556441
-0.0113773
-0.0116417
-0.010862
-0.0101028
-0.0151499
0.754544
0.752127
0.555021
0.552037
0.571136
0.592136
0.583831
0.302144
0.622329
0.635259
0.622269
0.785574
0.781352
0.789537
0.907606
0.871284
0.970814
0.994088
0.0160082
0.00390665
-0.0040018
-0.00951892
-0.00825043
0.518411
0.511108
0.537554
0.525858
0.528309
0.265358
0.130422
0.435043
0.460067
-0.259859
-0.319677
-0.413283
-0.43572
-0.550294
0.620472
0.713117
0.711457
-0.181945
-0.107405
-0.236877
-0.0343882
-0.0946395
0.531831
0.538751
0.533796
0.549229
0.543723
0.545674
0.5579
0.554978
0.556535
0.495376
0.619306
0.358806
0.324051
-0.219553
-0.130489
-0.222189
-0.035033
-0.0300129
0.0971041
0.122454
0.0700444
0.0596288
-0.024135
-0.0160357
-0.0193005
-0.0136203
-0.0138769
0.465974
0.455142
0.485411
0.492751
0.535761
0.536948
0.540316
0.538778
0.954105
0.976582
0.984029
0.957669
-3.5065
-6.30899
0.0716855
0.21015
-0.000562416
-0.00738999
0.00691822
-0.00712505
-0.00233505
-0.00290415
0.0177512
0.0203521
0.0231203
0.0323596
0.659663
0.659474
1.02229
1.02385
1.0029
0.953676
0.541568
0.543684
0.549218
0.545079
-0.0145001
-0.0127296
-0.0150692
0.740352
0.748
0.745987
0.264866
0.177616
0.35161
0.379753
0.650417
0.63867
0.648608
0.684545
0.720881
1.00154
1.01974
1.01798
1.02625
1.07021
1.08655
1.052
0.498379
0.508073
0.503184
0.540739
0.538451
0.539385
0.53494
0.5364
0.534229
-0.0214742
-0.405051
0.50905
0.527556
0.508866
0.514584
0.70034
0.777966
0.693654
0.703572
0.701406
0.0318113
-0.0255942
0.280053
0.246344
0.407092
0.442719
0.422088
0.925447
0.885468
0.935642
0.909013
0.87015
0.896636
-0.35668
-1.86903
-0.981086
0.564504
0.376437
0.465091
0.0414842
0.0202902
0.0280202
1.01688
1.09367
0.674874
0.84402
0.850668
0.756003
0.785809
0.845372
0.770418
0.805717
0.840083
0.818361
0.577163
0.521114
0.532053
0.848241
0.905043
0.150208
0.093346
0.0488052
0.141636
0.199143
0.172907
1.05583
0.961131
1.03322
0.551788
0.552489
0.0102955
0.00856045
0.556663
0.556707
-0.00758274
0.00351047
0.44709
-0.816068
0.135367
0.545147
0.535325
0.552297
-0.0597651
0.387359
-0.0106106
0.0816922
0.0198126
0.548219
0.483628
0.443965
0.0172223
-0.0105265
-0.0094043
-0.187661
0.549461
0.547771
0.551765
0.552735
0.5534
0.000219788
0.00515356
0.00302335
-0.00979695
-0.00653098
-0.00901927
0.51672
0.534573
-0.14324
0.551907
0.554032
0.553854
0.54705
0.552707
0.55094
0.00105043
-0.00443198
-0.00964384
0.248694
0.373396
0.692036
0.784319
0.660856
0.433833
0.195441
0.592515
0.657278
0.560875
0.7174
0.707419
0.725313
0.200816
0.0514008
0.208469
0.149669
0.543014
0.541703
0.533592
0.530636
0.547161
0.545276
0.549825
0.54683
0.549772
0.551167
-0.0175505
-0.0415108
-0.0559441
-0.121669
0.343721
0.603788
0.283604
0.313635
0.174343
-0.00600987
-0.00874708
-0.0109066
-0.0156715
0.031841
0.00469375
0.0731013
0.0731521
0.0426952
0.0173256
0.0229507
0.0107707
0.0133809
0.541478
0.539767
0.54615
0.554789
0.49298
0.49675
0.462493
0.482738
0.468247
0.408976
0.443199
0.418708
0.00638477
0.0215658
0.00611772
-0.00299921
0.004438
-0.00744969
-0.00354783
-0.00403901
0.00407959
-0.00390451
-0.00747141
-0.0136035
-0.14683
-0.260314
1.00838
0.941725
0.150966
0.538655
0.545075
0.541859
0.546671
0.549798
0.550641
0.548383
0.54495
0.535071
0.536753
0.533302
0.534009
-0.0797953
-0.216531
-0.0444811
-0.114413
0.159274
0.641533
0.385233
0.324328
0.318613
0.542214
0.950082
0.742359
0.728446
0.748777
-0.321081
0.0750915
-0.254316
0.365307
0.187414
0.691725
0.740237
0.760508
0.709267
0.661909
-0.0915204
0.571986
-0.0382154
0.00993222
0.20619
0.0922113
0.729619
0.690978
0.695266
0.714246
0.732916
0.696964
0.679504
0.674304
0.709881
0.713545
0.518886
0.27989
0.232793
0.194463
0.672777
0.557358
0.612962
0.52421
0.538043
0.540772
0.539373
0.521463
0.528902
0.524545
0.530611
0.533935
0.542875
0.543255
0.538647
0.540807
-0.022825
-0.0261569
-0.00163127
-0.110073
-0.100889
-0.160095
-0.0386842
0.102982
0.0659496
0.259964
0.365904
0.0783347
-0.0370827
-0.00800952
0.0279716
0.204585
0.229751
0.106648
0.193754
0.182805
0.166879
0.267749
0.272834
0.0066973
0.00201536
0.00171941
-0.000996554
0.0521084
0.123718
0.133963
0.0245818
0.0193027
-0.0116309
-0.0118646
0.00870221
0.00531126
0.00783817
0.0448498
-0.0335669
-0.00172291
0.0154266
0.0268071
0.0210238
0.0167756
0.534058
0.536186
0.535864
0.54363
0.561075
0.57691
0.534654
0.514732
0.505716
0.508694
0.482368
0.492462
0.488357
0.501855
0.52205
0.531114
0.528792
0.531435
0.514365
0.515955
0.502921
0.506598
0.482227
0.463615
0.452114
-0.0236051
0.0177543
0.00700416
-0.0215178
0.00885879
-0.00517085
0.0157841
0.0304068
0.0165706
0.0130643
0.00624739
-0.00182284
0.00114412
-0.052193
0.0305893
-0.160882
-0.19462
-0.263156
0.91282
1.03303
0.835345
0.610965
0.62534
0.864839
0.95183
0.57286
0.759076
0.78278
0.594694
0.863772
0.543452
0.543064
0.540665
0.540143
0.54137
0.0100383
0.111494
0.119025
0.175068
0.290617
0.403956
0.326065
0.203495
0.33639
0.340222
0.636214
0.649966
0.603276
0.625755
0.626213
0.448849
0.525988
0.579358
0.534615
0.583428
0.604916
0.563434
0.594302
0.543026
0.498956
0.495778
0.444403
0.466344
0.443182
0.424744
0.533183
0.511109
0.521298
0.511744
0.531148
0.554988
0.551853
0.583546
0.594718
0.51557
0.473004
0.482977
0.511996
0.473171
0.487554
0.50322
0.241138
0.140397
0.226026
-0.0634453
0.0156199
0.000756749
-0.0463253
-0.000187513
0.285321
-0.410776
-0.384923
-1.01695
0.512263
0.98024
0.681871
0.654767
0.729655
0.709103
0.713546
0.735459
0.740851
0.663423
0.680838
0.684529
0.645314
0.669143
0.691494
0.688758
0.5428
0.412843
0.406762
0.361986
0.233836
0.269633
0.472388
0.394093
0.319157
0.321383
0.484307
0.371273
0.438938
0.477472
0.408958
0.363337
0.56863
0.633465
0.623064
0.597621
0.516202
0.530984
0.555318
0.591121
0.617726
0.649874
0.530306
0.536122
0.537375
0.534916
0.532113
0.535063
0.535194
0.537728
0.538519
0.54145
0.540457
-0.00988253
0.00122419
-0.0125979
-0.0188165
0.0103591
0.00630786
0.0508326
0.0365777
0.0208118
0.027718
0.00141568
-0.00320049
0.00237775
0.0114137
0.12822
0.141542
0.124877
0.0856594
0.273779
0.404266
0.474683
0.353262
0.24603
0.269717
0.292663
0.0178669
0.0450989
0.0312352
0.0727027
0.0644758
-0.00309449
-0.00975793
-0.00514615
0.000598002
0.0134736
-0.00652533
-0.0109942
-0.0024488
-0.00563097
-0.00889515
-0.0128867
0.516921
0.510463
0.511941
0.505953
0.504738
0.518734
0.52297
0.524817
0.530147
0.532214
0.52268
0.528179
0.531804
0.0135107
-0.00829395
-0.0146737
0.00114281
-0.000988751
-0.00137855
-0.00119603
0.138608
0.0689967
0.0736652
0.0276975
-0.0996857
-0.0427632
0.50147
0.499028
0.494414
0.732275
0.582652
0.501158
0.596602
0.702376
0.288754
0.487577
0.320567
0.903949
0.796913
0.943409
0.558565
0.255443
0.412562
0.462873
0.270066
0.342591
0.346403
0.233655
0.265459
0.298802
0.400402
0.277152
0.251935
0.00928162
0.196943
0.314033
0.294858
0.423553
0.485834
0.273703
0.194243
0.149692
0.627254
0.645411
0.663092
0.634934
0.658451
0.593089
0.581523
0.599434
0.608781
0.604858
-0.744401
-0.45169
-1.39605
-0.711002
-0.259994
0.543178
0.506594
0.784614
0.668813
0.729997
0.714326
0.671458
0.637655
0.653157
0.683543
0.377199
0.4892
0.46376
0.468763
0.369047
0.300977
0.603443
0.59729
0.633171
0.65705
0.624427
0.656838
0.528078
0.527725
0.527311
0.523685
0.521985
0.524226
0.0885495
0.057219
0.0921963
0.073773
0.0514021
0.0394109
0.0201267
0.0115026
0.00347278
0.00383257
0.0152631
0.0189162
0.179834
0.121034
0.0446631
0.0733489
0.0140282
-0.051757
-0.0705102
0.0309997
0.123734
0.114134
0.420619
0.672813
0.493535
0.662777
0.501649
0.557871
0.485078
0.478268
0.504916
0.392227
0.4717
0.2453
-0.260703
-0.1686
0.800347
0.81721
0.600104
0.416374
0.186198
0.373036
0.567433
0.501818
0.540334
0.609626
0.600356
0.0277725
0.0925937
0.358306
0.585615
0.247033
0.239352
0.233606
0.409787
0.332537
)
;

boundaryField
{
    wall-4
    {
        type            zeroGradient;
    }
    velocity-inlet-5
    {
        type            zeroGradient;
    }
    velocity-inlet-6
    {
        type            zeroGradient;
    }
    pressure-outlet-7
    {
        type            fixedValue;
        value           uniform 0;
    }
    wall-8
    {
        type            zeroGradient;
    }
    frontAndBackPlanes
    {
        type            empty;
    }
}


// ************************************************************************* //
