/*--------------------------------*- C++ -*----------------------------------*\
  =========                 |
  \\      /  F ield         | OpenFOAM: The Open Source CFD Toolbox
   \\    /   O peration     | Website:  https://openfoam.org
    \\  /    A nd           | Version:  13
     \\/     M anipulation  |
\*---------------------------------------------------------------------------*/
FoamFile
{
    format      ascii;
    class       volVectorField;
    location    "42";
    object      U;
}
// * * * * * * * * * * * * * * * * * * * * * * * * * * * * * * * * * * * * * //

dimensions      [0 1 -1 0 0 0 0];

internalField   nonuniform List<vector> 
918
(
(0.985163 -0.00050291 0)
(0.00500954 2.96625 0)
(0.00686311 0.830136 0)
(0.979703 0.00214801 0)
(-0.0142855 2.03473 2.95689e-20)
(-0.00704207 2.94879 -2.55374e-18)
(0.822165 1.16109 4.24493e-19)
(0.264793 0.126555 -1.62044e-20)
(0.999908 -0.000282511 0)
(0.0605971 0.807304 0)
(0.0163393 0.618204 0)
(0.734861 -0.0159538 0)
(0.0111205 2.93032 0)
(0.00273327 2.79475 0)
(-0.0174657 3.1555 7.61132e-19)
(-0.0181535 1.88075 -4.89169e-21)
(0.329973 0.0334015 1.06172e-18)
(0.190017 1.17278 2.94784e-19)
(0.96277 0.00502005 0)
(-0.00702174 0.584981 0)
(0.0555364 0.1698 -7.67845e-19)
(1.00198 -0.00498036 0)
(1.00022 -0.00979096 0)
(0.975727 -0.00643983 0)
(0.584881 -0.0380302 0)
(0.0156465 2.63932 0)
(-0.0148654 2.91 9.45496e-19)
(0.00472637 0.899996 0)
(0.00844465 1.12981 0)
(0.000920682 0.875209 0)
(-0.0159498 2.60973 0)
(-0.00161485 2.08862 -2.36013e-20)
(-0.00849668 1.85744 0)
(-0.0206087 2.9876 -9.2048e-23)
(-0.0166911 3.0053 1.9848e-18)
(0.0021053 3.00019 0)
(0.870776 -0.0094594 0)
(0.404388 0.93814 1.90362e-19)
(0.800665 1.17889 -4.64769e-19)
(0.946215 1.01693 5.11302e-19)
(0.672005 1.27177 -9.75823e-20)
(0.671423 1.25792 5.64007e-19)
(0.304156 0.20351 1.58088e-20)
(0.279137 0.097829 0)
(1.12678 0.5477 0)
(0.270161 0.195594 7.22558e-20)
(0.235011 0.127234 -7.49799e-20)
(0.919786 -0.00745175 0)
(1.00027 0.000152762 0)
(0.999909 0.00033544 0)
(1.00363 -0.00776871 0)
(1.00096 -0.000928169 0)
(1.00017 3.01031e-05 0)
(0.0773682 1.81379 -8.27575e-19)
(0.0279378 0.987927 0)
(0.0957913 0.870834 0)
(0.0132724 0.937872 0)
(0.0343649 0.747046 0)
(0.0204448 1.9997 0)
(0.0124248 0.832287 0)
(0.0104884 0.640606 0)
(0.0168616 0.815317 0)
(0.0104084 0.592797 0)
(0.838637 -0.015757 0)
(0.846538 0.0291519 0)
(0.767738 -0.00449862 0)
(0.816735 0.0390329 0)
(0.703395 -0.0187729 0)
(0.0146941 3.0004 9.47851e-19)
(0.0115139 3.008 0)
(0.00612153 3.00279 0)
(0.0135536 2.99735 1.07745e-23)
(0.00797399 2.95846 -1.40874e-18)
(0.0144871 2.982 0)
(0.0108273 2.90362 0)
(0.0249025 2.93044 2.18076e-24)
(0.00446489 2.82486 0)
(0.0310316 2.91605 0)
(-0.00561308 2.74566 0)
(0.308373 3.55224 0)
(-0.131787 3.63375 0)
(0.139672 3.24585 -7.08318e-19)
(-0.0125953 2.98121 0)
(-0.0137574 2.01508 0)
(-0.00579765 2.15774 4.82463e-21)
(-0.00970768 1.89425 -1.84404e-20)
(0.430081 0.142685 -3.67381e-19)
(0.331621 0.0180152 -3.54433e-19)
(0.410396 0.157796 -1.10641e-18)
(0.314759 0.0493996 -7.29684e-19)
(0.22281 0.962684 0)
(0.272025 1.31847 -3.55649e-19)
(0.369763 1.25624 5.95088e-19)
(0.987471 0.00855148 0)
(0.941922 0.00584024 0)
(1.0003 0.000578141 0)
(1.00286 0.00930565 0)
(1.00302 0.00846064 -2.83074e-18)
(0.991913 0.00970043 2.13769e-18)
(-0.0148608 0.800156 0)
(-0.0018386 0.576319 0)
(-0.014267 0.947601 0)
(-8.53298e-05 0.809895 0)
(-0.0114934 0.575907 0)
(0.0892885 0.172716 2.3731e-19)
(0.147075 0.149045 0)
(0.99354 -0.00838022 0)
(0.954426 -0.00651895 0)
(0.764443 0.0462843 0)
(0.700124 0.0568527 0)
(0.663967 -0.0309071 0)
(0.962509 -0.00854626 0)
(0.616827 0.076299 0)
(0.444999 -0.0110266 1.57107e-18)
(-0.0366335 2.86388 7.13677e-19)
(0.0418712 2.90966 0)
(0.0543827 2.88502 0)
(-0.00423371 2.69936 0)
(-0.0133561 2.98505 8.97914e-19)
(-0.0180115 2.89504 0)
(-0.0154585 2.98807 -2.7788e-18)
(-0.0133275 2.92516 9.50533e-19)
(0.0259456 1.34559 0)
(0.0446716 1.38995 0)
(-0.00622922 2.11725 2.03006e-22)
(-0.005729 2.06774 0)
(-0.0208856 1.86868 0)
(0.938059 -0.00762547 0)
(0.856502 -0.00972239 0)
(0.863366 0.00621205 0)
(0.949249 -0.0080345 0)
(0.883703 -0.00810493 0)
(0.51662 1.13188 -2.39898e-19)
(0.566069 1.18345 0)
(0.368151 0.882257 3.51051e-20)
(0.310313 0.741197 0)
(0.906032 1.05603 -1.39263e-19)
(1.0154 0.858338 2.76685e-19)
(0.363138 1.36799 0)
(0.527524 1.33396 0)
(0.542988 1.2873 0)
(0.116133 0.180519 -3.06144e-19)
(0.337295 0.195925 0)
(0.303197 0.0907428 2.06474e-19)
(0.986601 0.914125 0)
(1.05289 0.764482 0)
(1.07654 0.704556 -2.08119e-19)
(1.10815 0.608203 0)
(1.15868 0.3937 5.48955e-20)
(0.957555 -0.00883324 0)
(0.962404 -0.0100941 0)
(0.901535 -0.00797552 0)
(0.984175 -0.00917015 0)
(0.974655 -0.00937167 0)
(0.937068 -0.00636295 0)
(1.00019 0.0023368 0)
(1.0009 0.00140455 0)
(0.99991 0.000853795 0)
(0.0350826 2.06567 4.56396e-19)
(0.120467 1.75576 0)
(0.0162207 2.18147 7.13486e-19)
(0.0514204 1.86801 -6.03307e-19)
(0.106 1.18013 -2.40879e-19)
(0.0457969 1.06613 0)
(0.142482 1.02302 0)
(0.00511161 0.895283 0)
(0.0177942 0.69726 0)
(-0.0050476 2.23559 -1.25038e-21)
(0.0266534 2.00637 0)
(-0.00554574 2.23869 -5.64767e-20)
(0.0191086 2.00568 1.00272e-19)
(0.00448219 0.870934 0)
(0.00909968 0.849209 0)
(0.00783686 0.664683 0)
(-0.0044031 0.8019 0)
(0.00269536 0.580823 0)
(0.935887 0.00904973 0)
(0.846329 -0.015275 0)
(0.925763 -0.00012549 0)
(0.84053 -0.0127882 0)
(0.812035 0.000910597 0)
(0.901346 0.0200841 0)
(0.877373 0.0243664 0)
(0.788728 -0.00115248 0)
(0.0057652 3.06487 -8.88816e-21)
(0.0165364 3.05773 0)
(0.0146397 2.96906 0)
(0.00866095 2.8763 0)
(0.925323 3.96862 0)
(1.23996 3.30118 9.29598e-19)
(0.0700721 3.07339 0)
(-0.0285792 2.90478 0)
(0.023324 1.42181 0)
(-0.0169852 1.73359 0)
(0.0170394 1.58751 0)
(-0.0284189 2.56681 -6.33467e-21)
(-0.0145348 2.25812 0)
(-0.0200394 2.40314 0)
(0.0160144 1.93029 -3.41081e-23)
(-0.0060315 2.23076 1.67174e-20)
(-0.00952358 2.19099 1.86501e-20)
(0.007114 1.90413 0)
(0.459981 0.121485 5.53096e-19)
(0.362487 0.00631215 -5.43168e-19)
(0.259841 1.57613 0)
(0.271114 0.737402 -3.20413e-19)
(0.177503 1.6617 -1.07474e-18)
(0.22756 1.20391 1.07736e-18)
(0.902207 0.00648724 0)
(0.967487 0.0110606 0)
(0.974613 0.0107882 0)
(0.923425 0.00648882 0)
(-0.00276835 0.786692 0)
(-0.0160493 0.789645 0)
(-0.00712906 0.575238 0)
(0.232485 0.190122 6.66154e-19)
(0.194565 0.177415 -7.8913e-19)
(0.197792 0.136854 0)
(1.08604 0.0824656 2.96678e-20)
(1.06887 0.0372884 0)
(1.00455 0.0384991 0)
(0.900504 -0.00707723 0)
(0.493668 0.102562 0)
(0.539681 0.0859208 -2.51201e-18)
(0.398215 0.0035419 9.40557e-19)
(0.00903923 2.98132 7.61483e-19)
(-0.0325304 2.86597 4.69075e-20)
(0.00364608 3.05029 -1.87846e-20)
(0.0201156 3.04334 6.67168e-19)
(-0.0149853 2.99656 3.11819e-20)
(-0.0129578 2.94943 -1.25376e-22)
(-0.0172882 3.01196 -5.75544e-19)
(0.0148796 3.02381 4.17036e-19)
(0.00739335 3.03691 -6.61726e-19)
(0.932809 -0.0017314 0)
(0.938667 -0.00357324 0)
(0.844557 -0.00926858 0)
(0.956698 0.0117728 0)
(0.942979 0.0130242 0)
(0.881746 0.00603811 0)
(0.917911 0.0165191 0)
(0.926427 0.0147495 0)
(0.838579 0.00351348 0)
(0.720099 1.41063 2.96127e-20)
(0.753655 1.51976 0)
(0.186799 0.324926 7.31594e-20)
(0.219425 0.659109 5.91512e-19)
(0.259984 0.719663 -3.44279e-19)
(0.265305 0.533702 6.84569e-19)
(0.337487 0.791145 1.60955e-18)
(0.134659 0.221779 3.78423e-19)
(0.384327 0.177151 7.74211e-19)
(0.364228 0.189726 2.01778e-19)
(0.311511 0.0703109 3.85107e-19)
(1.14948 0.451894 2.81531e-20)
(1.16882 0.249009 2.28998e-20)
(0.0076148 2.23034 2.80777e-19)
(0.0467476 1.93653 0)
(0.965191 0.0283954 0)
(0.939354 0.013196 0)
(0.863904 -0.0185709 0)
(0.0113495 3.07448 0)
(0.0198958 2.94422 1.22874e-18)
(0.0164321 2.95642 0)
(0.00628334 2.85052 -1.21887e-18)
(0.00630682 3.09184 2.98938e-19)
(0.00701324 3.08212 0)
(0.786772 1.82238 -1.57464e-19)
(1.24774 2.50035 3.99943e-19)
(0.768918 1.9621 -1.23092e-18)
(0.0200435 2.9819 -6.60167e-19)
(0.0355554 3.00135 0)
(-0.0341378 2.87823 0)
(-0.00467781 2.21537 -1.35038e-20)
(-0.00594806 2.23717 -3.77575e-20)
(0.0146175 1.96492 -9.1452e-21)
(0.276216 1.38399 1.04232e-18)
(0.229888 0.525389 -7.14878e-19)
(0.06369 1.98985 7.92032e-19)
(0.136016 1.87741 -9.38464e-19)
(0.180177 1.49662 9.20392e-20)
(0.00547435 3.11853 -1.67188e-18)
(0.0114348 3.11927 1.82909e-18)
(-0.00914976 2.98061 8.31032e-19)
(-0.00422433 2.97735 -7.87901e-19)
(-0.0214609 2.88082 -8.46395e-19)
(0.00846328 3.09932 -2.22448e-18)
(0.00157949 3.10536 2.24101e-18)
(0.273873 0.682506 0)
(0.238733 0.672867 -1.2183e-18)
(0.0957829 0.222997 5.40165e-19)
(0.35183 0.917116 1.124e-18)
(0.190056 0.266751 -1.73299e-18)
(1.16715 0.169394 7.54466e-20)
(1.17013 0.302706 0)
(1.15558 0.118422 -2.16654e-20)
(-0.00214814 2.24822 -1.91698e-21)
(0.00217449 2.23947 0)
(0.0325728 1.97182 0)
(0.339934 1.29212 -3.75136e-19)
(0.369885 1.12948 -8.10531e-19)
(0.20369 0.365933 1.44359e-18)
(1.00587 -0.0108585 0)
(1.00766 -0.00765197 5.22478e-19)
(0.0243916 1.319 0)
(0.00024072 1.2862 0)
(1.00222 0.0035026 1.80128e-21)
(1.00366 0.00944906 1.06629e-18)
(-0.022345 2.55025 8.02351e-21)
(-0.0286083 2.59193 0)
(0.0354831 3.1785 4.43604e-19)
(0.395215 3.49098 0)
(1.15668 0.646972 -7.31561e-20)
(1.01293 0.0130599 -2.15373e-21)
(1.02126 -0.0103965 0)
(1.0017 0.000112329 7.5984e-23)
(0.102064 1.35867 0)
(0.146179 2.57416 0)
(0.0191624 1.29581 0)
(0.00230947 2.62883 5.7651e-20)
(-0.0216225 2.5889 2.4838e-20)
(1.0013 0.0287771 2.44443e-21)
(1.06167 0.00347657 0)
(1.09457 0.023027 0)
(-0.017354 1.76061 0)
(-0.0247355 2.59437 0)
(-0.00272134 1.28512 0)
(0.294502 1.47118 -1.46545e-19)
(1.01127 -0.00965109 0)
(1.00939 -0.0149345 0)
(1.00237 0.000732007 6.67697e-19)
(1.00547 -0.00482311 -7.8471e-19)
(1.00118 -0.000997351 0)
(0.0001849 1.47799 0)
(0.0183555 1.37425 0)
(0.022362 1.44223 0)
(-0.00183236 1.27273 0)
(0.00657374 1.24648 0)
(0.00131549 1.22111 0)
(1.03461 -0.00638874 0)
(1.02043 0.0157061 -9.14735e-22)
(0.79948 1.26533 2.36118e-19)
(1.00223 0.000293175 -6.64847e-19)
(1.00406 0.00524671 7.78432e-19)
(1.00117 0.00206482 0)
(1.01279 0.0102865 6.6197e-19)
(1.00802 0.00829626 -8.01693e-19)
(1.00858 0.0146904 0)
(-0.028808 2.62141 0)
(-0.0298043 2.60007 -7.04179e-21)
(-0.0286778 2.61384 5.72168e-21)
(1.22778 0.257889 6.41861e-19)
(1.15643 0.0839698 0)
(0.0431038 3.07758 -9.71788e-19)
(0.0653177 2.85409 -7.06823e-20)
(0.141755 3.19288 1.48436e-18)
(0.136544 3.22164 -2.20898e-19)
(0.13532 3.23397 0)
(0.0192539 3.13758 2.52182e-19)
(0.0760251 3.16024 9.59046e-19)
(0.0686304 3.18622 -4.74974e-19)
(0.0223818 3.12941 0)
(0.636231 0.287122 0)
(0.563437 0.338349 0)
(1.12237 0.683509 1.79687e-19)
(1.11743 0.809929 -1.78956e-19)
(1.18412 0.568632 0)
(1.21494 0.504347 0)
(1.01614 0.0132873 -1.2342e-18)
(1.01498 0.014245 1.54923e-18)
(1.02523 -0.00991292 0)
(1.0233 -0.0118942 0)
(1.00644 0.00255977 0)
(1.01042 0.00369292 0)
(1.0046 0.00181818 0)
(1.00978 0.00617915 0)
(1.00786 0.0059748 0)
(1.0045 0.00466445 0)
(0.0901645 1.35527 0)
(0.0845749 1.32678 0)
(0.122727 1.39277 0)
(0.136447 1.40326 0)
(0.146244 2.59843 0)
(0.186245 2.66577 -4.46859e-19)
(0.101809 2.65509 0)
(0.0874841 2.6588 2.21123e-19)
(0.0413616 2.68187 -1.90646e-19)
(0.027827 1.30782 0)
(0.0213564 1.2419 0)
(0.0243515 1.3239 0)
(0.0286657 1.26428 0)
(0.0047872 1.98141 -2.11882e-20)
(-0.0198895 2.61668 7.37495e-21)
(-0.0069325 2.67174 4.55422e-20)
(-0.0174931 2.69132 0)
(-0.0241945 2.62307 -5.67901e-20)
(-0.0240164 2.61798 -2.06521e-20)
(0.0145945 1.98073 1.86429e-20)
(-0.00686109 2.40432 -9.89702e-21)
(-0.0120721 2.42465 -5.16458e-20)
(1.01122 0.0365427 1.25799e-18)
(1.00685 0.0161643 -1.55363e-18)
(1.00249 0.0433179 -1.25852e-18)
(0.980599 0.0224776 1.60382e-18)
(1.06298 0.00734282 0)
(1.04847 -0.00866518 0)
(1.0921 0.0328802 0)
(1.07264 0.0116147 0)
(1.07045 -0.000393002 0)
(1.13713 0.0796438 0)
(1.10875 0.0421546 0)
(1.11179 0.0302507 0)
(-0.0211855 2.44539 -1.28635e-21)
(-0.0208427 2.0119 0)
(-0.0127876 2.22623 0)
(-0.0249225 2.61467 -1.38285e-21)
(-0.0232341 2.62232 -3.20078e-22)
(0.00267802 1.57131 -6.30344e-21)
(0.00705079 1.50464 6.35408e-21)
(-0.00564956 1.38396 0)
(-0.001932 1.39334 0)
(0.000700599 1.39018 0)
(-0.00248049 1.28714 0)
(0.00741544 1.22687 0)
(0.377992 1.48643 2.33644e-19)
(0.417557 1.4905 1.31301e-19)
(0.596775 2.44709 -2.43508e-19)
(0.401434 2.54139 7.18976e-19)
(0.350291 2.0659 7.84854e-20)
(1.02097 -0.00819612 0)
(1.01545 -0.0097939 0)
(1.01489 -0.0155303 0)
(1.00745 -0.0011796 0)
(1.00494 -0.000949265 0)
(1.00776 -0.0047587 0)
(1.00924 -0.00370881 0)
(1.01417 -0.00447753 0)
(1.02115 0.0161014 1.20854e-18)
(1.01799 0.0157235 -1.54879e-18)
(1.02159 0.0180499 -1.21708e-18)
(1.01946 0.0167208 1.52335e-18)
(0.765686 1.31451 0)
(0.701557 1.36652 2.17842e-19)
(0.875512 1.21143 7.25562e-20)
(0.918503 1.16282 -9.64969e-20)
(1.15745 2.60857 3.1256e-19)
(0.802411 0.112791 6.13118e-19)
(1.1596 0.104492 0)
(1.20541 0.188042 -5.15758e-19)
(1.18929 0.150607 -2.17977e-20)
(1.00416 0.147842 0)
(0.135598 2.96062 5.71302e-19)
(0.112731 2.86645 -1.23239e-18)
(0.0228538 2.3734 8.30687e-19)
(0.0907558 -0.0325108 -3.71328e-19)
(0.340268 3.42013 -1.98619e-19)
(0.194645 3.31266 0)
(0.237596 3.35463 2.58668e-19)
(0.245281 3.03389 -1.87742e-18)
(0.339699 3.1931 0)
(0.00704326 3.1207 4.89035e-20)
(0.0178112 3.12944 -5.72588e-19)
(0.0156884 3.12554 8.42763e-19)
(0.0354711 3.13954 0)
(0.033596 3.15068 0)
(1.21616 2.6076 0)
(0.542379 0.83358 -5.45476e-19)
(1.04116 0.986624 1.4805e-20)
(0.976978 1.06528 0)
(0.830616 0.968822 -1.21731e-19)
(1.06642 0.878875 2.85993e-20)
(0.362869 0.386524 -9.55962e-19)
(0.683152 0.314927 -2.12354e-20)
(0.642818 0.226835 4.38673e-19)
(0.584061 0.370792 3.24288e-20)
(0.497166 0.337022 -1.30584e-18)
(0.655429 0.330448 0)
(0.703405 0.417816 7.45337e-19)
(0.711025 0.419147 0)
(0.619268 0.358657 0)
(0.581614 0.281775 0)
(0.805443 0.613822 4.41379e-19)
(1.22782 0.279898 -5.4182e-19)
(1.22571 0.414709 0)
(1.23482 0.355805 0)
(0.733173 0.186072 6.50637e-19)
(0.852702 0.535417 -4.05285e-19)
(0.748407 0.506702 7.18452e-19)
(0.951977 0.425114 -7.90089e-19)
(1.01965 0.0147493 8.30711e-19)
(1.01781 0.014224 -8.35547e-19)
(1.01594 0.0155293 0)
(1.03603 -0.00593321 0)
(1.02965 -0.00858604 -7.83059e-19)
(1.02764 -0.0121211 7.75312e-19)
(1.02501 0.00995009 0)
(1.02364 0.0135553 0)
(1.01142 0.00407071 0)
(1.01427 0.0090169 0)
(1.01513 0.00396938 0)
(1.01424 0.00277134 0)
(0.0602319 1.34 0)
(0.0622125 1.29713 0)
(0.144094 1.36718 -1.94987e-20)
(0.269835 1.46806 7.4264e-20)
(0.163575 1.4399 1.53846e-19)
(0.194837 1.44692 -2.52416e-19)
(0.165087 1.39043 0)
(0.130433 1.59392 -1.00606e-19)
(0.115276 1.56649 0)
(0.348058 2.01824 -1.14087e-19)
(0.344971 2.34982 6.47348e-19)
(0.186345 1.45106 8.77324e-20)
(0.262063 1.38136 1.25155e-20)
(0.196719 1.37065 -1.01338e-20)
(0.272073 1.32313 -1.26245e-19)
(0.239786 1.57696 0)
(0.26055 1.61649 1.30837e-19)
(0.0340756 2.2646 -4.29388e-20)
(0.0442474 2.67056 0)
(0.0669754 2.40178 1.65259e-19)
(0.0625809 2.4227 0)
(0.071078 2.67183 -2.44868e-19)
(0.0513091 2.70069 0)
(0.0310356 1.40723 -2.65099e-21)
(0.0379569 1.46048 0)
(0.0310374 1.37828 0)
(0.0264719 1.3794 2.99097e-21)
(0.00191059 2.6564 -1.81326e-20)
(0.0307862 2.69986 2.18832e-19)
(0.0128038 2.72599 1.52841e-21)
(0.00645515 1.82831 1.92558e-20)
(-0.000845447 1.67502 8.04471e-21)
(0.0196665 1.29386 0)
(0.024733 1.22462 0)
(0.0489593 1.57168 1.52005e-20)
(0.0298935 1.44488 1.01155e-20)
(0.0390401 1.51006 -1.24274e-20)
(0.0409241 1.59649 0)
(-0.0304263 2.27916 4.93005e-20)
(-0.0309353 2.56173 -1.92118e-20)
(-0.0189027 2.45748 -1.83987e-21)
(-0.00247261 1.84608 -2.3334e-20)
(-0.0262429 2.50824 -7.17985e-21)
(-0.0213067 2.44943 3.89016e-20)
(1.01955 0.0208165 -8.2573e-19)
(1.0157 0.0264382 8.29459e-19)
(1.01485 0.0162918 0)
(1.01189 0.0692673 1.16522e-18)
(0.990502 0.0581116 -1.30787e-18)
(0.949997 0.0426019 1.46443e-18)
(1.01382 0.106271 -1.554e-19)
(1.0423 -0.00598831 0)
(1.05041 -0.00180728 7.48355e-19)
(1.03862 -0.0100442 -7.49829e-19)
(1.06956 0.0411926 -4.46196e-20)
(1.06338 0.0224237 3.83856e-19)
(1.06247 0.0540075 0)
(1.05257 0.0482255 -1.38091e-19)
(1.03255 0.0410928 0)
(1.02601 0.0371702 0)
(1.02783 0.0128997 0)
(1.02423 0.0157049 0)
(1.03989 0.0311362 2.84192e-19)
(1.0392 0.0260849 -6.2744e-19)
(1.05043 0.0324937 -3.014e-19)
(1.04859 0.0322958 -3.31708e-19)
(1.07013 0.0629485 6.49538e-19)
(1.09461 0.0503707 0)
(1.10263 0.094082 0)
(-0.024647 2.28593 3.06532e-20)
(-0.0174039 2.03196 -2.09899e-21)
(-0.0186056 2.03362 0)
(-0.0298921 2.45465 -3.05338e-20)
(-0.0259214 2.41136 3.34726e-21)
(-0.0326682 2.48421 1.47858e-21)
(-0.0225039 2.6308 1.79059e-20)
(-0.025348 2.57333 -1.7911e-21)
(-0.0221125 2.52457 5.66896e-21)
(-0.0193634 2.62522 -5.0148e-21)
(-0.0238714 2.62646 7.39153e-21)
(-0.00820261 1.4834 -5.29163e-22)
(0.00614682 1.61961 -2.52186e-21)
(0.36508 1.42911 -9.4407e-20)
(0.364273 1.36877 5.74253e-20)
(0.646662 1.41496 -2.10645e-19)
(0.515335 1.48104 -1.28167e-19)
(0.569649 1.45044 0)
(0.592451 2.42321 2.15256e-19)
(0.66037 2.41624 3.43308e-19)
(0.410237 2.51548 8.43852e-20)
(0.403047 2.54345 -6.47088e-19)
(0.511178 2.48857 6.32635e-19)
(0.551793 2.46089 0)
(0.488547 2.51576 -5.73105e-19)
(0.248285 2.59028 1.19736e-18)
(0.353423 2.56377 -8.15794e-20)
(0.284145 2.65182 -1.64301e-18)
(0.944354 2.38071 7.3836e-19)
(0.836525 2.38308 0)
(1.011 0.000432236 2.70917e-20)
(1.01525 -0.00549226 -2.19936e-20)
(1.01764 -0.00362964 -4.01806e-19)
(1.01493 -0.000955954 4.03663e-19)
(1.01235 0.00105403 0)
(0.6347 1.28334 0)
(0.655241 1.18122 0)
(0.761764 1.0914 0)
(0.648151 1.14424 0)
(1.18683 2.62304 5.84338e-20)
(1.075 2.36827 0)
(0.839062 2.1878 3.95182e-21)
(0.825569 2.44838 0)
(0.922741 2.53969 -4.37984e-19)
(0.95815 2.49556 2.91529e-19)
(0.815263 0.16819 0)
(0.777825 0.139552 1.67163e-19)
(0.922833 0.142212 9.72903e-19)
(0.838719 0.144672 -3.63435e-19)
(0.808373 0.0828946 -1.12059e-18)
(1.07735 0.230058 -9.42231e-19)
(0.992981 0.287777 -1.56904e-20)
(0.92568 0.287871 9.00876e-19)
(1.0017 0.218966 7.5339e-19)
(0.952963 0.185744 -1.29435e-18)
(0.917358 0.18772 1.61803e-19)
(0.95325 0.25085 -3.4628e-19)
(0.9313 0.213573 0)
(0.991991 0.18152 6.38964e-19)
(1.04278 0.183406 0)
(1.03995 0.209322 0)
(1.10596 0.116659 3.02744e-19)
(1.06635 0.172429 -1.41829e-20)
(1.07211 0.231173 -1.65546e-19)
(1.10417 0.199481 0)
(1.02269 0.0448574 6.40807e-19)
(1.04088 0.0573962 7.99606e-19)
(1.03412 0.0436978 -6.35612e-19)
(1.04305 0.0639657 -5.35773e-19)
(1.01931 0.0718342 -8.19567e-19)
(0.987776 0.154663 0)
(0.998855 0.102587 0)
(0.96672 0.0650209 -5.21641e-19)
(0.915564 0.0880972 2.04874e-19)
(1.03821 0.102116 7.40865e-19)
(1.0677 0.119811 -8.74029e-19)
(1.07211 0.152022 7.80626e-19)
(1.02927 0.140766 0)
(1.07378 0.106675 0)
(1.05465 0.088971 -3.56839e-19)
(1.0446 0.0936923 -6.06501e-19)
(0.580516 1.07617 1.45538e-19)
(0.613115 1.40907 -4.71738e-20)
(1.15747 2.74014 -2.35706e-19)
(1.22408 3.08104 3.18816e-21)
(1.24952 2.72214 -1.51196e-19)
(1.27958 2.70587 -2.14869e-20)
(1.2076 2.34602 -1.01841e-20)
(1.21133 2.9851 -9.99547e-20)
(1.23065 2.95038 2.45066e-19)
(1.21502 3.2345 -1.40952e-19)
(1.37576 2.96636 1.94928e-19)
(1.36615 2.88448 0)
(0.548228 0.841585 -5.10682e-20)
(0.134799 1.25155 5.85759e-19)
(0.534583 0.43936 6.17632e-19)
(0.37321 0.190321 6.81233e-19)
(0.523841 0.371068 7.37636e-19)
(0.54682 0.470041 -1.18579e-18)
(0.548247 0.470992 9.68221e-19)
(0.494783 0.389212 -3.72955e-19)
(0.413183 0.32099 8.45182e-19)
(0.737841 0.248307 -3.72475e-19)
(0.70194 0.276325 0)
(0.679368 0.198527 8.99097e-21)
(0.732224 0.50703 3.92226e-19)
(0.70446 0.477215 -1.4301e-18)
(0.616089 0.468024 1.49598e-20)
(0.625513 0.455803 0)
(0.679353 0.729541 4.12989e-19)
(0.833252 0.773213 4.23077e-19)
(0.756429 0.85534 -4.94215e-19)
(0.876933 0.808428 -1.68865e-19)
(0.906602 0.851755 -4.25922e-20)
(0.914348 0.852194 4.36176e-20)
(0.849238 0.644764 -7.32585e-19)
(0.928786 0.702747 1.56894e-19)
(0.983792 0.716529 0)
(0.975176 0.692165 -2.15141e-19)
(1.02239 0.324601 2.28104e-19)
(1.14248 0.294442 3.15127e-19)
(1.06438 0.26465 3.85403e-19)
(1.01092 0.356969 -4.58294e-19)
(1.05777 0.421009 0)
(1.11085 0.406161 0)
(0.915878 0.356697 6.32542e-21)
(0.84079 0.288815 0)
(0.877306 0.284396 4.23799e-19)
(0.907382 0.293842 -4.54651e-21)
(0.945459 0.427623 2.20339e-18)
(0.903529 0.487102 5.70265e-19)
(0.906756 0.450783 -6.04809e-19)
(0.823572 0.434367 6.47877e-19)
(0.806765 0.428853 3.88516e-19)
(0.776791 0.412119 -3.81818e-19)
(1.0272 -0.000520733 6.69407e-19)
(1.02 -0.000134105 0)
(1.01849 0.000793042 4.36246e-19)
(1.02155 -0.00180231 -9.88294e-19)
(1.0223 0.00424594 4.80167e-19)
(1.02041 0.0111374 -1.00555e-18)
(1.02138 0.0105355 0)
(1.02067 0.0108196 -2.09501e-19)
(1.01599 0.00764815 5.25554e-19)
(1.01672 0.010412 -2.62218e-19)
(1.01743 0.00975897 1.93131e-19)
(0.0287992 1.31444 0)
(0.033695 1.35152 0)
(0.0427998 1.31785 0)
(0.0407577 1.27486 0)
(0.0704568 1.37847 1.48678e-20)
(0.0769497 1.35066 2.60387e-21)
(0.111716 1.50921 -2.97568e-20)
(0.0942691 1.36016 9.17111e-21)
(0.0341954 1.44988 -3.3784e-20)
(0.0378993 1.44278 2.63902e-20)
(0.0615875 1.36248 -7.93894e-21)
(0.0540884 1.3642 1.75451e-21)
(0.0458408 1.33986 7.74091e-23)
(0.038207 1.3618 -3.02024e-21)
(0.107946 2.37212 -1.82841e-19)
(0.0969862 2.41928 0)
(0.171494 2.04779 1.19787e-19)
(0.110209 1.71043 5.31431e-20)
(0.230002 2.0443 -9.82355e-20)
(0.205063 2.43704 0)
(0.265303 2.38849 -6.29973e-19)
(0.303131 2.38653 4.46918e-19)
(0.230587 2.0042 -2.73154e-19)
(0.154419 2.16502 1.80033e-19)
(0.144498 2.27664 0)
(0.0204361 1.87277 -4.16583e-20)
(-0.000219174 2.39863 -9.26001e-20)
(0.00611726 2.15114 0)
(0.0133183 2.45988 -1.40026e-20)
(0.0287887 2.30387 3.26065e-20)
(0.0248161 1.39137 -1.15565e-21)
(0.0207958 1.37866 2.36597e-20)
(0.0198831 1.38178 -1.18049e-20)
(0.0254044 1.38043 -2.02682e-21)
(0.0301785 1.41145 0)
(0.01724 1.36199 0)
(0.00247227 1.28458 -1.16018e-20)
(0.0131747 1.35243 2.36383e-21)
(0.0135807 1.35368 0)
(0.0165355 1.28175 -9.01856e-21)
(0.0180756 1.21381 1.90231e-20)
(1.04036 0.0112254 0)
(1.0464 0.00750366 -7.02061e-20)
(1.03855 0.0208119 -5.05914e-19)
(1.04802 0.0197111 0)
(1.05177 0.0195328 0)
(1.03629 0.0112537 -6.65762e-21)
(1.03093 0.0111237 8.12109e-19)
(1.0318 0.016075 9.84984e-19)
(1.02583 0.0200164 0)
(1.02304 0.0204104 0)
(1.03516 0.0244866 5.04699e-19)
(1.02618 0.0258746 0)
(1.02441 0.0259673 0)
(-0.0202237 2.02518 0)
(0.00640343 1.65172 -5.38053e-21)
(-0.00691813 1.76015 -2.09052e-20)
(0.00449258 1.36323 0)
(-0.0119396 1.54816 8.24292e-22)
(0.00543657 1.44985 6.95779e-22)
(0.00246488 1.37157 0)
(0.389521 1.66783 0)
(0.366296 1.29735 -1.0624e-19)
(0.301079 1.3416 0)
(0.419866 1.29567 5.21038e-20)
(0.466322 1.45653 0)
(0.447031 1.40133 3.9608e-21)
(1.03582 2.68729 -1.57307e-20)
(0.965641 2.41125 -9.28146e-19)
(0.915929 2.19247 1.05837e-18)
(0.850048 2.37549 2.46221e-19)
(0.847518 2.49797 0)
(0.917414 2.49432 0)
(0.927689 2.37406 0)
(0.906563 2.36059 -9.56728e-19)
(0.688851 2.46581 -4.1032e-19)
(0.801186 2.45597 -1.0076e-19)
(0.811783 2.42983 7.67918e-20)
(0.694748 2.39128 0)
(0.799646 2.3873 0)
(0.758273 2.39952 -3.73522e-19)
(0.769155 2.48754 0)
(0.615658 1.0991 0)
(0.485577 0.92684 -5.16082e-19)
(0.555215 0.961319 -3.28125e-20)
(0.522115 1.0556 0)
(0.523236 1.00515 7.74903e-19)
(0.779286 0.880205 -1.394e-19)
(0.786906 1.01699 0)
(0.761451 0.977756 2.03479e-19)
(0.647556 1.03529 0)
(0.652363 0.943031 0)
(1.16522 2.76209 -2.40832e-19)
(1.143 2.82553 -1.03653e-19)
(0.932628 2.34553 1.10603e-19)
(0.90024 2.32359 -8.66781e-20)
(1.13011 2.73533 0)
(1.0834 2.70546 1.04346e-19)
(1.09004 2.48777 -3.25439e-19)
(0.983962 2.23621 -3.06086e-20)
(0.496637 1.35288 0)
(0.510504 1.07538 -1.28354e-19)
(0.564785 1.16682 0)
(0.858252 0.225783 0)
(0.785892 0.178536 0)
(0.726454 0.140654 0)
(0.85444 0.230824 -6.6706e-19)
(0.757455 0.214956 3.90929e-19)
(0.931066 0.0747305 -4.23147e-19)
(0.946533 0.120836 0)
(0.926001 0.134317 1.81365e-19)
(0.865373 0.109667 7.27982e-19)
(0.835382 0.0672436 -4.5549e-19)
(1.16179 3.35979 -7.15671e-19)
(1.20978 3.27909 0)
(1.15993 3.38789 -1.47651e-18)
(0.647543 3.54866 1.25418e-18)
(0.872195 3.11605 6.37349e-20)
(0.519083 0.847269 6.15712e-19)
(0.433982 0.843078 0)
(0.335649 0.47617 -1.55905e-19)
(0.455872 0.6768 8.8491e-19)
(0.537677 0.444084 -2.13605e-19)
(0.51019 0.502496 2.44589e-19)
(0.66376 0.526642 5.28944e-19)
(0.694327 0.550437 0)
(0.64778 0.606771 0)
(0.60471 0.54723 0)
(0.991559 0.600791 1.05408e-19)
(0.90757 0.536347 -5.54844e-19)
(0.933441 0.571108 4.23431e-19)
(0.967901 0.506452 -4.28923e-19)
(1.07195 0.478878 0)
(1.07943 0.569183 -1.07857e-19)
(0.846814 0.386786 -8.85977e-19)
(0.849811 0.374894 -1.09501e-18)
(0.795651 0.378166 6.90875e-19)
(0.792753 0.348751 -7.06376e-19)
(0.84244 0.308627 -5.52036e-19)
(0.793942 0.306527 6.77568e-19)
(1.02669 0.00568713 -5.13403e-19)
(1.02641 0.00591518 1.04671e-18)
(1.02933 -0.000121157 6.49093e-19)
(1.03337 0.000756588 -7.81852e-19)
(1.03356 0.0085904 0)
(1.03007 0.00917918 -1.27115e-18)
(0.0651166 1.6443 2.89969e-20)
(0.0456871 1.57439 0)
(0.0877586 1.69629 1.79707e-19)
(0.097454 1.67727 -1.59771e-19)
(0.0890443 1.52706 5.58253e-20)
(0.0867924 1.50897 0)
(0.0152984 1.67663 0)
(0.00305681 1.47868 -2.54133e-21)
(0.00345357 1.42152 2.28804e-21)
(-0.00447373 1.54067 4.70491e-21)
(0.00292495 1.88299 -5.55087e-21)
(-0.0117454 1.93627 5.8127e-21)
(0.495741 1.37128 -2.96231e-19)
(0.489537 1.37451 3.24744e-19)
(0.444494 1.29267 -5.2113e-20)
(0.433665 1.29183 9.08118e-21)
(0.626419 1.29902 0)
(0.543995 1.38702 8.00994e-20)
(0.559458 1.39539 -7.7969e-20)
(0.455248 1.27858 5.06667e-20)
(0.509681 1.23362 0)
(0.562176 1.20028 0)
(0.655233 2.42449 6.0292e-19)
(0.669626 2.46133 1.29912e-18)
(0.715716 2.47333 -8.94973e-19)
(0.6148 2.44837 -2.09877e-19)
(0.560018 2.541 2.92969e-19)
(0.509676 2.51437 -7.80865e-19)
(0.976391 2.38068 -5.92446e-19)
(1.01255 2.39429 0)
(0.922479 2.17064 -6.861e-19)
(1.05356 2.68473 0)
(1.05577 2.6715 0)
(0.612095 2.27303 -1.23211e-19)
(1.04275 3.16268 1.29422e-19)
(0.9137 3.03266 -3.28709e-20)
(0.280103 0.905405 0)
(0.318983 0.763865 -3.2507e-19)
(0.480407 0.720974 -3.27945e-19)
(0.389523 2.01958 0)
(0.46697 2.78474 -4.43676e-20)
(0.423174 2.54846 0)
(0.695188 0.677152 -8.75851e-19)
(0.77778 0.678389 1.19428e-18)
(0.798354 0.621151 -1.1826e-18)
(0.67572 0.639969 -1.13295e-19)
(0.731087 0.592899 -4.69272e-19)
(1.00522 2.76558 -9.8413e-20)
(1.04268 2.82282 -1.74152e-19)
(0.640487 2.14876 6.78612e-19)
(0.597209 1.71447 -4.82975e-19)
(0.70052 1.90742 -4.16063e-19)
(0.990881 2.449 -1.1491e-19)
(0.995776 2.44257 3.07726e-19)
(0.661428 1.84609 2.87892e-20)
(0.452927 1.33475 1.49896e-19)
)
;

boundaryField
{
    wall-4
    {
        type            noSlip;
    }
    velocity-inlet-5
    {
        type            fixedValue;
        value           uniform (1 0 0);
    }
    velocity-inlet-6
    {
        type            fixedValue;
        value           uniform (0 3 0);
    }
    pressure-outlet-7
    {
        type            zeroGradient;
    }
    wall-8
    {
        type            noSlip;
    }
    frontAndBackPlanes
    {
        type            empty;
    }
}


// ************************************************************************* //
