/*--------------------------------*- C++ -*----------------------------------*\
  =========                 |
  \\      /  F ield         | OpenFOAM: The Open Source CFD Toolbox
   \\    /   O peration     | Website:  https://openfoam.org
    \\  /    A nd           | Version:  13
     \\/     M anipulation  |
\*---------------------------------------------------------------------------*/
FoamFile
{
    format      ascii;
    class       volScalarField;
    location    "4.58";
    object      T;
}
// * * * * * * * * * * * * * * * * * * * * * * * * * * * * * * * * * * * * * //

dimensions      [0 0 0 1 0 0 0];

internalField   nonuniform List<scalar> 
1000
(
4.75417e-49
5.84004e-49
8.25535e-49
1.25408e-48
1.96532e-48
3.11748e-48
4.96591e-48
7.91861e-48
1.26246e-47
2.01138e-47
3.20184e-47
5.09216e-47
8.09076e-47
1.28427e-46
2.03658e-46
3.22644e-46
5.10648e-46
8.07413e-46
1.2754e-45
2.01267e-45
3.17303e-45
4.99748e-45
7.86327e-45
1.23603e-44
1.94103e-44
3.04516e-44
4.77267e-44
7.47286e-44
1.16892e-43
1.82667e-43
2.85173e-43
4.44763e-43
6.92985e-43
1.07868e-42
1.67738e-42
2.60583e-42
4.0442e-42
6.27035e-42
9.71233e-42
1.50289e-41
2.32329e-41
3.58799e-41
5.53567e-41
8.5322e-41
1.31378e-40
2.02095e-40
3.10571e-40
4.768e-40
7.31277e-40
1.12047e-39
1.71508e-39
2.62266e-39
4.00653e-39
6.11456e-39
9.32249e-39
1.41993e-38
2.16059e-38
3.28433e-38
4.98758e-38
7.56662e-38
1.14679e-37
1.73633e-37
2.62633e-37
3.96857e-37
5.99084e-37
9.03461e-37
1.36113e-36
2.04859e-36
3.0802e-36
4.62668e-36
6.94268e-36
1.04076e-35
1.55863e-35
2.33185e-35
3.48518e-35
5.20373e-35
7.76196e-35
1.15663e-34
1.72179e-34
2.56056e-34
3.80411e-34
5.64595e-34
8.37117e-34
1.23994e-33
1.83476e-33
2.7122e-33
4.00525e-33
5.90883e-33
8.70837e-33
1.28214e-32
1.88582e-32
2.77094e-32
4.06742e-32
5.96448e-32
8.73755e-32
1.2787e-31
1.86945e-31
2.73035e-31
3.98371e-31
5.80655e-31
8.45495e-31
1.22989e-30
1.78724e-30
2.59455e-30
3.76273e-30
5.45136e-30
7.88984e-30
1.14076e-29
1.6477e-29
2.37752e-29
3.42714e-29
4.93515e-29
7.09951e-29
1.02027e-28
1.46476e-28
2.10075e-28
3.00984e-28
4.30796e-28
6.15971e-28
8.79848e-28
1.25549e-27
1.7897e-27
2.54862e-27
3.62568e-27
5.15267e-27
7.31533e-27
1.03751e-26
1.46998e-26
2.0806e-26
2.94186e-26
4.15542e-26
5.86361e-26
8.26557e-26
1.16396e-25
1.63742e-25
2.30113e-25
3.23056e-25
4.53076e-25
6.34778e-25
8.88443e-25
1.24221e-24
1.73506e-24
2.42098e-24
3.37461e-24
4.69908e-24
6.53669e-24
9.08362e-24
1.261e-23
1.74875e-23
2.42267e-23
3.35288e-23
4.63549e-23
6.40219e-23
8.83317e-23
1.21747e-22
1.67632e-22
2.30573e-22
3.16822e-22
4.34886e-22
5.96335e-22
8.16882e-22
1.11785e-21
1.52813e-21
2.08684e-21
2.84691e-21
3.87982e-21
5.28205e-21
7.18367e-21
9.75987e-21
1.32463e-20
1.79596e-20
2.4325e-20
3.29126e-20
4.44861e-20
6.00673e-20
8.10222e-20
1.09175e-19
1.46958e-19
1.97613e-19
2.65455e-19
3.56219e-19
4.77525e-19
6.39478e-19
8.55475e-19
1.14325e-18
1.52624e-18
2.03545e-18
2.71173e-18
3.60897e-18
4.79813e-18
6.37253e-18
8.45477e-18
1.12058e-17
1.48366e-17
1.96235e-17
2.59279e-17
3.42224e-17
4.51235e-17
5.94355e-17
7.82057e-17
1.02797e-16
1.34981e-16
1.77058e-16
2.32011e-16
3.03703e-16
3.97137e-16
5.18777e-16
6.76971e-16
8.82489e-16
1.14921e-15
1.49498e-15
1.94277e-15
2.52206e-15
3.2707e-15
4.23714e-15
5.48346e-15
7.089e-15
9.15512e-15
1.18111e-14
1.52218e-14
1.95971e-14
2.52037e-14
3.23806e-14
4.15579e-14
5.32807e-14
6.82394e-14
8.73068e-14
1.11586e-13
1.42468e-13
1.81708e-13
2.31515e-13
2.94667e-13
3.74655e-13
4.75859e-13
6.03773e-13
7.65272e-13
9.6896e-13
1.22558e-12
1.54856e-12
1.95461e-12
2.46456e-12
3.10431e-12
3.90606e-12
4.90976e-12
6.16493e-12
7.73292e-12
9.68959e-12
1.21287e-11
1.5166e-11
1.89441e-11
2.36387e-11
2.9466e-11
3.66914e-11
4.5641e-11
5.67143e-11
7.04007e-11
8.72988e-11
1.0814e-10
1.33817e-10
1.65418e-10
2.04268e-10
2.5198e-10
3.10511e-10
3.82239e-10
4.70046e-10
5.7742e-10
7.08582e-10
8.68632e-10
1.06372e-09
1.30127e-09
1.5902e-09
1.94126e-09
2.36735e-09
2.88395e-09
3.50962e-09
4.26658e-09
5.18138e-09
6.28577e-09
7.6176e-09
9.22199e-09
1.11527e-08
1.34734e-08
1.62602e-08
1.96029e-08
2.36082e-08
2.84021e-08
3.41339e-08
4.09798e-08
4.91473e-08
5.88813e-08
7.04696e-08
8.42508e-08
1.00622e-07
1.2005e-07
1.43079e-07
1.70349e-07
2.02604e-07
2.40717e-07
2.85702e-07
3.3874e-07
4.01207e-07
4.74699e-07
5.6107e-07
6.62466e-07
7.81374e-07
9.20666e-07
1.08366e-06
1.27419e-06
1.49667e-06
1.75616e-06
2.0585e-06
2.4104e-06
2.81952e-06
3.29466e-06
3.84588e-06
4.48467e-06
5.22415e-06
6.07926e-06
7.06701e-06
8.20674e-06
9.52043e-06
1.1033e-05
1.27726e-05
1.47713e-05
1.70651e-05
1.96947e-05
2.2706e-05
2.61508e-05
3.00871e-05
3.45803e-05
3.97035e-05
4.55389e-05
5.21781e-05
5.97237e-05
6.82902e-05
7.80053e-05
8.90109e-05
0.000101465
0.000115543
0.000131439
0.000149369
0.000169572
0.000192309
0.000217873
0.000246582
0.000278789
0.000314881
0.000355283
0.00040046
0.000450923
0.000507227
0.000569982
0.000639851
0.000717554
0.000803878
0.000899675
0.00100587
0.00112346
0.00125353
0.00139724
0.00155586
0.00173075
0.00192335
0.00213524
0.00236809
0.0026237
0.00290398
0.003211
0.00354692
0.00391407
0.00431492
0.00475209
0.00522834
0.00574662
0.00631
0.00692176
0.00758532
0.00830428
0.00908243
0.00992372
0.0108323
0.0118124
0.0128687
0.0140056
0.0152282
0.0165413
0.0179502
0.0194602
0.0210768
0.0228057
0.0246525
0.0266233
0.0287241
0.0309609
0.03334
0.0358677
0.0385504
0.0413944
0.0444061
0.047592
0.0509585
0.054512
0.0582586
0.0622047
0.0663563
0.0707194
0.0752996
0.0801026
0.0851338
0.0903981
0.0959005
0.101645
0.107637
0.113879
0.120374
0.127127
0.134138
0.141411
0.148946
0.156745
0.164808
0.173135
0.181725
0.190577
0.199688
0.209056
0.218679
0.22855
0.238668
0.249025
0.259616
0.270434
0.281473
0.292724
0.304178
0.315828
0.327662
0.33967
0.351842
0.364167
0.376631
0.389224
0.401932
0.414741
0.427639
0.440612
0.453644
0.466722
0.479832
0.492957
0.506084
0.519198
0.532283
0.545323
0.558306
0.571215
0.584035
0.596753
0.609353
0.621822
0.634146
0.646312
0.658305
0.670114
0.681726
0.69313
0.704313
0.715264
0.725973
0.73643
0.746626
0.75655
0.766195
0.775552
0.784614
0.793373
0.801823
0.809958
0.817771
0.825258
0.832414
0.839234
0.845714
0.851851
0.857641
0.86308
0.868168
0.8729
0.877275
0.881292
0.884947
0.888241
0.891172
0.893738
0.89594
0.897775
0.899244
0.900346
0.901081
0.901449
0.901449
0.901081
0.900346
0.899244
0.897775
0.89594
0.893738
0.891172
0.888241
0.884947
0.881292
0.877275
0.8729
0.868168
0.86308
0.857641
0.851851
0.845714
0.839234
0.832414
0.825258
0.817771
0.809958
0.801823
0.793373
0.784614
0.775552
0.766195
0.75655
0.746626
0.73643
0.725973
0.715264
0.704313
0.69313
0.681726
0.670114
0.658305
0.646312
0.634146
0.621822
0.609353
0.596753
0.584035
0.571215
0.558306
0.545323
0.532283
0.519198
0.506084
0.492957
0.479832
0.466722
0.453644
0.440612
0.427639
0.414741
0.401932
0.389224
0.376631
0.364167
0.351842
0.33967
0.327662
0.315828
0.304178
0.292724
0.281473
0.270434
0.259616
0.249025
0.238668
0.22855
0.218679
0.209056
0.199688
0.190577
0.181725
0.173135
0.164808
0.156745
0.148946
0.141411
0.134138
0.127127
0.120374
0.113879
0.107637
0.101645
0.0959005
0.0903981
0.0851338
0.0801026
0.0752996
0.0707194
0.0663563
0.0622047
0.0582586
0.054512
0.0509585
0.047592
0.0444061
0.0413944
0.0385504
0.0358677
0.03334
0.0309609
0.0287241
0.0266233
0.0246525
0.0228057
0.0210768
0.0194602
0.0179502
0.0165413
0.0152282
0.0140056
0.0128687
0.0118124
0.0108323
0.00992372
0.00908243
0.00830428
0.00758532
0.00692176
0.00631
0.00574662
0.00522834
0.00475209
0.00431492
0.00391407
0.00354692
0.003211
0.00290398
0.0026237
0.00236809
0.00213524
0.00192335
0.00173075
0.00155586
0.00139724
0.00125353
0.00112346
0.00100587
0.000899675
0.000803878
0.000717554
0.000639851
0.000569982
0.000507227
0.000450923
0.00040046
0.000355283
0.000314881
0.000278789
0.000246582
0.000217873
0.000192309
0.000169572
0.000149369
0.000131439
0.000115543
0.000101465
8.90109e-05
7.80053e-05
6.82902e-05
5.97237e-05
5.21781e-05
4.55389e-05
3.97035e-05
3.45803e-05
3.00871e-05
2.61508e-05
2.2706e-05
1.96947e-05
1.70651e-05
1.47713e-05
1.27726e-05
1.1033e-05
9.52043e-06
8.20674e-06
7.06701e-06
6.07926e-06
5.22415e-06
4.48467e-06
3.84588e-06
3.29466e-06
2.81952e-06
2.4104e-06
2.0585e-06
1.75616e-06
1.49667e-06
1.27419e-06
1.08366e-06
9.20666e-07
7.81374e-07
6.62466e-07
5.6107e-07
4.74699e-07
4.01207e-07
3.3874e-07
2.85702e-07
2.40717e-07
2.02604e-07
1.70349e-07
1.43079e-07
1.2005e-07
1.00622e-07
8.42508e-08
7.04696e-08
5.88813e-08
4.91473e-08
4.09798e-08
3.41339e-08
2.84021e-08
2.36082e-08
1.96029e-08
1.62602e-08
1.34734e-08
1.11527e-08
9.22199e-09
7.6176e-09
6.28577e-09
5.18138e-09
4.26658e-09
3.50962e-09
2.88395e-09
2.36735e-09
1.94126e-09
1.5902e-09
1.30127e-09
1.06372e-09
8.68632e-10
7.08582e-10
5.7742e-10
4.70046e-10
3.82239e-10
3.10511e-10
2.5198e-10
2.04268e-10
1.65418e-10
1.33817e-10
1.0814e-10
8.72988e-11
7.04007e-11
5.67143e-11
4.5641e-11
3.66914e-11
2.9466e-11
2.36387e-11
1.89441e-11
1.5166e-11
1.21287e-11
9.68959e-12
7.73292e-12
6.16493e-12
4.90976e-12
3.90606e-12
3.10431e-12
2.46456e-12
1.95461e-12
1.54856e-12
1.22558e-12
9.6896e-13
7.65272e-13
6.03773e-13
4.75859e-13
3.74655e-13
2.94667e-13
2.31515e-13
1.81708e-13
1.42468e-13
1.11586e-13
8.73068e-14
6.82394e-14
5.32807e-14
4.15579e-14
3.23806e-14
2.52037e-14
1.95971e-14
1.52218e-14
1.18111e-14
9.15512e-15
7.089e-15
5.48346e-15
4.23714e-15
3.2707e-15
2.52206e-15
1.94277e-15
1.49498e-15
1.14921e-15
8.82489e-16
6.76971e-16
5.18777e-16
3.97137e-16
3.03703e-16
2.32011e-16
1.77058e-16
1.34981e-16
1.02797e-16
7.82057e-17
5.94355e-17
4.51235e-17
3.42224e-17
2.59279e-17
1.96235e-17
1.48366e-17
1.12058e-17
8.45477e-18
6.37253e-18
4.79813e-18
3.60897e-18
2.71173e-18
2.03545e-18
1.52624e-18
1.14325e-18
8.55475e-19
6.39478e-19
4.77525e-19
3.56219e-19
2.65455e-19
1.97613e-19
1.46958e-19
1.09175e-19
8.10222e-20
6.00673e-20
4.44861e-20
3.29126e-20
2.4325e-20
1.79596e-20
1.32463e-20
9.75987e-21
7.18367e-21
5.28205e-21
3.87982e-21
2.84691e-21
2.08684e-21
1.52813e-21
1.11785e-21
8.16882e-22
5.96335e-22
4.34886e-22
3.16822e-22
2.30573e-22
1.67632e-22
1.21747e-22
8.83317e-23
6.40219e-23
4.63549e-23
3.35288e-23
2.42267e-23
1.74875e-23
1.261e-23
9.08362e-24
6.53669e-24
4.69908e-24
3.37461e-24
2.42098e-24
1.73506e-24
1.24221e-24
8.88443e-25
6.34778e-25
4.53076e-25
3.23056e-25
2.30113e-25
1.63742e-25
1.16396e-25
8.26557e-26
5.86361e-26
4.15542e-26
2.94186e-26
2.0806e-26
1.46998e-26
1.03751e-26
7.31533e-27
5.15267e-27
3.62568e-27
2.54862e-27
1.7897e-27
1.25549e-27
8.79848e-28
6.15971e-28
4.30796e-28
3.00984e-28
2.10075e-28
1.46476e-28
1.02027e-28
7.09951e-29
4.93515e-29
3.42714e-29
2.37752e-29
1.6477e-29
1.14076e-29
7.88984e-30
5.45136e-30
3.76273e-30
2.59455e-30
1.78724e-30
1.22989e-30
8.45495e-31
5.80655e-31
3.98371e-31
2.73035e-31
1.86945e-31
1.2787e-31
8.73755e-32
5.96448e-32
4.06742e-32
2.77094e-32
1.88582e-32
1.28214e-32
8.70837e-33
5.90883e-33
4.00525e-33
2.7122e-33
1.83476e-33
1.23994e-33
8.37117e-34
5.64595e-34
3.80411e-34
2.56056e-34
1.72179e-34
1.15663e-34
7.76196e-35
5.20373e-35
3.48518e-35
2.33185e-35
1.55863e-35
1.04076e-35
6.94268e-36
4.62668e-36
3.0802e-36
2.04859e-36
1.36113e-36
9.03461e-37
5.99084e-37
3.96857e-37
2.62633e-37
1.73633e-37
1.14679e-37
7.56662e-38
4.98758e-38
3.28433e-38
2.16059e-38
1.41993e-38
9.32249e-39
6.11456e-39
4.00653e-39
2.62266e-39
1.71508e-39
1.12047e-39
7.31277e-40
4.768e-40
3.10571e-40
2.02095e-40
1.31378e-40
8.5322e-41
5.53567e-41
3.58799e-41
2.32329e-41
1.50289e-41
9.71233e-42
6.27035e-42
4.0442e-42
2.60583e-42
1.67738e-42
1.07868e-42
6.92985e-43
4.44763e-43
2.85173e-43
1.82667e-43
1.16892e-43
7.47286e-44
4.77267e-44
3.04516e-44
1.94103e-44
1.23603e-44
7.86327e-45
4.99748e-45
3.17303e-45
2.01267e-45
1.2754e-45
8.07413e-46
5.10648e-46
3.22644e-46
2.03658e-46
1.28427e-46
8.09076e-47
5.09216e-47
3.20184e-47
2.01138e-47
1.26246e-47
7.91861e-48
4.96591e-48
3.11748e-48
1.96532e-48
1.25408e-48
8.25535e-49
5.84004e-49
4.75417e-49
)
;

boundaryField
{
    sides
    {
        type            zeroGradient;
    }
    empty
    {
        type            empty;
    }
}


// ************************************************************************* //
