/*--------------------------------*- C++ -*----------------------------------*\
  =========                 |
  \\      /  F ield         | OpenFOAM: The Open Source CFD Toolbox
   \\    /   O peration     | Website:  https://openfoam.org
    \\  /    A nd           | Version:  13
     \\/     M anipulation  |
\*---------------------------------------------------------------------------*/
FoamFile
{
    format      ascii;
    class       volScalarField;
    location    "20";
    object      p;
}
// * * * * * * * * * * * * * * * * * * * * * * * * * * * * * * * * * * * * * //

dimensions      [0 2 -2 0 0 0 0];

internalField   nonuniform List<scalar> 
918
(
0.213395
0.895896
0.0191578
0.212304
0.000123129
0.863016
-0.851092
0.390974
0.193411
-0.471794
-0.0775079
0.182451
0.723434
0.490511
-1.47866
0.00581615
0.346446
-0.732838
0.192094
0.000493393
0.46764
0.200161
0.203161
0.193727
0.253084
0.480894
0.603868
0.00736106
-0.000500482
0.000371043
0.00652547
-0.0052954
-0.000634412
0.74665
0.797747
0.820403
0.162375
-0.0105962
-0.700926
-0.778439
-0.76179
-0.902245
0.379182
0.384208
-0.502747
0.393474
0.409344
0.181013
0.192659
0.19348
0.194955
0.193774
0.195206
0.157628
-0.471879
-0.494975
-0.456122
-0.443524
-0.0967702
-0.113984
-0.160698
-0.0509285
-0.036187
0.11891
0.17938
0.177845
0.187686
0.197465
0.835443
0.80734
0.833477
0.747189
0.763699
0.701388
0.673879
0.510655
0.531772
0.475636
0.465796
-1.92254
-2.8973
-0.87602
-0.616534
0.000373279
0.00631766
0.00694733
0.332746
0.340364
0.344444
0.357454
0.735253
-0.716196
-0.861653
0.192222
0.19088
0.199475
0.200138
0.196126
0.195231
0.00982398
0.0139477
-0.00957341
0.00149255
-0.00266591
0.450988
0.44503
0.19427
0.191329
0.205251
0.227758
0.216336
-0.0378066
0.263747
0.285092
0.286569
0.463945
0.460843
0.468701
0.577338
0.540061
0.641314
0.664603
0.0155341
0.00447436
-0.00194422
0.000417104
-0.00170362
0.158553
0.151621
0.175403
0.16603
0.168182
-0.0942981
-0.229403
0.0731254
0.0965657
-0.608855
-0.676337
-0.784381
-0.798417
-0.912712
0.214513
0.368952
0.371413
-0.52086
-0.436298
-0.582981
-0.361512
-0.432556
0.171747
0.178448
0.173658
0.188542
0.18319
0.18511
0.196787
0.193868
0.195469
0.186139
0.300068
0.0921656
0.0318889
-0.59985
-0.498537
-0.585767
-0.432061
-0.383984
-0.0951333
-0.103867
-0.107357
-0.0578625
-0.345301
-0.219552
-0.284226
-0.0191344
-0.0124026
0.111864
0.102979
0.128606
0.134806
0.171216
0.172091
0.175274
0.173138
0.624632
0.646955
0.654484
0.628305
-3.91048
-6.73737
-0.281764
-0.138137
0.00293419
0.00357566
0.00293296
0.00633042
0.0031991
0.000575697
-0.0110371
-0.00554619
0.00650888
0.00362619
0.3185
0.322612
0.654154
0.653387
0.644849
0.620258
0.180177
0.182266
0.187827
0.183722
0.00153721
0.012843
0.0063376
0.411979
0.431227
0.428123
-0.0733972
-0.160549
0.00890022
0.0356179
0.305374
0.289954
0.306818
0.349708
0.386832
0.672024
0.690362
0.688648
0.697163
0.741236
0.757677
0.722924
0.13946
0.147864
0.143377
0.179193
0.176719
0.177782
0.171854
0.174168
0.171157
-0.383323
-0.770178
0.166151
0.179342
0.139831
0.148564
0.303218
0.375732
0.352545
0.360407
0.365009
-0.297967
-0.362968
0.00425193
-0.0224594
0.0608425
0.0921595
0.0760942
0.595655
0.556394
0.606249
0.579747
0.541247
0.566852
-0.721892
-2.25394
-1.35383
0.226876
0.0320964
0.123274
-0.0340091
-0.0340746
-0.0246946
0.633182
0.712614
0.349536
0.505361
0.526386
0.428587
0.460487
0.512803
0.437269
0.472433
0.509011
0.491786
0.17291
0.169338
0.150571
0.44612
0.501629
-0.186399
-0.236
-0.29081
-0.103869
-0.0558621
-0.0837114
0.683842
0.567487
0.646671
0.191158
0.191819
0.0138342
0.0196793
0.195559
0.195415
0.00734092
0.00575885
0.104276
-1.19028
-0.194846
0.183859
0.174718
0.191308
-0.455037
0.0388857
-0.117317
-0.0627888
0.0770289
0.181648
0.128759
0.0956416
0.00637835
0.0151191
-0.00472372
-0.533066
0.18879
0.187133
0.19089
0.191939
0.192602
0.00689492
0.0093288
0.00632679
0.000320161
0.00540345
0.00243164
0.156926
0.171417
-0.500786
0.190833
0.193077
0.192707
0.185762
0.191335
0.18968
0.0128372
0.0071177
0.00204967
-0.086492
0.027918
0.362043
0.470467
0.315144
0.0863596
-0.158391
0.257224
0.326573
0.223172
0.390792
0.355281
0.379061
-0.134833
-0.280675
-0.125341
-0.181216
0.181791
0.180426
0.172997
0.17033
0.186471
0.184596
0.188852
0.18578
0.188572
0.190245
-0.475539
-0.439212
-0.440393
-0.473099
-0.013875
0.265796
-0.098006
0.0166799
-0.112371
-0.0897794
-0.0595892
-0.187816
-0.230256
-0.192142
0.0294037
-0.0109512
-0.0878204
0.069522
-0.00715245
-0.142501
-0.0247018
-0.0869786
0.175943
0.17275
0.181569
0.18822
0.136655
0.13816
0.111007
0.126992
0.115229
0.0597557
0.0929931
0.0708065
0.00812143
0.00838193
0.00652851
0.0185271
0.0144413
0.00931713
0.0101651
0.0138615
0.00616519
0.00701466
-0.00246758
0.00630976
-0.50412
-0.621913
0.639043
0.617537
-0.18496
0.17801
0.184432
0.181261
0.185973
0.18897
0.189762
0.187623
0.184176
0.172417
0.174509
0.170543
0.171086
-0.444043
-0.577356
-0.399985
-0.461731
-0.203633
0.296224
0.0405438
-0.0187473
-0.022596
0.18665
0.58018
0.389653
0.422818
0.450245
-0.689053
-0.285892
-0.618717
-0.000578007
-0.181616
0.359302
0.412742
0.437403
0.382196
0.330468
-0.457015
0.187445
-0.377682
-0.33632
-0.148895
-0.246488
0.408494
0.339868
0.345344
0.370007
0.394644
0.345634
0.324271
0.322209
0.359175
0.363123
0.160944
-0.0543016
-0.10003
-0.13572
0.328553
0.200556
0.255882
0.174635
0.17636
0.179429
0.1779
0.161349
0.168543
0.164438
0.1694
0.172265
0.182042
0.181945
0.177579
0.17985
-0.436089
-0.438273
-0.42832
-0.466212
-0.469833
-0.533165
-0.417694
-0.286755
-0.378043
-0.0555235
0.0104511
-0.282068
-0.414183
-0.374209
-0.357945
-0.132797
-0.0961406
-0.475789
-0.120658
-0.341343
-0.376345
-0.0976524
-0.0410173
-0.190059
-0.256778
-0.331748
-0.226246
-0.124729
-0.16656
-0.179863
-0.0165717
-0.0620503
-0.0451143
-0.0184875
-0.398628
-0.387116
-0.35622
-0.503102
0.0128799
0.015088
0.0150874
0.00638541
0.0153694
0.0102571
0.170317
0.170268
0.169928
0.18426
0.196174
0.211436
0.178032
0.155671
0.14789
0.149755
0.12628
0.134195
0.131163
0.143079
0.160316
0.168251
0.167243
0.169525
0.154001
0.154842
0.144464
0.148199
0.127194
0.11005
0.100427
0.0108558
0.00834583
0.00938269
0.00883154
0.0114668
0.0118168
0.0239281
0.0199501
0.0211069
0.0188708
0.00738499
0.0155513
0.0116948
-0.424423
-0.353138
-0.528284
-0.564604
-0.631351
0.55503
0.662977
0.498128
0.26686
0.273823
0.492997
0.591551
0.251533
0.428216
0.464591
0.175981
0.46275
0.182675
0.181945
0.179633
0.179181
0.180426
-0.351063
-0.252008
-0.240594
-0.189233
-0.0734331
0.0399968
-0.0389589
-0.175806
-0.0303277
-0.0132919
0.290778
0.304585
0.249041
0.275768
0.275725
0.102226
0.17629
0.231076
0.187516
0.228481
0.250528
0.213991
0.242474
0.189226
0.149314
0.148545
0.0967079
0.115844
0.0936672
0.0767897
0.172052
0.15217
0.160737
0.154242
0.17266
0.201223
0.19566
0.21884
0.232322
0.159678
0.12235
0.130203
0.156574
0.121839
0.133979
0.147707
-0.136866
-0.236377
-0.149107
-0.44543
-0.350665
-0.36618
-0.412076
-0.377291
-0.0906347
-0.796806
-0.760247
-1.39881
0.12428
0.610716
0.360706
0.331423
0.392657
0.368555
0.371014
0.405411
0.411429
0.31875
0.33054
0.336998
0.288581
0.313528
0.345441
0.340742
0.168456
0.052406
0.0403044
0.00809708
-0.111278
-0.0818786
0.117536
0.0413516
-0.0288753
-0.0217433
0.136836
0.0320001
0.0938022
0.131089
0.063886
0.0229653
0.217122
0.28652
0.27694
0.248575
0.164263
0.176803
0.200936
0.237646
0.263886
0.297337
0.169818
0.175089
0.176213
0.173919
0.171566
0.173979
0.173807
0.176443
0.177371
0.180034
0.179119
-0.307861
-0.358637
-0.418943
-0.358059
-0.552768
-0.535509
-0.425113
-0.442471
-0.466529
-0.538718
-0.543833
-0.494178
-0.444138
-0.42334
-0.36933
-0.285965
-0.260792
-0.35172
-0.0524006
0.0748375
0.130806
0.0142345
-0.085493
-0.0753672
-0.0465042
-0.375766
-0.206577
-0.239158
-0.233348
-0.386586
-0.079083
-0.0654709
-0.0718012
-0.073482
-0.110747
-0.0453691
0.00482519
-0.00327288
-0.013865
-0.00407016
0.00418316
0.159767
0.153039
0.150685
0.147126
0.146775
0.155946
0.160701
0.163477
0.168993
0.169494
0.160935
0.165429
0.168214
0.0180613
0.0133383
0.0176718
0.00151829
0.00851175
0.0128815
0.00565854
-0.243757
-0.290994
-0.290516
-0.336901
-0.468825
-0.407617
0.128156
0.0989447
0.136758
0.333064
0.188169
0.107647
0.177968
0.286598
-0.0907267
0.106025
-0.0614276
0.531663
0.41622
0.556121
0.182821
-0.117002
0.0236556
0.0799942
-0.114403
-0.0437568
-0.0198327
-0.129506
-0.0959605
-0.067898
0.0306131
-0.0882787
-0.118534
-0.360279
-0.173941
-0.049456
-0.0707367
0.0579522
0.119606
-0.0983046
-0.182152
-0.224935
0.279667
0.298486
0.315613
0.287438
0.311625
0.236283
0.228418
0.246404
0.257265
0.250564
-1.13172
-0.843924
-1.7833
-1.09339
-0.65115
0.152225
0.108889
0.398347
0.293802
0.375918
0.359331
0.319961
0.28193
0.289903
0.32809
0.0313907
0.136841
0.111759
0.119289
0.0253614
-0.0386809
0.251519
0.246505
0.281378
0.305218
0.275488
0.306631
0.16785
0.16716
0.167415
0.164055
0.163006
0.16381
-0.506929
-0.543163
-0.442593
-0.423567
-0.454674
-0.500345
0.0229922
-0.0030765
-0.00197807
0.00262431
0.0290075
0.023151
-0.198929
-0.260307
-0.324429
-0.306606
-0.353537
-0.420925
-0.437787
-0.335462
-0.243665
-0.255538
0.0495512
0.301528
0.124675
0.299763
0.140299
0.201145
0.138284
0.126485
0.162391
0.0298324
0.107037
-0.16494
-0.657827
-0.56768
0.410814
0.432468
0.213496
0.0178423
-0.204257
-0.00483542
0.198888
0.139828
0.179321
0.247014
0.240931
-0.366578
-0.287377
-0.0657306
0.162228
-0.13517
-0.139653
-0.143549
0.0148059
-0.0513183
)
;

boundaryField
{
    wall-4
    {
        type            zeroGradient;
    }
    velocity-inlet-5
    {
        type            zeroGradient;
    }
    velocity-inlet-6
    {
        type            zeroGradient;
    }
    pressure-outlet-7
    {
        type            fixedValue;
        value           uniform 0;
    }
    wall-8
    {
        type            zeroGradient;
    }
    frontAndBackPlanes
    {
        type            empty;
    }
}


// ************************************************************************* //
