/*--------------------------------*- C++ -*----------------------------------*\
  =========                 |
  \\      /  F ield         | OpenFOAM: The Open Source CFD Toolbox
   \\    /   O peration     | Website:  https://openfoam.org
    \\  /    A nd           | Version:  13
     \\/     M anipulation  |
\*---------------------------------------------------------------------------*/
FoamFile
{
    format      ascii;
    class       surfaceScalarField;
    location    "20";
    object      phi;
}
// * * * * * * * * * * * * * * * * * * * * * * * * * * * * * * * * * * * * * //

dimensions      [0 3 -1 0 0 0 0];

internalField   nonuniform List<scalar> 
1300
(
3.75095
5.62643
-5.97188
3.75095
-5.86659
5.62643
-4.55119
4.55119
-1.25106
1.25106
1.87673
1.87422
-2.71513
2.71513
-3.79082
3.79082
-2.65826
2.65826
-5.24644
5.24644
-5.06862
5.06862
4.6838
-4.6838
-4.75716
4.75716
-1.73055
1.73055
-3.86545
3.86545
3.17017
-3.17017
-4.57215
4.57215
-0.43737
0.43737
-0.553365
4.30432
3.19759
3.19759
-2.36248
2.36248
-4.85412
4.85412
6.21824
-6.21824
9.04077
-9.04077
-3.06889
-3.43056
1.32545
-8.24118
-4.54114
-4.54114
-8.44041
8.44041
-2.81398
2.81245
2.94167
-2.94167
-1.75666
1.75666
-4.49258
-0.0586071
-4.49258
4.54443
0.00676125
4.54443
-1.37399
0.122937
-1.37399
4.01177
-4.01177
1.10344
0.147616
1.10344
3.06401
-3.06401
-1.87693
3.75366
1.87402
-1.87159
6.17591
-1.87936
3.75358
-5.78729
5.78729
-3.05296
0.337832
-3.05296
2.55976
0.155364
2.55976
-5.20937
5.20937
-3.37537
-0.415444
-3.37537
4.10615
-0.315335
4.10615
2.88726
-2.88726
-2.69324
0.034974
-2.69324
2.60671
0.0515564
2.60671
0.35357
5.27286
-5.98
8.79245
-5.27286
0.0264178
5.20847
0.0379768
5.20847
-5.1062
0.037579
-5.1062
5.00996
0.0586617
5.00996
4.77868
-0.0948839
4.77868
-4.79657
0.112771
-4.79657
-3.33678
-3.49014
-4.85254
0.0953767
-4.85254
-1.71131
-0.0192474
-1.71131
1.69927
0.0312848
1.69927
-3.4805
3.4805
-4.27099
0.40554
-4.27099
3.1255
0.0446738
3.1255
1.86863
1.88233
5.61958
-5.61958
2.44941
-4.50834
-0.0638192
-4.50834
-4.67135
-4.36942
4.67135
-0.0991921
-0.734576
0.297205
-0.734576
3.15941
0.038177
3.15941
2.52612
0.0805934
-2.52612
0.163637
3.34282
-3.34282
1.73311
0.629363
1.73311
-5.56982
5.56982
4.95018
0.0597839
-4.95018
0.0960571
6.15753
0.0607154
6.15753
-6.19961
-0.0186331
-6.19961
3.33714
-6.76769
-3.46292
4.65026
0.106904
-4.65026
0.109115
2.90592
0.0357542
2.90592
-2.92203
2.92203
-2.98211
0.0404382
-2.98211
-2.17319
0.416526
-2.17319
1.43843
0.318234
1.43843
-4.35441
-0.138175
-4.35441
-4.45338
0.182395
4.45338
0.0910475
0.934002
-0.934002
-1.51018
0.13619
-1.51018
-4.16836
-0.186044
4.16836
-0.156596
-3.89826
-0.113508
-3.89826
-3.02243
0.0403214
3.02243
0.0415808
3.11218
0.0472347
-3.11218
0.0481636
-1.87093
3.75326
-1.88002
3.75404
-5.49635
-0.290935
-5.49635
5.91611
-0.12882
5.91611
3.46647
0.398979
-3.46647
0.413509
2.62879
-0.0690265
2.62879
-5.30207
0.0926999
-5.30207
5.14993
0.0594486
5.14993
2.92907
-0.300284
-2.92907
-0.446298
4.30723
-0.201077
4.30723
2.94297
-0.0557171
2.94297
-2.85597
-0.0312901
-2.85597
2.79363
-2.79363
2.72974
0.0638827
-2.72974
0.0365043
-11.1327
11.1141
-0.035042
-11.0976
5.17342
5.17342
4.20625
0.572431
4.20625
-5.00779
0.211217
-5.00779
3.30318
-6.7661
3.47571
-6.81249
3.47847
-11.7196
3.37537
-6.86551
5.06718
-5.06718
4.95887
0.108306
-4.95887
0.106334
-1.73701
0.0257013
-1.73701
-2.85455
-0.625945
-2.85455
4.17736
-0.696865
4.17736
-3.03272
3.03272
-3.0803
0.0475867
3.0803
0.0451947
4.42637
-0.119142
-4.42637
-0.0819656
0.93083
0.172612
-0.93083
0.196254
3.55084
-0.208017
3.55084
-3.1467
-0.196122
-3.1467
-1.74187
0.00486414
1.74187
-0.00875661
-5.8169
0.247089
-5.8169
-11.1907
0.0930524
-11.1527
-6.10656
-6.10656
2.33385
11.1263
-2.86655
0.0105823
2.86655
0.0393687
2.97921
0.0535069
-2.97921
0.0571813
-2.86163
0.0680046
2.86163
0.0603992
-2.56207
0.388874
-2.56207
-1.02737
1.02737
-1.2097
0.182329
1.2097
0.228735
1.19174
-0.257734
1.19174
1.61266
0.0866072
-1.61266
0.102477
-3.80646
-0.091797
-3.80646
5.82339
0.0927195
5.82339
-3.02403
-0.122669
3.02403
-0.0810555
-0.0333022
11.1474
-5.14012
0.0339193
5.14012
-11.2081
11.242
-3.24508
0.683017
3.24508
0.96117
5.29479
0.275021
-5.29479
0.287006
5.1467
0.00322379
-5.1467
0.0795261
-2.36185
-0.492703
-2.36185
-4.94413
-0.552215
4.94413
-0.76677
-11.4752
-0.20367
11.6789
-11.4165
6.02057
0.136955
-6.02057
11.3789
-0.905852
-0.02815
0.905852
0.121516
1.50264
-0.310907
1.50264
3.71894
-0.1681
-3.71894
-0.0875263
-5.55598
0.253909
5.55598
0.267403
-1.92019
-0.441666
1.92019
-0.417544
-4.26634
4.30452
1.90957
-3.27598
-3.49171
-7.6454
1.85239
1.90087
4.30179
-7.25552
-4.46413
-7.1464
7.27335
-6.98635
-9.30266
9.20777
7.5067
-7.62021
-5.78462
5.82981
6.48182
-6.44024
1.87818
1.87548
7.04634
-6.7085
-15.825
15.5341
7.67871
-8.09415
14.5598
-14.4671
-14.4569
14.4602
-5.76816
5.80313
-6.64895
6.61766
-6.8295
6.74845
-3.23589
-3.5766
9.51248
-9.41711
11.545
-11.6088
-8.40495
8.81049
3.3824
0.922117
3.42964
-1.88227
3.76045
-1.87132
3.78089
3.48712
-6.72301
3.27899
-6.7707
6.03211
5.51286
-5.93291
-1.71248
-5.89191
5.92766
-5.82233
5.88273
8.94975
-9.00835
-1.88629
3.76177
-1.86775
3.76863
-3.42466
-2.35996
3.37998
0.921809
5.77415
3.73833
-5.88105
-1.26535
-7.71187
7.54377
-7.99847
7.80235
-0.45398
5.82444
-5.37046
4.40014
-1.55369
7.37813
5.71966
5.93088
5.868
-5.59298
1.11835
-6.48881
-6.39275
-2.57448
2.71067
2.58663
-2.43902
5.90846
1.59824
5.75186
-5.49161
-2.1286
-5.5834
3.81941
2.0104
3.867
4.07689
2.40492
4.11721
3.03037
-3.03642
0.00605914
-3.05582
6.08618
0.725343
-5.41578
-4.49397
3.80509
3.24125
3.96045
-5.178
-1.5305
-4.76449
-9.51356
-6.31148
-10.0658
10.2309
5.3032
10.1021
-11.8763
12.1437
5.73886
1.93985
5.42353
-4.39246
-3.70169
-4.83876
11.4971
-0.74448
-10.7527
-8.79681
-5.66013
8.73736
5.82244
8.4679
5.99227
8.54743
3.16088
8.33626
-8.98332
3.32319
-3.85792
-1.91024
-3.82141
3.74301
2.06012
3.79457
-4.15206
-2.49689
-4.14148
-4.19623
-2.63328
4.25195
2.36571
-4.29911
-3.69936
4.42178
2.32667
3.2073
-7.67143
3.65821
-7.2348
-6.76016
-2.65695
-6.65382
4.29716
2.49109
-6.78825
-2.42584
10.909
-5.39617
9.19654
-7.00119
-4.6076
-7.08316
-6.79802
-1.60693
-6.61563
-8.79313
8.30043
-9.08401
8.38715
12.678
-5.62213
-7.05592
-3.96837
-2.47187
3.92021
-0.49057
-3.71152
3.71758
0.0489222
3.82981
4.75193
4.26136
-3.88706
-1.93527
-3.82987
3.8277
2.05502
3.89571
6.76511
2.18464
6.77187
-6.40217
-2.60619
-6.54034
9.08987
-8.67335
2.96844
-2.96357
5.21869
2.58365
-5.01068
-2.70119
6.03452
-3.03031
-3.00421
-12.2228
10.592
1.63085
-4.84468
-0.444544
-0.00717354
-5.51339
-3.78927
5.40061
0.530263
11.1222
7.33296
-5.51386
5.76094
6.165
6.22478
-0.167966
5.85522
-5.1722
5.26147
-2.26099
-3.00048
5.24994
-5.43599
-1.2904
-5.23503
3.94462
0.315872
1.88555
-1.58835
-2.05629
-0.51819
-1.95381
1.5936
0.993034
1.76621
0.977594
1.73307
-2.9607
0.58301
2.37769
-1.9831
-1.85601
-3.54768
-1.0085
4.55618
5.48921
2.05456
-5.40168
-0.181722
2.73491
-2.70363
-0.686449
-2.86124
2.17418
-2.86063
-3.50447
-1.91047
5.41495
-3.36869
-0.461183
3.31518
0.551815
-3.82094
-2.07096
3.7805
0.336711
-3.12815
6.20554
-3.07739
-5.06343
2.5287
3.55748
4.5391
-4.78963
2.44456
2.34507
-1.23215
3.26264
0.697811
3.19361
-6.70544
5.17494
5.62058
3.18991
-6.01956
1.25507
-5.45038
8.68593
-7.83087
-0.855066
3.66257
5.02337
7.17858
5.49946
-5.76591
12.9445
-1.68226
-6.14861
7.13264
-3.94273
4.88621
-8.82894
-10.3857
4.23707
-10.8069
12.1546
-1.34774
-3.17767
-8.69866
13.9846
-1.49614
-12.4884
8.60595
-6.36368
-3.41382
9.7775
-7.10816
7.11551
-3.43807
-3.67744
-9.85787
-4.60923
9.60397
2.53977
-9.12841
12.4516
-0.792146
5.28459
0.138941
5.08351
5.07475
-5.74224
0.667486
2.03341
-5.47148
3.32722
-9.06946
-5.29073
9.94216
-4.65144
-7.94767
-7.46566
-0.48201
1.64883
10.8028
-7.6411
5.46375
2.17734
3.31147
0.584238
-3.37535
-0.44606
0.345911
4.4896
-4.83551
4.14048
4.22107
3.4003
1.0893
3.79895
2.12871
-3.83832
-0.30316
-4.10235
1.46908
-1.73664
-3.62644
5.09551
-4.04754
0.421103
-2.70229
-3.55484
6.25713
-4.61254
3.05369
3.15185
5.10871
-4.9455
1.39066
-2.4386
-2.5069
2.65688
-4.39352
1.94388
3.15163
4.27055
0.57119
5.15828
4.78388
-7.64937
0.414565
8.52222
-7.25687
2.11007
6.43735
-7.57383
0.108164
-6.54566
0.942859
-6.33902
-5.84539
5.15678
-6.76371
-3.67216
6.16063
0.611243
-6.25168
-0.363952
-5.95976
-2.83337
-6.40142
-3.04944
-6.03458
-8.81534
-1.63991
-7.17543
6.66052
-6.54545
-3.52033
7.31222
1.07493
-7.3531
7.32495
-7.42622
7.11531
0.0950596
3.62252
4.35642
1.88455
-2.39038
4.27493
-5.03947
7.22411
-8.44877
3.4093
3.91907
-6.52525
-4.5297
5.02062
4.06925
5.33886
8.9668
-10.5622
1.59543
-10.8724
12.2337
-1.36129
-16.6485
5.77604
-7.68168
2.69896
0.269476
2.72466
0.672872
2.41173
-3.0846
-2.2907
-2.29946
-2.25944
-3.31198
5.57142
1.10545
-3.32358
2.21813
-3.44534
4.55079
-0.0777907
-3.24579
5.22227
-2.81054
5.49175
-3.52313
1.96861
3.22398
5.50523
-2.28125
4.2469
-1.66324
1.76627
-4.04752
-1.54571
-3.0091
5.06922
-3.24803
3.66913
-0.233715
3.90285
-4.00981
0.979497
-0.609509
3.61156
3.7752
4.17034
-3.08104
2.88139
-4.54463
-1.16613
-3.97344
-0.82181
-0.377591
-3.68319
4.06078
6.04701
-6.42461
-5.30788
9.6093
-4.30143
7.73713
-5.43354
-2.3036
-4.28296
-4.39038
3.89409
1.96113
9.69826
0.200637
-5.63417
-4.97157
-4.0104
3.21969
2.04178
-2.07056
3.7014
2.07773
-0.192176
0.583156
1.18306
1.93027
-1.34712
0.209037
1.72124
-1.37931
1.98472
0.750193
-2.07133
0.117519
-1.29236
3.46654
1.08533
-2.07836
0.731242
1.11141
-3.3724
4.6649
-2.37012
-2.29478
5.77631
1.16878
-3.5389
4.06625
-3.75038
2.2678
-3.2763
-1.2711
-5.02148
-3.42324
-2.4536
4.67173
-3.11782
5.17238
1.16726
-4.99066
6.15791
-3.54015
1.62968
-2.98104
3.73123
-1.01064
-1.9704
2.75701
2.65794
-2.87352
0.01228
-0.116509
2.31541
-2.43191
-0.545222
-2.52833
-4.57045
4.90716
-2.10941
4.55397
2.16552
-1.91138
6.46534
1.81534
-3.72671
-3.24809
-3.70927
-1.38164
3.15746
-1.56518
-3.27358
-5.24262
3.57386
-0.380248
-6.54886
7.06932
-0.520456
-3.30761
-1.86733
5.5299
-6.85736
1.38589
-3.53014
3.53917
4.23699
3.85674
-11.9879
-0.500483
-6.68475
0.884871
-7.56962
5.90824
-3.54169
7.77876
-10.4777
6.9574
-9.4028
6.92369
-0.645922
6.31538
-5.64789
4.43728
-9.04651
-6.50674
6.21232
-4.27247
6.35126
-4.71288
11.0641
-5.50503
7.03469
4.02945
-1.63592
-5.44724
-6.55181
4.9159
0.482875
5.56638
4.94712
-2.81841
4.64396
2.24645
-4.68504
-2.14707
-6.55759
1.87255
-3.40574
-1.91792
3.79047
3.19079
3.77502
1.28357
-3.32897
7.18504
-7.66705
-2.5336
-3.31179
6.65258
-1.73668
4.29404
-7.60583
-2.04498
4.94586
-0.882379
-4.06348
0.676271
-4.34843
1.61539
-5.96382
5.14832
-5.51227
2.18163
-9.86331
-5.17147
-5.04995
-2.25052
-5.1757
-7.66755
5.41703
-1.89151
5.43344
-8.70234
7.81996
-3.53139
8.94842
-5.36767
-1.03376
5.78521
1.3301
10.2785
0.0898021
-4.61951
-1.79586
3.90106
-2.1052
1.42382
-3.59339
0.307675
2.4614
3.3149
-6.40603
-0.119222
-4.73873
-3.90559
7.97484
5.70372
11.7507
1.1885
9.19182
-1.21699
10.3803
4.12187
4.3506
-2.98225
4.57768
1.07853
4.48783
-0.844884
2.8135
1.87978
1.86053
0.843098
2.30541
1.46979
3.28491
0.200309
-2.09915
4.66252
-8.67291
-0.971657
-8.10048
1.10729
5.74821
-4.64092
3.14663
-1.10484
1.04143
0.198012
-1.81338
1.61537
-2.80247
-2.00556
-0.284318
-1.63524
2.36648
1.8313
-2.08216
-0.720307
0.316249
-3.73948
2.96005
-2.94777
-0.289828
5.86808
-2.70403
0.272119
-1.07435
-2.25621
-2.7744
2.65688
6.1853
0.280044
3.10791
5.1872
3.11624
0.297824
4.94318
-6.29092
-4.12628
-6.7914
-0.883167
4.64673
2.8311
7.97166
6.86056
5.12387
-2.48196
-10.149
6.5993
-2.02162
5.23801
-1.17453
-4.78929
4.94862
2.27549
-5.55986
0.047593
-4.7417
-6.76332
-0.563596
8.38355
-9.71493
8.68117
5.8478
1.32763
-4.36241
-0.687538
4.18008
0.17052
10.5508
-1.13267
-6.90397
8.03664
-4.61554
3.64388
0.904046
2.79736
2.51941
1.41457
-5.4894
-10.1303
-1.80113
-1.57127
-4.0959
0.460281
-2.29158
6.2815
-2.63762
3.9779
5.39902
6.44045
-2.2112
-4.2134
6.51263
-2.53472
3.90573
)
;

boundaryField
{
    wall-4
    {
        type            calculated;
        value           uniform 0;
    }
    velocity-inlet-5
    {
        type            calculated;
        value           uniform -3.75095;
    }
    velocity-inlet-6
    {
        type            calculated;
        value           uniform -5.62643;
    }
    pressure-outlet-7
    {
        type            calculated;
        value           nonuniform List<scalar> 8(5.97188 5.86659 6.49944 6.91573 6.82692 6.80006 6.77889 6.85384);
    }
    wall-8
    {
        type            calculated;
        value           uniform 0;
    }
    frontAndBackPlanes
    {
        type            empty;
    }
}


// ************************************************************************* //
