/*--------------------------------*- C++ -*----------------------------------*\
  =========                 |
  \\      /  F ield         | OpenFOAM: The Open Source CFD Toolbox
   \\    /   O peration     | Website:  https://openfoam.org
    \\  /    A nd           | Version:  13
     \\/     M anipulation  |
\*---------------------------------------------------------------------------*/
FoamFile
{
    format      ascii;
    class       volVectorField;
    location    "20";
    object      U;
}
// * * * * * * * * * * * * * * * * * * * * * * * * * * * * * * * * * * * * * //

dimensions      [0 1 -1 0 0 0 0];

internalField   nonuniform List<vector> 
918
(
(0.985145 -0.000536859 0)
(0.00500269 2.96626 0)
(-0.0100151 1.59125 0)
(0.97969 0.00216501 0)
(-0.00369998 1.5639 3.5349e-21)
(-0.00703353 2.94878 -1.83128e-18)
(0.85668 1.20183 7.48317e-19)
(0.424006 0.192554 -8.56937e-21)
(0.999906 -0.000330243 0)
(0.0614569 0.790868 0)
(-0.0394459 1.10019 0)
(0.770329 -0.0106427 0)
(0.0111264 2.93035 0)
(0.00152752 2.79496 0)
(-0.0178286 3.16781 1.1023e-18)
(-0.00354744 1.45524 -5.69112e-21)
(0.548229 0.0879725 5.35415e-19)
(0.195528 1.19658 6.63812e-19)
(0.96292 0.00511697 0)
(0.00177046 1.31732 0)
(0.141406 0.251254 -4.62672e-19)
(1.00207 -0.00500121 0)
(1.00024 -0.00973958 0)
(0.975776 -0.00645099 0)
(0.683126 -0.0363971 0)
(0.0178184 2.63196 0)
(-0.0151656 2.91021 6.28974e-19)
(-0.0246849 1.60235 0)
(-0.0281618 1.73298 0)
(-0.0243592 1.59497 0)
(-0.00652664 1.84366 0)
(-0.000166893 1.58743 -2.7961e-21)
(-0.00387795 1.46853 0)
(-0.0206188 2.98759 -6.3896e-23)
(-0.016703 3.0053 1.42343e-18)
(0.00210415 3.0002 0)
(0.870418 -0.00897109 0)
(0.392759 0.929042 -4.2877e-20)
(0.838771 1.21846 -1.05491e-18)
(0.985751 1.05659 9.86349e-19)
(0.70524 1.31368 -1.73652e-19)
(0.701585 1.3008 9.77357e-19)
(0.455693 0.276396 8.36087e-21)
(0.448521 0.177185 0)
(1.16641 0.563558 0)
(0.425909 0.291093 3.93678e-20)
(0.38626 0.195708 -4.0852e-20)
(0.919468 -0.00751548 0)
(1.00031 5.46148e-05 0)
(0.999912 0.00030365 0)
(1.00348 -0.0077773 0)
(1.00094 -0.00107277 0)
(1.00017 -1.51382e-05 0)
(0.0215864 1.77887 -2.88402e-19)
(0.0534055 0.926626 0)
(0.0765708 0.891708 0)
(0.000221513 0.849925 0)
(0.00609562 0.736522 0)
(0.0339898 1.5288 0)
(-0.0543159 1.16996 0)
(-0.0539627 0.976053 0)
(-0.0338102 1.28932 0)
(-0.0235111 1.18796 0)
(0.848998 -0.00242245 0)
(0.866535 0.00970062 0)
(0.781776 -0.00401347 0)
(0.860204 0.0155095 0)
(0.755642 -0.0116875 0)
(0.0147011 3.0004 6.69644e-19)
(0.011522 3.00792 0)
(0.00613108 3.00284 0)
(0.0135479 2.99734 7.45367e-24)
(0.00799237 2.95846 -9.95256e-19)
(0.0144975 2.98207 0)
(0.0108163 2.9036 0)
(0.0247308 2.93043 1.32263e-24)
(0.00424488 2.82535 0)
(0.0316122 2.91572 0)
(-0.0061554 2.74404 0)
(0.311376 3.56821 0)
(-0.132499 3.65046 0)
(0.141053 3.25871 -1.02585e-18)
(-0.0112536 2.99103 0)
(-0.0201157 1.82012 0)
(0.00352098 1.61945 5.61394e-21)
(-0.00348318 1.46399 -6.14591e-21)
(0.597085 0.150437 -1.8396e-19)
(0.540094 0.05147 -1.79899e-19)
(0.584117 0.185952 -5.56046e-19)
(0.531699 0.117429 -3.72656e-19)
(0.210473 0.894386 0)
(0.275967 1.34564 -6.75603e-19)
(0.39449 1.29665 1.11042e-18)
(0.987512 0.00843424 0)
(0.94262 0.00597299 0)
(1.00029 0.000548789 0)
(1.00289 0.00926758 0)
(1.00307 0.00847601 -9.94599e-19)
(0.991966 0.00968709 7.51053e-19)
(-0.0107217 1.47866 0)
(-0.00329306 1.30407 0)
(-0.0334698 1.60758 0)
(-0.0221674 1.5154 0)
(-0.00413347 1.35302 0)
(0.210631 0.264337 1.42655e-19)
(0.257435 0.241965 0)
(0.993571 -0.00825521 0)
(0.954404 -0.00643847 0)
(0.829612 0.0235497 0)
(0.796785 0.0356655 0)
(0.734391 -0.0267497 0)
(0.995616 -0.0042361 0)
(0.739917 0.0510168 0)
(0.595269 -0.0156048 7.09553e-19)
(-0.0356734 2.86545 3.08218e-19)
(0.0430535 2.90807 0)
(0.0568062 2.88329 0)
(-0.00560467 2.69693 0)
(-0.0128796 2.98535 5.75955e-19)
(-0.0182444 2.89556 0)
(-0.0153472 2.98812 -1.82674e-18)
(-0.0133915 2.92525 6.31677e-19)
(-0.0251747 1.81493 0)
(-0.0203492 1.81289 0)
(0.000373262 1.60951 -8.99295e-25)
(0.000867725 1.58411 0)
(-0.00531843 1.46476 0)
(0.935626 -0.00582874 0)
(0.854067 -0.00928345 0)
(0.863954 0.00871677 0)
(0.948505 -0.00694969 0)
(0.883879 -0.00801989 0)
(0.506448 1.1249 4.23662e-20)
(0.558498 1.18063 0)
(0.352482 0.866573 2.74021e-21)
(0.295776 0.728526 0)
(0.945954 1.09256 -2.8544e-19)
(1.05799 0.891836 5.84601e-19)
(0.396439 1.39905 0)
(0.557114 1.37875 0)
(0.559787 1.32769 0)
(0.0953915 0.14205 -1.19796e-19)
(0.49693 0.261166 0)
(0.481701 0.16173 1.06505e-19)
(1.02691 0.943757 0)
(1.09196 0.785658 0)
(1.11807 0.728156 -5.11592e-19)
(1.14642 0.622571 0)
(1.19795 0.404905 5.83689e-20)
(0.956867 -0.00885962 0)
(0.962123 -0.0101762 0)
(0.900854 -0.00810212 0)
(0.984226 -0.00911894 0)
(0.974558 -0.00935665 0)
(0.936857 -0.00622851 0)
(1.00019 0.00229292 0)
(1.00086 0.00132373 0)
(0.999923 0.000858539 0)
(-0.0160365 2.03083 1.70536e-19)
(0.116915 1.71497 0)
(-0.0604955 2.02977 1.81782e-19)
(-0.010918 1.81227 -7.58857e-20)
(0.126442 1.19168 -5.50605e-19)
(0.0718474 1.03963 0)
(0.11655 1.03596 0)
(-0.0118593 0.845047 0)
(-0.0268018 0.75593 0)
(0.0473408 1.72065 1.14926e-21)
(-0.032322 1.55887 0)
(0.0599906 1.7103 7.19729e-20)
(0.00635583 1.51064 -1.11715e-19)
(-0.045135 0.900782 0)
(-0.0630518 1.0296 0)
(-0.0479202 0.848301 0)
(-0.0226788 1.37841 0)
(-0.0133565 1.24193 0)
(0.937852 0.0154497 0)
(0.871466 1.56861e-05 0)
(0.919988 0.0074717 0)
(0.839438 -0.00533296 0)
(0.8099 0.00504142 0)
(0.901757 0.0138165 0)
(0.882947 0.00987673 0)
(0.788378 0.00186358 0)
(0.00575041 3.06471 -5.85241e-21)
(0.0164493 3.05809 0)
(0.0146821 2.96914 0)
(0.00847819 2.87632 0)
(0.929495 3.9884 0)
(1.24518 3.31775 1.01971e-18)
(0.0713728 3.08319 0)
(-0.0264923 2.91145 0)
(-0.0249844 1.8028 0)
(-0.0266405 1.81444 0)
(-0.0233602 1.80717 0)
(-0.0104048 1.83156 5.77614e-21)
(-0.0191486 1.83008 0)
(-0.0159432 1.8273 0)
(-5.59013e-05 1.48566 -1.2532e-20)
(0.00766371 1.66986 -7.3557e-21)
(0.00313641 1.63866 6.37186e-21)
(-0.00532401 1.47209 0)
(0.624102 0.123554 2.70576e-19)
(0.557858 0.0232179 -2.63158e-19)
(0.266062 1.51933 0)
(0.26258 0.658338 -2.04592e-19)
(0.200512 1.61731 -6.94688e-19)
(0.239582 1.16575 6.96737e-19)
(0.904181 0.00691816 0)
(0.967902 0.0106661 0)
(0.974971 0.010513 0)
(0.924639 0.00664372 0)
(-0.0181501 1.43581 0)
(-0.0145387 1.46543 0)
(-0.00841273 1.27375 0)
(0.384671 0.297791 3.65038e-19)
(0.326707 0.279974 -4.46586e-19)
(0.333636 0.216922 0)
(1.1188 0.0842675 -5.38432e-21)
(1.10425 0.0386497 0)
(1.03177 0.038234 0)
(0.936148 0.00527154 0)
(0.649765 0.0926201 0)
(0.680541 0.0669462 -1.14278e-18)
(0.573696 0.00711269 4.37483e-19)
(0.00977527 2.98179 3.99313e-19)
(-0.0326909 2.8674 4.77448e-20)
(0.00381788 3.05016 -1.26707e-20)
(0.0199955 3.04355 4.56544e-19)
(-0.0150244 2.99655 2.10305e-20)
(-0.0130013 2.94946 -8.51924e-23)
(-0.01728 3.01199 -3.9982e-19)
(0.0148025 3.02402 2.88919e-19)
(0.00729274 3.03672 -4.50868e-19)
(0.923328 0.00133741 0)
(0.93194 -0.00165684 0)
(0.840049 -0.00729962 0)
(0.957405 0.011809 0)
(0.943968 0.0134367 0)
(0.883321 0.00769797 0)
(0.917746 0.0141183 0)
(0.927488 0.0145551 0)
(0.838202 0.00789523 0)
(0.715252 1.41118 3.43176e-19)
(0.751268 1.52295 0)
(0.222396 0.367446 2.38272e-20)
(0.179564 0.581313 1.90957e-19)
(0.264873 0.687521 -1.03976e-19)
(0.2263 0.572236 1.8897e-19)
(0.285176 0.693987 6.92893e-19)
(0.105898 0.179459 2.05694e-19)
(0.558354 0.22077 4.01362e-19)
(0.526596 0.241957 9.8783e-20)
(0.5062 0.143916 2.02315e-19)
(1.18698 0.461815 3.0977e-19)
(1.20411 0.256333 3.24454e-19)
(-0.0244347 1.99332 1.68996e-20)
(-0.0190355 1.76254 0)
(0.982779 0.0279155 0)
(0.950802 0.0186103 0)
(0.896773 -0.0017534 0)
(0.0110458 3.07469 0)
(0.0199192 2.94404 7.7786e-19)
(0.0165432 2.95646 0)
(0.00608846 2.8508 -7.71686e-19)
(0.0060241 3.09108 1.8377e-19)
(0.0073967 3.08254 0)
(0.785271 1.82879 -2.43411e-19)
(1.2522 2.51353 6.71613e-19)
(0.768343 1.97049 -1.50761e-18)
(0.021232 2.98428 -2.85828e-19)
(0.0373339 3.00755 0)
(-0.0319579 2.88264 0)
(0.0487282 1.68717 1.44296e-20)
(0.0221157 1.70184 4.56345e-20)
(0.0207224 1.49865 -4.05302e-23)
(0.279063 1.33099 6.61441e-19)
(0.224393 0.442442 -4.55831e-19)
(0.0331579 1.95142 4.5324e-19)
(0.134024 1.83085 -5.70286e-19)
(0.200525 1.48446 8.33648e-20)
(0.00186745 3.11886 -1.07688e-18)
(0.0161795 3.11805 1.15394e-18)
(-0.00858396 2.98138 4.95515e-19)
(-0.00304112 2.97796 -4.34848e-19)
(-0.0212571 2.88222 -5.04667e-19)
(0.00884485 3.09992 -1.34489e-18)
(0.00260113 3.10578 1.30955e-18)
(0.219543 0.61003 0)
(0.168585 0.59334 -3.70874e-19)
(0.123768 0.202326 1.6501e-19)
(0.318298 0.817841 6.18599e-19)
(0.170755 0.221855 -9.47401e-19)
(1.2014 0.170831 -6.40336e-20)
(1.20404 0.308419 0)
(1.18981 0.119088 1.28985e-19)
(0.000746717 1.80438 1.92577e-21)
(-0.0403607 1.90217 0)
(-0.0359172 1.65895 0)
(0.32821 1.21241 -2.41599e-19)
(0.351064 1.02926 -5.12183e-19)
(0.191862 0.317302 8.76877e-19)
(1.00583 -0.0110862 0)
(1.00759 -0.00763239 1.81567e-19)
(-0.0259537 1.79917 0)
(-0.0347307 1.80603 0)
(1.00218 0.00335337 1.5971e-21)
(1.00367 0.00932852 3.73375e-19)
(-0.0100742 1.83745 -7.83459e-21)
(-0.00513782 1.83711 0)
(0.0396799 3.1839 9.55418e-20)
(0.40066 3.50346 0)
(1.11564 0.645193 7.13708e-20)
(1.01294 0.0127402 -2.11906e-21)
(1.02136 -0.0105104 0)
(1.00172 -2.14493e-05 -3.01925e-23)
(0.155355 1.18569 0)
(0.17458 2.60986 0)
(-0.21486 1.37139 0)
(-0.192116 2.39099 -8.47348e-20)
(-0.103945 2.07003 5.58009e-20)
(1.00586 0.0106406 2.9686e-21)
(1.0483 0.0117434 0)
(1.07319 0.0302108 0)
(-0.0278486 1.81753 0)
(-0.0231116 1.87542 0)
(-0.0349317 1.76844 0)
(0.280918 1.44888 -4.57411e-19)
(1.01108 -0.00958487 0)
(1.00949 -0.0153521 0)
(1.00235 0.000390916 2.28844e-19)
(1.0055 -0.00499747 -2.73213e-19)
(1.00123 -0.00109547 0)
(-0.0333392 1.80838 0)
(-0.0285203 1.79687 0)
(-0.0287822 1.80327 0)
(-0.0318129 1.77145 0)
(-0.0289287 1.77825 0)
(-0.0310905 1.77654 0)
(1.03161 -0.0141309 0)
(1.0208 0.0167173 -9.68761e-22)
(0.783308 1.26672 5.36656e-19)
(1.00266 0.000232291 -2.31357e-19)
(1.00347 0.00550245 2.7232e-19)
(1.00129 0.00218474 0)
(1.01302 0.0101899 2.24111e-19)
(1.00827 0.0083431 -2.79549e-19)
(1.00861 0.0143314 0)
(-0.0209199 1.87369 0)
(-0.0116091 1.8538 7.19049e-21)
(-0.0103147 1.8542 -3.92083e-21)
(1.18845 0.254385 -1.06543e-19)
(1.1272 0.0899077 0)
(0.0535314 3.07772 -4.94391e-19)
(0.0685844 2.8508 -4.00025e-20)
(0.147693 3.19769 7.76862e-19)
(0.141756 3.22689 1.00639e-20)
(0.139869 3.24299 0)
(0.0222914 3.13869 1.05032e-19)
(0.0811438 3.16237 4.81509e-19)
(0.0737535 3.1899 -2.0365e-19)
(0.0258725 3.12863 0)
(0.666878 0.327059 0)
(0.612328 0.36747 0)
(1.08841 0.671471 -2.69083e-19)
(1.08535 0.81254 4.11937e-19)
(1.14563 0.561881 0)
(1.17649 0.504555 0)
(1.01588 0.0130598 -4.13204e-19)
(1.01436 0.013924 5.1609e-19)
(1.02513 -0.0104704 0)
(1.02321 -0.011895 0)
(1.00672 0.00285013 0)
(1.01026 0.00324884 0)
(1.00503 0.00159742 0)
(1.00974 0.00562919 0)
(1.00836 0.00628229 0)
(1.00439 0.00479447 0)
(0.176183 1.18698 0)
(0.0978111 1.01085 0)
(0.220047 1.2672 0)
(0.143129 1.2857 0)
(0.165417 2.62205 0)
(0.208291 2.64925 -1.96539e-19)
(0.0771198 2.69448 0)
(0.0782113 2.68481 -3.25164e-20)
(-0.162712 2.67863 1.66294e-19)
(-0.174485 1.41642 0)
(-0.148558 1.46672 0)
(-0.220823 1.32909 0)
(-0.178749 1.19092 0)
(-0.405117 2.12356 1.30098e-19)
(-0.161114 2.17429 -7.55237e-22)
(-0.179979 2.37415 -5.42574e-20)
(-0.114783 2.25979 0)
(-0.0970117 2.06705 -9.85981e-20)
(-0.0642899 2.02207 -1.1838e-20)
(-0.423663 2.10176 -1.25173e-19)
(-0.269571 2.11832 9.85215e-22)
(-0.27182 2.25598 7.12378e-20)
(1.01565 0.0225687 4.07791e-19)
(1.01277 0.00858269 -4.98913e-19)
(1.00765 0.0215677 -4.27891e-19)
(0.992083 0.0130188 5.43231e-19)
(1.04831 0.0123432 0)
(1.03501 -0.00712399 0)
(1.07002 0.0393817 0)
(1.05471 0.0203789 0)
(1.05388 0.0140924 0)
(1.11057 0.0783017 0)
(1.08338 0.0479807 0)
(1.08704 0.0382979 0)
(-0.0192744 1.84166 -1.63643e-21)
(-0.029859 1.83195 0)
(-0.022638 1.83195 0)
(-0.036733 1.90127 1.0727e-20)
(-0.030977 1.90962 -2.46458e-22)
(-0.0506529 1.81586 1.14895e-20)
(-0.0387695 1.81032 -1.16199e-20)
(-0.0441163 1.78575 0)
(-0.0371731 1.79645 0)
(-0.0367125 1.79665 0)
(-0.0479337 1.75368 0)
(-0.0338417 1.7171 0)
(0.383577 1.47288 8.81772e-19)
(0.409015 1.48063 3.46551e-19)
(0.580322 2.42601 -1.48331e-19)
(0.397989 2.51324 4.20896e-19)
(0.339361 2.08629 -3.96014e-20)
(1.02072 -0.00840376 0)
(1.01511 -0.00978481 0)
(1.01495 -0.0158454 0)
(1.00731 -0.00115387 0)
(1.00467 -0.0015804 0)
(1.00744 -0.00474932 0)
(1.0096 -0.00403569 0)
(1.01351 -0.00448801 0)
(1.02238 0.016952 3.89967e-19)
(1.01729 0.0160017 -5.01274e-19)
(1.02373 0.0209566 -3.98763e-19)
(1.01709 0.021737 4.99756e-19)
(0.758402 1.31233 0)
(0.688295 1.37173 6.3938e-19)
(0.858754 1.20422 3.74238e-19)
(0.899862 1.16085 -4.97702e-19)
(1.14691 2.61509 -5.87452e-19)
(0.835328 0.1104 2.76167e-19)
(1.12659 0.0998257 0)
(1.17267 0.179164 9.0738e-20)
(1.15917 0.156716 3.95995e-21)
(0.979567 0.12266 0)
(0.148516 2.96756 1.06767e-19)
(0.126012 2.87345 -6.36976e-19)
(0.0389919 2.35475 4.65081e-19)
(0.103908 0.103389 -1.93862e-19)
(0.345014 3.43147 -4.55143e-19)
(0.198945 3.32233 0)
(0.240375 3.36716 5.9274e-19)
(0.256057 3.04096 -6.87983e-19)
(0.350397 3.20054 0)
(0.00738688 3.12072 2.52005e-20)
(0.0173295 3.12979 -3.253e-19)
(0.0157688 3.12567 4.78796e-19)
(0.038308 3.14014 0)
(0.0370718 3.15176 0)
(1.2134 2.61787 0)
(0.506954 0.853321 -2.18825e-19)
(1.01684 0.990387 -2.12293e-19)
(0.952937 1.05341 0)
(0.796675 0.950386 6.30662e-20)
(1.03795 0.861094 3.07757e-20)
(0.407857 0.463978 -5.22512e-19)
(0.702964 0.336102 -2.23712e-20)
(0.688515 0.27917 2.12515e-19)
(0.621536 0.40189 1.71427e-20)
(0.559349 0.392807 -7.07306e-19)
(0.678469 0.358365 0)
(0.714485 0.421584 3.42506e-19)
(0.711812 0.419022 0)
(0.649681 0.384793 0)
(0.631498 0.328857 0)
(0.759264 0.587332 1.16738e-19)
(1.18732 0.270348 7.24368e-20)
(1.1832 0.401759 0)
(1.1951 0.357133 0)
(0.764729 0.203967 3.21297e-19)
(0.815941 0.514799 -1.73442e-19)
(0.736886 0.490426 2.79714e-19)
(0.912982 0.416064 -2.55163e-19)
(1.01942 0.0144904 2.69966e-19)
(1.01753 0.013829 -2.7834e-19)
(1.0146 0.0157961 0)
(1.03335 -0.0111088 0)
(1.02884 -0.0096295 -2.47583e-19)
(1.02593 -0.0138826 2.44825e-19)
(1.02678 0.00742157 0)
(1.02502 0.0137973 0)
(1.01146 0.00427316 0)
(1.01427 0.00902913 0)
(1.01532 0.00390527 0)
(1.01372 0.00203068 0)
(0.0678718 1.00244 0)
(-0.0280638 0.969099 0)
(0.321911 1.31085 4.69724e-19)
(0.272816 1.4485 2.67385e-19)
(0.199693 1.40644 5.98748e-19)
(0.211631 1.40918 -9.42531e-19)
(0.284855 1.38745 0)
(0.294489 1.63823 2.99262e-19)
(0.320277 1.65465 0)
(0.335372 2.03495 5.75061e-20)
(0.336986 2.3859 2.10682e-19)
(0.306696 1.47062 -2.71766e-19)
(0.267361 1.40915 2.01495e-19)
(0.284462 1.37102 -1.63021e-19)
(0.272963 1.35108 3.37147e-19)
(0.21149 1.6039 0)
(0.301011 1.61586 -2.11727e-19)
(-0.151117 2.56403 2.21111e-19)
(-0.125763 2.7176 0)
(0.0471038 2.57483 -3.99515e-19)
(-0.0452524 2.63901 0)
(-0.00190118 2.75719 3.57073e-20)
(-0.0901809 2.73004 0)
(-0.380233 1.61832 2.19528e-19)
(-0.461173 1.73987 0)
(-0.313177 1.42037 0)
(-0.325121 1.43725 -2.4756e-19)
(-0.221687 2.51786 -8.12536e-20)
(-0.171653 2.66958 -2.11981e-19)
(-0.171214 2.60117 -1.44147e-21)
(-0.300687 1.94858 -3.03482e-21)
(-0.37021 1.92625 -4.21419e-20)
(-0.124868 1.53473 0)
(-0.0863087 1.56544 0)
(-0.362757 1.86689 -5.57526e-19)
(-0.318145 1.45217 -5.33622e-19)
(-0.376614 1.70513 6.72407e-19)
(-0.13195 1.80505 0)
(-0.0641555 1.86307 -3.55426e-20)
(-0.0592745 1.891 1.34643e-20)
(-0.0708581 1.90369 -4.56264e-21)
(-0.246943 1.88692 3.67989e-21)
(-0.110266 1.96958 -6.73204e-21)
(-0.133018 2.01043 4.92425e-20)
(1.02061 0.0229697 -2.65469e-19)
(1.01989 0.0207464 2.65137e-19)
(1.0151 0.0188715 0)
(1.00348 0.0474141 3.87944e-19)
(0.993413 0.0340175 -4.5717e-19)
(0.966029 0.022464 5.31607e-19)
(1.00396 0.0809551 -5.02362e-20)
(1.0359 -0.0134604 0)
(1.03749 -0.00478479 2.19143e-19)
(1.02866 -0.0205917 -2.21739e-19)
(1.0543 0.0434887 -1.19485e-20)
(1.054 0.0281688 1.07311e-19)
(1.05165 0.0504659 0)
(1.04333 0.0435687 -4.03513e-20)
(1.03728 0.0273539 0)
(1.03236 0.0211824 0)
(1.03082 0.0103798 0)
(1.02886 0.0150469 0)
(1.04464 0.0262395 8.37787e-20)
(1.04608 0.0194888 -1.90628e-19)
(1.04672 0.0300688 -8.42077e-20)
(1.0444 0.0295558 -9.8217e-20)
(1.05134 0.0562066 1.74388e-19)
(1.07529 0.0501591 0)
(1.07727 0.0935375 0)
(-0.0569094 1.86137 -1.32336e-20)
(-0.0346087 1.83514 -1.63536e-21)
(-0.0432376 1.84139 0)
(-0.0353965 1.86126 1.32559e-20)
(-0.0228411 1.84538 3.13249e-21)
(-0.0254271 1.85316 -2.83576e-21)
(-0.0561518 2.00127 5.36629e-21)
(-0.0763409 1.92846 -1.71412e-21)
(-0.0881377 1.94684 8.17725e-21)
(-0.0427979 1.94829 -8.15868e-21)
(-0.0427326 1.96104 1.0345e-20)
(-0.0642058 1.79833 2.42683e-22)
(-0.0655349 1.81828 1.62609e-20)
(0.393142 1.40409 -4.40477e-19)
(0.350204 1.3906 -4.30724e-19)
(0.643476 1.41656 -6.15554e-19)
(0.520025 1.47683 -3.34009e-19)
(0.55785 1.45326 0)
(0.58381 2.39763 1.20484e-19)
(0.652327 2.38352 2.19799e-19)
(0.41176 2.48339 7.90003e-20)
(0.408905 2.54914 -1.37338e-19)
(0.516685 2.51493 2.59147e-19)
(0.534898 2.43761 0)
(0.486391 2.47466 -3.4884e-19)
(0.276778 2.54882 5.88918e-19)
(0.35879 2.52057 -7.50374e-20)
(0.302848 2.61072 -9.18997e-19)
(0.921757 2.37479 1.81897e-19)
(0.824019 2.3659 0)
(1.0107 0.000480398 9.05624e-21)
(1.01595 -0.00553086 -7.55082e-21)
(1.01745 -0.00413989 -1.34499e-19)
(1.01514 -0.000354604 1.34539e-19)
(1.01237 0.000953223 0)
(0.625442 1.2558 0)
(0.623302 1.17246 0)
(0.729989 1.08103 0)
(0.617645 1.12818 0)
(1.17699 2.63192 5.71664e-20)
(1.06107 2.36363 0)
(0.835897 2.22886 -1.83994e-21)
(0.834522 2.48397 0)
(0.923245 2.56381 3.04512e-20)
(0.956745 2.51609 -2.04239e-20)
(0.842182 0.146119 0)
(0.812396 0.15237 7.9605e-20)
(0.927125 0.126733 4.00509e-19)
(0.866321 0.117438 -1.62571e-19)
(0.8544 0.0676743 -4.89215e-19)
(1.03083 0.211608 -2.1065e-19)
(0.95359 0.274885 -1.59547e-20)
(0.896967 0.271808 3.63958e-19)
(0.966253 0.197071 2.66477e-19)
(0.933968 0.159055 -5.00055e-19)
(0.909437 0.173654 6.5084e-20)
(0.933851 0.23499 -1.25886e-19)
(0.911057 0.193327 0)
(0.969474 0.159493 2.38243e-19)
(1.00653 0.162176 0)
(1.00443 0.188136 0)
(1.07072 0.108027 7.20823e-20)
(1.03042 0.152376 -1.3076e-20)
(1.02482 0.214805 -4.00951e-20)
(1.06094 0.187455 0)
(1.02178 0.026683 2.02482e-19)
(1.03805 0.0467222 2.38216e-19)
(1.03603 0.0320782 -2.00925e-19)
(1.03422 0.0506357 -1.60324e-19)
(1.01428 0.0526267 -2.73063e-19)
(0.975651 0.123565 0)
(0.982844 0.075809 0)
(0.969443 0.043713 -1.91892e-19)
(0.93646 0.0577924 8.10072e-20)
(1.02038 0.0811127 2.26747e-19)
(1.03623 0.109795 -2.23011e-19)
(1.03906 0.133288 2.04163e-19)
(1.00297 0.123218 0)
(1.04577 0.0967488 0)
(1.03282 0.0789585 -9.36567e-20)
(1.031 0.0796594 -1.8086e-19)
(0.561798 1.07429 -1.05291e-19)
(0.609402 1.45052 2.05569e-19)
(1.15148 2.76268 1.19534e-19)
(1.22093 3.0987 -7.48617e-20)
(1.24243 2.73449 5.94049e-19)
(1.2758 2.71853 -3.54147e-19)
(1.20135 2.35094 -7.85097e-21)
(1.20647 3.00195 2.10428e-19)
(1.22396 2.96659 -2.39803e-19)
(1.21349 3.25202 -2.75513e-19)
(1.37633 2.98248 3.81583e-19)
(1.36964 2.89887 0)
(0.511254 0.86047 -1.0842e-20)
(0.161187 1.29214 3.6095e-19)
(0.525211 0.538475 3.45277e-19)
(0.357534 0.308366 3.75357e-19)
(0.56574 0.426018 3.95896e-19)
(0.564163 0.491947 -6.29069e-19)
(0.562025 0.514293 5.17414e-19)
(0.526578 0.462868 -2.07405e-19)
(0.48126 0.401638 4.7626e-19)
(0.769349 0.263493 -1.79963e-19)
(0.732165 0.301596 0)
(0.719562 0.252381 1.00486e-20)
(0.730074 0.508457 1.80882e-19)
(0.704444 0.468818 -6.67131e-19)
(0.629249 0.488374 1.93184e-20)
(0.644901 0.459376 0)
(0.632303 0.734774 1.38427e-19)
(0.77948 0.753895 4.02678e-20)
(0.709568 0.841196 -5.5865e-20)
(0.827849 0.789786 -1.08112e-20)
(0.86613 0.830348 1.63097e-20)
(0.874843 0.83397 -1.66984e-20)
(0.799269 0.620368 -2.00091e-19)
(0.875283 0.680983 1.00493e-20)
(0.936717 0.695119 0)
(0.924597 0.66988 -6.64873e-21)
(0.98015 0.311631 5.41856e-20)
(1.09288 0.277756 -9.4994e-21)
(1.0162 0.246264 8.59962e-20)
(0.965305 0.347793 -1.27832e-19)
(1.0154 0.404272 0)
(1.05344 0.39209 0)
(0.886133 0.355853 5.56843e-21)
(0.819096 0.289449 0)
(0.842263 0.274505 1.90342e-19)
(0.877763 0.281239 -6.31552e-21)
(0.906658 0.417916 6.9515e-19)
(0.866138 0.469586 1.76255e-19)
(0.874495 0.43924 -2.31442e-19)
(0.806775 0.423235 2.47858e-19)
(0.793634 0.420326 1.71702e-19)
(0.762761 0.407056 -1.68955e-19)
(1.02781 -0.00377565 2.15638e-19)
(1.01971 -0.00095677 0)
(1.01824 -4.54278e-05 1.43122e-19)
(1.02231 -0.00136463 -3.22065e-19)
(1.02145 0.0028131 1.55246e-19)
(1.0209 0.0101151 -3.26605e-19)
(1.02215 0.00952135 0)
(1.02081 0.0105751 -6.89598e-20)
(1.01645 0.00721095 1.73209e-19)
(1.01693 0.0102454 -8.70026e-20)
(1.01752 0.00940556 6.36102e-20)
(-0.198801 1.1822 0)
(-0.292741 1.36637 0)
(-0.108559 1.06509 0)
(-0.110459 1.0231 0)
(0.186178 1.32052 -1.17121e-18)
(0.24264 1.21299 3.94939e-19)
(0.299079 1.63301 2.53405e-19)
(0.308319 1.28718 -2.18494e-19)
(-0.225365 1.47432 7.7165e-19)
(-0.181827 1.48058 -5.79952e-19)
(0.0659227 1.21895 3.84537e-20)
(-0.005288 1.19843 7.17401e-19)
(-0.108064 1.18761 9.26499e-20)
(-0.220429 1.28642 8.304e-20)
(0.128436 2.54511 4.31406e-19)
(0.124753 2.53611 0)
(0.246628 2.16536 -4.09994e-20)
(0.257338 1.8031 -1.46533e-19)
(0.27704 2.07225 2.58881e-20)
(0.240615 2.44311 0)
(0.283201 2.39927 -1.20533e-19)
(0.323895 2.40425 8.56892e-20)
(0.273444 2.01848 9.14704e-20)
(0.222441 2.22738 1.77896e-20)
(0.169349 2.36646 0)
(-0.360275 2.25757 6.05817e-19)
(-0.341259 2.43541 3.30591e-19)
(-0.40623 2.29818 0)
(-0.25285 2.57226 -6.49866e-21)
(-0.231665 2.52607 -2.98448e-19)
(-0.305523 1.58736 -1.33372e-20)
(-0.213821 1.61969 2.05461e-19)
(-0.220317 1.68053 -5.53618e-20)
(-0.32656 1.67056 -7.32734e-20)
(-0.369189 1.61848 0)
(-0.192816 1.68193 0)
(-0.0672054 1.70334 3.69356e-21)
(-0.11143 1.73032 -3.16915e-22)
(-0.143089 1.70095 0)
(-0.0886321 1.62956 5.67889e-23)
(-0.0465774 1.64918 -3.80165e-21)
(1.03541 0.000563769 0)
(1.04273 0.00195625 -2.07968e-20)
(1.04774 0.0158355 -1.50999e-19)
(1.04841 0.0160423 0)
(1.0487 0.0158259 0)
(1.04432 0.00443171 -6.77706e-21)
(1.03804 0.00371263 2.52367e-19)
(1.04022 0.0116535 3.04067e-19)
(1.03014 0.0178511 0)
(1.0295 0.0174974 0)
(1.04291 0.0198563 1.5231e-19)
(1.03391 0.0171289 0)
(1.03184 0.0165044 0)
(-0.117639 1.86442 0)
(-0.0850688 1.81551 1.9046e-21)
(-0.0966537 1.8532 8.31833e-21)
(-0.0867873 1.74192 0)
(-0.105577 1.79837 3.95361e-21)
(-0.0806101 1.78555 -6.18854e-21)
(-0.0755868 1.77153 0)
(0.389646 1.70476 0)
(0.348183 1.31429 6.83952e-19)
(0.278226 1.37262 0)
(0.427623 1.27291 -8.80839e-19)
(0.486282 1.43221 0)
(0.4375 1.38439 4.1522e-19)
(1.02594 2.70133 -3.519e-21)
(0.947502 2.40725 -2.29468e-19)
(0.874936 2.14734 3.0769e-19)
(0.846839 2.35971 1.24561e-19)
(0.848832 2.52289 0)
(0.908208 2.51282 0)
(0.882127 2.37451 0)
(0.917975 2.32869 -4.39701e-19)
(0.691865 2.50559 6.62079e-21)
(0.812683 2.4924 -7.5147e-21)
(0.822811 2.46671 5.74162e-21)
(0.683975 2.36406 0)
(0.790068 2.36489 0)
(0.74921 2.37332 -2.22837e-19)
(0.775443 2.5112 0)
(0.577659 1.08557 0)
(0.474228 0.926816 2.77234e-20)
(0.517611 0.957639 4.55258e-22)
(0.500405 1.04949 0)
(0.50211 1.00516 -3.90133e-20)
(0.732465 0.867792 2.12034e-20)
(0.75631 1.00146 0)
(0.728453 0.959916 -7.56632e-20)
(0.608605 1.02543 0)
(0.615823 0.934274 0)
(1.15666 2.77915 6.82294e-20)
(1.1344 2.84479 1.31944e-19)
(0.925885 2.37304 -2.97999e-19)
(0.892796 2.34574 3.90213e-20)
(1.11972 2.74791 0)
(1.07175 2.71744 -4.68871e-20)
(1.07606 2.48904 -6.3808e-20)
(0.968508 2.22136 -2.93985e-20)
(0.489265 1.36837 0)
(0.491072 1.06782 9.27838e-20)
(0.546398 1.14979 0)
(0.858693 0.212662 0)
(0.822503 0.170104 0)
(0.779556 0.154686 0)
(0.848503 0.218174 -2.98844e-19)
(0.795611 0.214427 1.87213e-19)
(0.941423 0.0521835 -1.67031e-19)
(0.950815 0.101596 0)
(0.924774 0.10364 7.56165e-20)
(0.887771 0.0799315 3.1111e-19)
(0.882441 0.0488851 -1.90966e-19)
(1.16527 3.37717 -9.97806e-19)
(1.2104 3.29704 0)
(1.16617 3.40327 -1.96194e-18)
(0.653246 3.56389 1.68481e-18)
(0.880105 3.12902 4.01162e-19)
(0.49518 0.880937 1.98599e-19)
(0.429161 0.865087 0)
(0.355928 0.563414 -7.98033e-20)
(0.429281 0.701736 3.54945e-19)
(0.528046 0.538089 -1.08151e-19)
(0.512825 0.561402 1.23436e-19)
(0.661474 0.53395 2.58491e-19)
(0.685097 0.536811 0)
(0.623962 0.635595 0)
(0.586517 0.565293 0)
(0.931986 0.579447 -5.76949e-20)
(0.864922 0.517659 -1.70382e-19)
(0.885929 0.549888 7.26841e-20)
(0.923792 0.491322 -1.23396e-19)
(1.01643 0.469568 0)
(1.02952 0.554908 -1.31598e-21)
(0.826771 0.383754 -3.77995e-19)
(0.825614 0.368978 -4.37885e-19)
(0.778737 0.380275 2.97432e-19)
(0.772838 0.350414 -3.38856e-19)
(0.819493 0.314477 -2.5176e-19)
(0.779409 0.311929 3.09077e-19)
(1.02679 0.0029498 -1.59647e-19)
(1.02707 0.00239986 3.24639e-19)
(1.0287 -0.00414831 2.04549e-19)
(1.0315 -0.00605557 -2.46354e-19)
(1.03623 -0.00153457 0)
(1.03384 -9.91366e-05 -3.96081e-19)
(-0.0307937 1.93751 -1.45889e-19)
(-0.0251621 1.80087 0)
(0.221861 1.81703 -8.70262e-19)
(0.240551 1.82654 7.56667e-19)
(0.268912 1.6657 -4.77472e-19)
(0.190105 1.67193 0)
(-0.213771 1.8788 0)
(-0.193919 1.75718 8.39923e-22)
(-0.146018 1.75811 -7.60564e-22)
(-0.126661 1.79639 5.88215e-21)
(-0.138995 1.8732 -9.04401e-21)
(-0.16097 1.87615 5.41752e-21)
(0.49791 1.37769 4.58629e-19)
(0.501967 1.38495 -4.92563e-19)
(0.444005 1.27522 4.52697e-19)
(0.431697 1.29065 -2.83757e-20)
(0.613858 1.29697 0)
(0.54675 1.36636 5.67024e-19)
(0.557448 1.37261 -5.48314e-19)
(0.457545 1.25755 -4.32532e-19)
(0.502314 1.21811 0)
(0.553475 1.18816 0)
(0.651412 2.45945 -9.765e-21)
(0.672681 2.47765 4.97259e-19)
(0.717196 2.49757 -3.4109e-19)
(0.620464 2.48623 -1.17197e-19)
(0.553963 2.57563 9.57306e-20)
(0.514308 2.54794 -2.90468e-19)
(0.960662 2.36268 -1.66078e-19)
(1.00207 2.38809 0)
(0.893151 2.1322 -2.26387e-19)
(1.0406 2.69855 0)
(1.03903 2.68322 0)
(0.623672 2.29758 2.68304e-19)
(1.04385 3.17892 5.0427e-19)
(0.915987 3.04834 -4.57247e-19)
(0.294351 0.976276 0)
(0.347205 0.847873 -1.42129e-19)
(0.492108 0.791807 -5.16038e-20)
(0.412246 2.05113 0)
(0.474225 2.79588 -2.79243e-19)
(0.437497 2.5621 0)
(0.645184 0.679043 -2.85607e-19)
(0.717662 0.656521 3.62748e-19)
(0.751368 0.602344 -3.53369e-19)
(0.643253 0.640709 -4.33623e-20)
(0.709042 0.584805 -1.76977e-19)
(1.00363 2.78673 -3.83332e-19)
(1.03517 2.84333 3.11443e-19)
(0.654127 2.20173 6.14608e-21)
(0.601715 1.73985 -3.79479e-20)
(0.698985 1.93333 1.41589e-19)
(0.986792 2.46969 -6.55029e-20)
(0.988239 2.4727 -1.87474e-19)
(0.675792 1.88741 -7.11468e-21)
(0.451616 1.35144 -9.35922e-20)
)
;

boundaryField
{
    wall-4
    {
        type            noSlip;
    }
    velocity-inlet-5
    {
        type            fixedValue;
        value           uniform (1 0 0);
    }
    velocity-inlet-6
    {
        type            fixedValue;
        value           uniform (0 3 0);
    }
    pressure-outlet-7
    {
        type            zeroGradient;
    }
    wall-8
    {
        type            noSlip;
    }
    frontAndBackPlanes
    {
        type            empty;
    }
}


// ************************************************************************* //
