/*--------------------------------*- C++ -*----------------------------------*\
  =========                 |
  \\      /  F ield         | OpenFOAM: The Open Source CFD Toolbox
   \\    /   O peration     | Website:  https://openfoam.org
    \\  /    A nd           | Version:  13
     \\/     M anipulation  |
\*---------------------------------------------------------------------------*/
FoamFile
{
    format      ascii;
    class       surfaceScalarField;
    location    "60";
    object      phi;
}
// * * * * * * * * * * * * * * * * * * * * * * * * * * * * * * * * * * * * * //

dimensions      [0 3 -1 0 0 0 0];

internalField   nonuniform List<scalar> 
1300
(
3.75095
5.62643
-3.32759
3.75095
-7.72245
5.62643
-4.3788
4.3788
-0.489684
0.489684
1.87639
1.87456
-2.7061
2.7061
-2.19032
2.19032
-2.53265
2.53265
-5.24638
5.24638
-5.06842
5.06842
4.65634
-4.65634
-6.29474
6.29474
-0.960853
0.960853
-3.6634
3.6634
3.16964
-3.16964
-2.1308
2.1308
-0.0267042
0.0267042
-0.55348
4.30443
3.19747
3.19747
-2.01301
2.01301
-4.86743
4.86743
6.21791
-6.21791
5.32084
-5.32084
-1.99325
-2.44108
1.79325
-11.5254
-5.92919
-5.92919
-8.44038
8.44038
-2.81395
2.81248
2.94585
-2.94585
-1.77526
1.77526
-4.33745
-0.0413499
-4.33745
4.34994
0.0288595
4.34994
-0.555293
0.0656081
-0.555293
3.97323
-3.97323
0.401965
0.0877194
0.401965
3.06528
-3.06528
-1.87711
3.7535
1.87384
-1.87189
6.17632
-1.87906
3.75362
-6.0155
6.0155
-2.92841
0.222304
-2.92841
2.52149
0.184612
2.52149
-6.84145
6.84145
-2.22574
0.0354185
-2.22574
2.15968
0.0306405
2.15968
2.87945
-2.87945
-2.64397
0.111323
-2.64397
2.40014
0.132505
2.40014
0.353524
5.27291
-5.97995
8.79243
-5.27291
0.0265284
5.2083
0.0380734
5.2083
-5.1059
0.037479
-5.1059
5.01334
0.0550737
5.01334
4.74303
-0.086694
4.74303
-4.77384
0.117496
-4.77384
-3.38423
-4.0513
-6.44674
0.152001
-6.44674
-1.04607
0.0852204
-1.04607
0.851703
0.10915
0.851703
-3.68199
3.68199
-4.08776
0.424359
-4.08776
3.12402
0.0456197
3.12402
1.86849
1.88246
5.61945
-5.61945
2.44981
-2.11193
-0.0188694
-2.11193
-2.18084
-3.14
2.18084
-0.0500426
-0.259183
0.232479
-0.259183
3.15941
0.0380613
3.15941
2.23683
0.163315
-2.23683
0.223817
3.26905
-3.26905
1.33864
0.674375
1.33864
-5.56539
5.56539
4.95571
0.0576309
-4.95571
0.0882783
6.15628
0.0616311
6.15628
-6.19954
-0.0183755
-6.19954
2.53728
-4.97836
-2.61035
6.11186
0.182885
-6.11186
0.182663
2.91753
0.0283226
2.91753
-2.91979
2.91979
-2.98447
0.0386218
-2.98447
-2.17427
0.39901
-2.17427
1.47644
0.298829
1.47644
-4.23492
-0.102528
-4.23492
-4.24021
0.152456
4.24021
0.109724
1.12749
-1.12749
-0.659343
0.10405
-0.659343
-4.09764
-0.137283
4.09764
-0.124402
-3.86368
-0.109553
-3.86368
-3.02438
0.0399112
3.02438
0.0408921
3.11284
0.0465733
-3.11284
0.0475623
-1.87082
3.75328
-1.88013
3.75398
-5.63511
-0.380389
-5.63511
6.32549
-0.309994
6.32549
3.30817
0.355223
-3.30817
0.379765
2.38624
0.135253
2.38624
-6.80569
-0.0357542
-6.80569
6.82463
0.016819
6.82463
2.29161
0.0946303
-2.29161
0.0658675
2.12899
0.0306932
2.12899
2.89883
-0.0193896
2.89883
-2.87407
-0.0053718
-2.87407
2.7968
-2.7968
2.72485
0.0719513
-2.72485
0.0808767
-11.1329
11.1146
-0.0350508
-11.0979
5.17325
5.17325
4.1706
0.572431
4.1706
-4.99182
0.217987
-4.99182
2.67724
-5.28759
3.06017
-6.4444
4.66725
-16.1926
4.30905
-8.36035
6.68894
-6.68894
6.57662
0.112319
-6.57662
0.129874
-1.15867
0.1126
-1.15867
-3.0788
-0.603189
-3.0788
4.32579
-0.643808
4.32579
-3.02825
3.02825
-3.07752
0.0492678
3.07752
0.0464977
2.10649
0.0225001
-2.10649
-0.00544004
0.330129
0.0718363
-0.330129
0.0709455
3.47855
-0.209502
3.47855
-3.07296
-0.196094
-3.07296
-1.2532
0.0945313
1.2532
0.0854307
-5.8137
0.248317
-5.8137
-11.1909
0.0929952
-11.1528
-6.10654
-6.10654
2.33384
11.1263
-2.89251
0.0184379
2.89251
0.0250175
2.97522
0.0530329
-2.97522
0.0554344
-2.86075
0.0639488
2.86075
0.059039
-2.5493
0.375026
-2.5493
-1.07336
1.07336
-1.24015
0.166795
1.24015
0.236284
1.39825
-0.270756
1.39825
0.754262
0.0974413
-0.754262
0.0949189
-3.76747
-0.0962097
-3.76747
6.55903
-0.233535
6.55903
-2.95978
-0.113175
2.95978
-0.0609478
-0.0333709
11.1479
-5.13988
0.0339863
5.13988
-11.2096
11.2435
-3.22035
0.671053
3.22035
0.95025
5.28554
0.279849
-5.28554
0.293715
6.77372
0.0509065
-6.77372
0.0847842
-2.5862
-0.492593
-2.5862
-5.0524
-0.58271
5.0524
-0.726607
-11.4742
-0.204471
11.6787
-11.4191
6.01817
0.138107
-6.01817
11.3816
-1.02997
-0.0975288
1.02997
0.0433907
1.72511
-0.326858
1.72511
3.67018
-0.191625
-3.67018
-0.0972918
-6.71122
-0.0944666
6.71122
-0.152197
-2.14166
-0.444543
2.14166
-0.416552
-4.26709
4.30516
1.90923
-2.3951
-2.58326
-5.5351
1.85187
1.90141
4.30168
-10.1614
-6.03124
-9.97871
7.26264
-6.96893
-9.24733
9.16064
7.84985
-7.9594
-5.78494
5.83144
6.48276
-6.44187
1.8788
1.87471
7.97758
-7.75527
-15.6218
15.2414
7.5045
-7.46908
15.776
-15.8117
-17.8574
17.9083
-5.69472
5.80604
-6.73782
6.73244
-6.97114
6.91019
-2.83467
-3.60974
13.1243
-12.9723
8.53715
-8.55602
-8.59367
9.01802
3.38257
0.922585
3.42914
-1.88217
3.76097
-1.87145
3.78068
2.70436
-5.53903
2.58323
-5.16648
4.32583
4.21131
-4.27579
-1.25931
-5.92396
5.95228
-5.81526
5.8743
9.11641
-9.15776
-1.88515
3.75986
-1.86882
3.77023
-3.42502
-2.35992
3.3794
0.922271
8.07761
5.04665
-8.26049
-1.71821
-8.02133
7.8297
-8.22185
8.02576
-0.434938
5.81876
-5.38382
4.4325
-1.56294
7.38169
5.69971
5.91769
5.86641
-5.58656
1.10251
-6.48634
-6.39806
-2.34638
2.45043
2.22988
-2.14216
6.11065
1.7392
5.98625
-5.74002
-2.21937
-5.83623
3.82073
2.01071
3.86999
4.07818
2.40458
4.11809
3.03055
-3.03589
0.00533847
-3.05657
6.08711
0.723976
-5.41648
-4.49421
4.96858
3.009
5.15319
-5.53224
-2.22303
-5.15248
-9.54597
-6.07585
-10.1287
10.092
5.14941
9.78203
-11.9661
11.8139
4.78943
2.71507
4.82007
-4.91946
-2.54963
-4.85359
11.6401
-2.61962
-9.02049
-10.324
-7.5334
10.3071
5.46885
10.967
6.94123
11.0518
4.42488
7.21522
-9.89374
2.36033
-3.86153
-1.83319
-3.78065
3.66205
2.14399
3.79456
-4.21671
-2.52111
-4.19827
-4.29433
-2.67681
4.31372
2.41873
-4.41473
-3.80712
4.52791
2.38229
4.03785
-10.0691
4.3225
-7.93223
-9.20216
-3.7701
-9.07228
3.4997
2.60569
-6.1054
-2.03933
8.46512
-4.25381
7.20581
-5.16733
-3.38869
-5.17277
-6.86953
-1.72414
-6.71707
-8.88248
8.38988
-9.18054
8.53673
12.5399
-5.66129
-6.87864
-3.96839
-2.47348
3.92083
-0.491688
-3.71058
3.71592
0.0503841
3.83106
4.75365
4.26196
-3.88487
-1.9304
-3.82943
3.82613
2.04817
3.89008
6.82779
2.28862
6.85665
-6.58798
-2.56978
-6.69051
9.0447
-8.64569
2.84963
-2.7551
5.38671
2.63905
-5.17721
-2.84412
6.21454
-3.21614
-2.9984
-12.2
10.5333
1.66668
-4.81831
-0.38581
-0.359106
-5.48981
-3.75753
5.37231
0.545385
11.0787
7.32117
-5.51316
5.76147
6.16552
6.22315
-0.174909
5.81137
-5.14032
5.26714
-2.56007
-2.70707
5.44743
-5.58471
-1.24308
-5.49531
4.25223
0.401533
1.54196
-1.30948
-1.82873
-0.517646
-1.73381
1.32349
0.906392
1.39533
0.931482
1.51895
-2.95257
0.557608
2.39496
-2.02109
-1.58456
-3.78021
-1.13371
4.91392
5.71893
2.11077
-5.62164
-0.214592
2.57242
-2.46327
-0.753873
-3.02634
2.23664
-2.99052
-3.67393
-2.03955
5.71347
-3.36994
-0.459492
3.31691
0.553087
-3.82694
-2.09702
3.78832
0.329773
-3.12738
6.19053
-3.06315
-5.05778
2.5278
3.55931
4.53851
-4.78956
2.44738
2.34218
-1.23024
4.24456
0.908632
4.37981
-6.92031
4.69727
5.7883
3.22972
-6.14353
0.991049
-5.92926
8.54087
-7.36931
-1.17156
4.1385
4.40237
7.07894
5.46099
-5.67902
12.758
-1.20099
-6.16831
7.13025
-3.90053
4.84992
-8.75045
-10.3109
4.14259
-9.15552
10.9329
-1.77737
-3.62526
-8.34088
12.7808
-1.20762
-11.5732
8.57441
-4.2395
-4.32148
8.56098
-6.85911
6.87111
-1.9886
-4.8825
-10.1115
-5.70023
10.206
1.60795
-9.88664
12.247
-2.67142
4.10315
0.716919
4.13385
3.28674
-5.46662
2.17987
3.57237
-5.56097
2.08682
-7.55344
-6.73499
12.0672
-5.33221
-10.5051
-9.52354
-0.981544
2.53461
9.71236
-9.47584
7.43169
2.04416
3.30186
0.588216
-3.37381
-0.406836
0.239794
4.5292
-4.76899
4.03435
4.19767
3.28984
1.23936
3.8447
2.10758
-3.86972
-0.328546
-4.16231
1.4855
-1.74359
-3.69234
5.17784
-4.06629
0.373952
-2.74736
-3.49981
6.24717
-4.58055
3.03615
3.15438
5.08432
-4.91318
1.41337
-2.39338
-2.5198
2.65292
-4.39651
1.98951
3.18833
4.37179
0.564673
5.87515
6.19205
-8.48084
0.548609
11.2387
-9.52048
2.46784
8.58398
-9.89953
0.375985
-8.6963
0.993014
-5.24682
-5.11238
5.18956
-6.9137
-3.56088
6.20279
0.653862
-6.31251
-0.404559
-6.03662
-2.84585
-6.48117
-3.04603
-6.13451
-8.72505
-1.65219
-7.07287
6.73769
-6.68458
-3.4441
7.41119
1.12554
-7.41162
7.31409
-7.49005
7.16319
0.0953039
3.62062
4.35727
1.88379
-2.39038
4.27417
-5.11325
7.40188
-8.69608
3.58283
4.1773
-6.74708
-4.51878
5.02474
4.01996
5.32357
8.8925
-10.3656
1.47311
-10.6654
11.9989
-1.33352
-16.4291
5.76369
-7.53661
2.46556
0.384073
2.57816
0.553123
2.49989
-3.05301
-2.20198
-2.11655
-2.42646
-3.46471
5.89117
1.10705
-3.51593
2.40888
-3.57008
4.67714
-0.192179
-3.32375
5.28452
-2.78463
5.66859
-3.76226
1.90632
3.42991
5.75021
-2.3203
4.39353
-1.75448
1.9153
-4.2356
-1.54941
-2.96299
5.10697
-3.28419
3.65814
-0.337978
3.99612
-4.05981
0.843671
-0.769971
3.4277
3.65151
4.31019
-3.07084
2.9238
-4.67829
-1.3118
-4.11361
-0.925281
-0.267076
-3.71118
3.97826
5.9909
-6.25797
-5.23742
9.53293
-4.29551
7.69672
-5.38442
-2.3123
-4.25555
-4.39014
3.88053
1.93084
9.62756
0.209492
-5.59391
-4.93083
-3.98058
3.1247
2.14244
-1.78818
3.45486
2.14729
-0.605329
0.453056
0.942272
1.78938
-1.33633
0.296261
1.49312
-1.01322
1.78363
0.78879
-1.88107
0.147256
-1.30572
3.54237
1.08924
-1.99564
0.65931
0.991307
-3.55138
5.01165
-2.65259
-2.35906
6.00295
1.1431
-3.79569
4.3522
-3.95067
2.374
-3.50771
-1.42169
-5.37236
-3.63317
-2.52905
4.93793
-3.36212
5.47289
1.264
-5.2583
6.5223
-3.7138
1.67426
-3.06977
3.85856
-0.963332
-2.10644
2.8958
2.81767
-3.04662
0.020287
-0.150819
2.40192
-2.55274
-0.588592
-2.60968
-4.57314
4.90292
-2.1056
4.55298
2.16856
-1.91651
6.46949
1.80932
-3.72583
-3.24846
-3.70795
-1.38365
3.15486
-0.598553
-4.25503
-5.48106
4.1604
0.21941
-7.01475
7.82717
-0.812415
-4.00576
-0.691517
4.83001
-6.04701
0.486032
-3.96019
3.86698
4.77562
4.99503
-11.3582
-0.214903
-6.20884
1.12574
-7.33459
5.52812
-3.54443
7.68702
-10.3391
6.89498
-9.21354
6.51546
-0.819127
6.25137
-4.07149
2.76912
-8.46935
-6.86139
5.47882
-2.76374
6.19573
-3.12581
9.32155
-5.79723
5.26577
4.05577
-1.01121
-4.16156
-5.26056
4.24935
0.00521352
4.13906
4.97953
-2.87195
4.65098
2.26664
-4.66002
-2.12987
-6.49467
1.83465
-3.34028
-1.92005
3.7547
3.16427
3.75248
1.2349
-3.34565
7.18398
-8.16553
-1.85177
-3.26061
5.24552
-0.996172
3.38999
-6.65059
-1.85684
4.80715
-0.78403
-4.02312
0.85414
-4.41502
1.66845
-6.08347
5.24526
-5.64982
2.22195
-9.75856
-5.18967
-5.14628
-2.25889
-5.23116
-7.57587
5.31698
-1.81218
5.50191
-8.51496
7.73093
-3.48398
8.80096
-5.43038
-1.05079
5.84693
1.31626
10.1172
0.207242
-4.72603
-1.90677
3.86759
-1.96082
1.21792
-3.50394
0.363649
2.48945
3.5135
-6.74168
-0.00539876
-4.73142
-3.91836
7.93833
5.61457
11.6055
1.23986
9.12066
-1.18233
10.3605
4.14124
4.37752
-2.99664
4.46975
0.981618
4.56445
-0.91427
2.82059
1.66389
1.74911
0.714159
2.3058
1.34571
3.14947
0.0964604
-2.02009
4.62372
-8.6043
-0.970194
-8.03187
1.12877
5.71108
-4.58231
2.98191
-0.839465
1.02109
-0.0615875
-1.3243
1.38589
-2.76865
-1.92963
-0.43651
-1.67823
2.33754
1.86413
-1.90103
-0.867623
0.358692
-3.99186
3.14902
-3.12874
-0.311066
6.21123
-2.81736
0.264613
-1.1431
-2.34507
-2.86272
2.71546
6.17607
0.293422
3.11292
5.19634
3.09932
0.227369
3.90162
-5.67899
-3.65182
-5.8939
-0.36578
4.46423
1.7485
7.96386
5.80427
4.8081
-1.84249
-10.008
6.52994
-2.06019
5.19642
-1.17329
-4.91018
5.03794
2.36394
-5.6918
0.0419836
-4.86819
-6.92839
-0.513718
8.24464
-9.60351
8.55272
5.70686
1.366
-4.4073
-0.738981
4.2405
0.13702
10.4975
-1.12819
-6.74015
7.86834
-4.58289
3.6127
0.765738
2.68913
2.15163
1.31216
-5.42799
-10.0103
-2.02645
-1.52493
-4.3855
0.52842
-2.39255
6.22749
-2.61479
3.91519
5.25355
6.27464
-2.13638
-4.12159
6.43189
-2.51669
3.75794
)
;

boundaryField
{
    wall-4
    {
        type            calculated;
        value           uniform 0;
    }
    velocity-inlet-5
    {
        type            calculated;
        value           uniform -3.75095;
    }
    velocity-inlet-6
    {
        type            calculated;
        value           uniform -5.62643;
    }
    pressure-outlet-7
    {
        type            calculated;
        value           nonuniform List<scalar> 8(3.32759 7.72245 4.43433 9.73211 7.43553 5.14763 5.73741 8.9763);
    }
    wall-8
    {
        type            calculated;
        value           uniform 0;
    }
    frontAndBackPlanes
    {
        type            empty;
    }
}


// ************************************************************************* //
