/*--------------------------------*- C++ -*----------------------------------*\
  =========                 |
  \\      /  F ield         | OpenFOAM: The Open Source CFD Toolbox
   \\    /   O peration     | Website:  https://openfoam.org
    \\  /    A nd           | Version:  13
     \\/     M anipulation  |
\*---------------------------------------------------------------------------*/
FoamFile
{
    format      ascii;
    class       volVectorField;
    location    "60";
    object      U;
}
// * * * * * * * * * * * * * * * * * * * * * * * * * * * * * * * * * * * * * //

dimensions      [0 1 -1 0 0 0 0];

internalField   nonuniform List<vector> 
918
(
(0.985161 -0.000506403 0)
(0.00501291 2.96625 0)
(0.00767753 0.887207 0)
(0.979704 0.00214621 0)
(-0.0137639 2.05842 3.32849e-20)
(-0.00704739 2.94879 -2.47059e-18)
(0.817997 1.16051 4.48094e-19)
(0.150144 0.0823323 -1.49874e-20)
(0.999909 -0.000277526 0)
(0.0605912 0.739035 0)
(0.0132779 0.533009 0)
(0.735837 -0.0172779 0)
(0.0111373 2.93031 0)
(0.00292175 2.79496 0)
(-0.0177142 3.1499 7.80873e-19)
(-0.018832 1.91323 9.04036e-21)
(0.279935 0.0430247 1.01738e-18)
(0.187537 1.13644 3.18684e-19)
(0.962734 0.00501816 0)
(0.00868423 0.497709 0)
(-0.006601 0.110415 -7.05097e-19)
(1.00197 -0.0049763 0)
(1.00022 -0.00978578 0)
(0.975736 -0.00643901 0)
(0.598254 0.0118706 0)
(0.0152233 2.64083 0)
(-0.0148142 2.90997 9.09005e-19)
(0.0110904 0.938463 0)
(-0.01431 1.18188 0)
(0.012303 0.920275 0)
(-0.0161631 2.59499 0)
(-0.00257856 2.10893 -2.65812e-20)
(-0.00965516 1.89134 0)
(-0.0205976 2.98761 -8.88098e-23)
(-0.0166845 3.00529 1.92001e-18)
(0.00210303 3.00017 0)
(0.871267 -0.0096436 0)
(0.403147 0.934064 1.79196e-19)
(0.802588 1.17511 -5.11305e-19)
(0.954317 1.01986 5.54277e-19)
(0.671635 1.26674 -1.03742e-19)
(0.672945 1.24116 5.97795e-19)
(0.187975 0.138476 1.46216e-20)
(0.166573 0.05944 0)
(1.15498 0.560659 0)
(0.162342 0.125136 6.66662e-20)
(0.126723 0.0778788 -6.91752e-20)
(0.919885 -0.00745533 0)
(1.00027 0.000160003 0)
(0.999909 0.000337955 0)
(1.00363 -0.00776142 0)
(1.00096 -0.000921347 0)
(1.00017 3.55075e-05 0)
(0.0735051 1.82523 -7.71761e-19)
(0.0270799 0.949043 0)
(0.0967008 0.81137 0)
(0.00884107 0.905452 0)
(0.0355408 0.668501 0)
(0.00668456 2.01055 0)
(-0.000168875 0.816251 0)
(0.0114124 0.551634 0)
(-0.00345401 0.810511 0)
(0.00889647 0.520364 0)
(0.841249 -0.0157593 0)
(0.839533 0.0328091 0)
(0.76734 -0.00888389 0)
(0.803877 0.0400236 0)
(0.702545 -0.00879716 0)
(0.0146871 3.00041 9.15846e-19)
(0.011499 3.00808 0)
(0.00610788 3.00276 0)
(0.0135566 2.99738 1.03922e-23)
(0.00795792 2.95846 -1.36117e-18)
(0.014494 2.98197 0)
(0.0108675 2.90358 0)
(0.02458 2.93044 2.08249e-24)
(0.00461649 2.8251 0)
(0.0309368 2.91635 0)
(-0.0049946 2.746 0)
(0.305797 3.54353 0)
(-0.131565 3.62439 0)
(0.138117 3.23995 -7.26676e-19)
(-0.0134675 2.97773 0)
(-0.0220807 1.98295 0)
(-0.00773775 2.1633 -8.91644e-21)
(-0.0132431 1.92086 2.37497e-21)
(0.358241 0.14576 -3.53225e-19)
(0.308065 0.0259491 -3.42927e-19)
(0.317276 0.152422 -1.05759e-18)
(0.244718 0.0512404 -6.88936e-19)
(0.228699 0.981199 0)
(0.271676 1.28653 -3.68854e-19)
(0.365512 1.22378 6.15293e-19)
(0.987441 0.00856912 0)
(0.941871 0.0058308 0)
(1.0003 0.000580381 0)
(1.00286 0.00930867 0)
(1.00301 0.00846979 -2.74025e-18)
(0.991909 0.00969617 2.06934e-18)
(-0.00612636 0.797127 0)
(0.0081777 0.508035 0)
(-0.0417281 1.00771 0)
(-0.0203424 0.836986 0)
(0.00616161 0.494735 0)
(-5.73228e-05 0.121988 2.17611e-19)
(0.0813229 0.09134 0)
(0.993551 -0.00837221 0)
(0.954458 -0.00652909 0)
(0.746914 0.0375083 0)
(0.681452 0.0291983 0)
(0.66339 0.000870437 0)
(0.969605 -0.00760051 0)
(0.597263 0.0733812 0)
(0.446241 -0.0128743 1.53672e-18)
(-0.0369059 2.86277 6.69697e-19)
(0.0411242 2.91029 0)
(0.053744 2.88586 0)
(-0.00394925 2.70034 0)
(-0.0132799 2.98505 8.60781e-19)
(-0.0178925 2.89492 0)
(-0.0154758 2.98803 -2.66902e-18)
(-0.0132632 2.92516 9.13911e-19)
(-0.0232235 1.3438 0)
(-0.000736386 1.37256 0)
(-0.00784493 2.1276 4.95794e-22)
(-0.00680362 2.08977 0)
(-0.0207989 1.89993 0)
(0.93852 -0.00742189 0)
(0.857355 -0.0099571 0)
(0.863274 0.00574931 0)
(0.949547 -0.00784218 0)
(0.884007 -0.0081822 0)
(0.514683 1.1271 -2.26354e-19)
(0.56384 1.17816 0)
(0.367737 0.879007 3.35068e-20)
(0.310291 0.737707 0)
(0.914622 1.05797 -1.52733e-19)
(1.03153 0.867069 3.093e-19)
(0.358886 1.34978 0)
(0.524155 1.32259 0)
(0.54698 1.26051 0)
(0.120665 0.184867 -3.01779e-19)
(0.21134 0.13623 0)
(0.193069 0.0723888 1.92444e-19)
(1.00266 0.921721 0)
(1.0759 0.775726 0)
(1.10097 0.717176 -2.44693e-19)
(1.13439 0.620173 0)
(1.18523 0.404232 5.68976e-20)
(0.957729 -0.00871996 0)
(0.962496 -0.0100441 0)
(0.901723 -0.00797736 0)
(0.9842 -0.00914946 0)
(0.974703 -0.00933894 0)
(0.937126 -0.00637091 0)
(1.00019 0.00233922 0)
(1.0009 0.00141275 0)
(0.99991 0.000854653 0)
(0.0353283 2.07391 4.27806e-19)
(0.119013 1.76821 0)
(0.0177293 2.18805 6.57143e-19)
(0.0462721 1.87901 -5.47988e-19)
(0.104426 1.14395 -2.61072e-19)
(0.046082 1.026 0)
(0.142088 0.97245 0)
(0.0025131 0.866702 0)
(0.0164807 0.61642 0)
(-0.00134846 2.24128 -8.35893e-22)
(0.0159033 2.01539 0)
(-0.0021568 2.24313 -3.05594e-20)
(0.00822297 2.0193 4.80017e-20)
(0.000673858 0.842991 0)
(0.00139103 0.825314 0)
(0.00988374 0.580364 0)
(-0.00341376 0.802574 0)
(0.000635624 0.512637 0)
(0.938064 0.00970208 0)
(0.849668 -0.0147394 0)
(0.927338 0.000355448 0)
(0.842257 -0.0129299 0)
(0.812191 -0.00138125 0)
(0.899309 0.0217275 0)
(0.873018 0.0272327 0)
(0.788677 -0.00484987 0)
(0.00562442 3.06476 -8.5395e-21)
(0.0165943 3.05771 0)
(0.014605 2.96903 0)
(0.00865041 2.87625 0)
(0.921389 3.95671 0)
(1.23489 3.2901 9.27829e-19)
(0.0691132 3.07012 0)
(-0.0294035 2.90286 0)
(-0.00891217 1.39348 0)
(-0.0262482 1.69406 0)
(-0.0146341 1.52909 0)
(-0.0288388 2.55565 -1.19084e-20)
(-0.0132064 2.24629 0)
(-0.0183826 2.39315 0)
(-6.74291e-05 1.94709 7.08458e-22)
(-0.00416537 2.23612 -5.80076e-21)
(-0.00602057 2.19837 -2.56563e-21)
(-0.00753875 1.93292 0)
(0.408875 0.126122 5.38652e-19)
(0.35632 0.014719 -5.28588e-19)
(0.259089 1.58513 0)
(0.276876 0.754289 -3.15408e-19)
(0.177135 1.67232 -1.04837e-18)
(0.226095 1.21844 1.0507e-18)
(0.90204 0.00638414 0)
(0.967408 0.0111188 0)
(0.974551 0.0108072 0)
(0.923316 0.0064208 0)
(-0.00626249 0.797252 0)
(-0.00910045 0.796468 0)
(0.00491061 0.504322 0)
(0.143545 0.114193 6.17078e-19)
(0.122901 0.103636 -7.28333e-19)
(0.105499 0.079011 0)
(1.09704 0.085681 2.71024e-20)
(1.07919 0.0391281 0)
(1.0119 0.0397462 0)
(0.906274 -0.00574572 0)
(0.458199 0.105589 0)
(0.517408 0.086846 -2.45539e-18)
(0.400698 0.0100632 9.18213e-19)
(0.00871482 2.98069 7.19741e-19)
(-0.0330604 2.86502 4.53187e-20)
(0.00363247 3.05029 -1.8082e-20)
(0.0201728 3.04331 6.42743e-19)
(-0.0149768 2.99656 3.00163e-20)
(-0.0129634 2.94945 -1.2072e-22)
(-0.0172865 3.01192 -5.55271e-19)
(0.0149241 3.02366 4.02458e-19)
(0.00743392 3.03695 -6.37684e-19)
(0.933835 -0.00126631 0)
(0.939359 -0.00324168 0)
(0.84579 -0.0094572 0)
(0.956545 0.0118967 0)
(0.942688 0.0132312 0)
(0.881595 0.00587388 0)
(0.916887 0.0173207 0)
(0.925895 0.0150444 0)
(0.838509 0.00234678 0)
(0.717191 1.40438 4.19568e-20)
(0.750474 1.51309 0)
(0.182158 0.316298 7.05008e-20)
(0.227747 0.668507 5.6779e-19)
(0.262321 0.720829 -3.31571e-19)
(0.263669 0.523016 6.59544e-19)
(0.345399 0.809969 1.58841e-18)
(0.139943 0.22976 3.75105e-19)
(0.277299 0.154775 7.29772e-19)
(0.242194 0.149961 1.89342e-19)
(0.216354 0.0630364 3.59397e-19)
(1.17438 0.462358 6.07238e-20)
(1.19042 0.255894 5.6103e-20)
(0.00987139 2.23646 2.53113e-19)
(0.0404643 1.94647 0)
(0.969897 0.0291744 0)
(0.942814 0.0137798 0)
(0.868345 -0.0179867 0)
(0.0114414 3.07449 0)
(0.0198161 2.94412 1.17685e-18)
(0.0164082 2.95641 0)
(0.00631788 2.85053 -1.1676e-18)
(0.00626237 3.0913 2.85749e-19)
(0.00701948 3.08215 0)
(0.783283 1.81474 -1.59592e-19)
(1.2427 2.49073 4.06042e-19)
(0.765279 1.95413 -1.23239e-18)
(0.0197725 2.98122 -6.19342e-19)
(0.03499 2.99975 0)
(-0.0345754 2.87719 0)
(-0.00427515 2.22213 -1.3099e-20)
(-0.00353592 2.24296 8.2528e-21)
(0.00203033 1.98074 -7.26109e-21)
(0.278085 1.39397 1.0243e-18)
(0.237627 0.547972 -7.02376e-19)
(0.0636718 1.99852 7.62607e-19)
(0.135378 1.88471 -9.10155e-19)
(0.180313 1.51053 9.48508e-20)
(0.00381108 3.11905 -1.73542e-18)
(0.011061 3.11939 1.91072e-18)
(-0.00915113 2.98088 7.91105e-19)
(-0.00457124 2.9774 -7.45243e-19)
(-0.0211714 2.88054 -8.05733e-19)
(0.00843426 3.10011 -2.12469e-18)
(0.00201963 3.10478 2.13602e-18)
(0.281503 0.694799 0)
(0.248238 0.684108 -1.17954e-18)
(0.0958849 0.225393 5.23772e-19)
(0.357103 0.936677 1.11124e-18)
(0.19502 0.275506 -1.71324e-18)
(1.18284 0.174286 6.34262e-20)
(1.19093 0.310411 0)
(1.17122 0.12221 -7.19347e-21)
(0.00108505 2.25368 -1.47898e-21)
(0.00447987 2.24564 0)
(0.0247285 1.98162 0)
(0.340117 1.30282 -3.67881e-19)
(0.374222 1.14855 -7.99283e-19)
(0.209555 0.377022 1.42483e-18)
(1.00588 -0.0108351 0)
(1.00767 -0.00763741 5.05535e-19)
(-0.020461 1.32435 0)
(-0.0353489 1.32207 0)
(1.00221 0.00351159 1.80963e-21)
(1.00366 0.00946486 1.03215e-18)
(-0.0195546 2.5399 1.50955e-20)
(-0.0242001 2.58232 0)
(0.034101 3.17725 4.0921e-19)
(0.391553 3.48501 0)
(1.172 0.660984 -5.86538e-20)
(1.01286 0.0131295 -2.13806e-21)
(1.02132 -0.010308 0)
(1.0017 0.000125922 7.79452e-23)
(0.107261 1.36462 0)
(0.144201 2.57211 0)
(0.0245001 1.30713 0)
(-0.000818784 2.6238 2.88725e-20)
(-0.0217879 2.58058 5.00305e-21)
(0.999052 0.0275325 1.96507e-21)
(1.06292 0.00455009 0)
(1.09721 0.0248649 0)
(-0.0277956 1.73618 0)
(-0.0187013 2.582 0)
(-0.00455439 1.30772 0)
(0.312487 1.47862 -1.69829e-19)
(1.0113 -0.0096223 0)
(1.0094 -0.0149192 0)
(1.00237 0.000748829 6.46067e-19)
(1.00547 -0.00480371 -7.59325e-19)
(1.00118 -0.000973712 0)
(-0.0130363 1.45989 0)
(-0.00647058 1.37206 0)
(-0.00559309 1.41753 0)
(-0.0082261 1.29581 0)
(-0.0159561 1.28378 0)
(-0.00818136 1.26509 0)
(1.03497 -0.00609471 0)
(1.01982 0.0156238 -8.44939e-22)
(0.820316 1.27295 2.59739e-19)
(1.00223 0.000314854 -6.43495e-19)
(1.00406 0.00525764 7.53448e-19)
(1.00118 0.00207293 0)
(1.01274 0.0103493 6.40451e-19)
(1.00799 0.0083092 -7.76018e-19)
(1.00856 0.0146937 0)
(-0.0237096 2.60996 0)
(-0.0255017 2.58968 -1.94646e-20)
(-0.0231371 2.60352 1.38189e-20)
(1.23599 0.266399 5.82538e-19)
(1.16137 0.0865725 0)
(0.0407353 3.07795 -9.15084e-19)
(0.0646018 2.85607 -6.65944e-20)
(0.138491 3.19231 1.39898e-18)
(0.133634 3.22012 -1.98251e-19)
(0.132978 3.23116 0)
(0.019205 3.13749 2.36242e-19)
(0.0744281 3.15988 9.02524e-19)
(0.0670525 3.1853 -4.45293e-19)
(0.0222437 3.12955 0)
(0.599066 0.278809 0)
(0.52491 0.304019 0)
(1.14283 0.697048 1.34546e-19)
(1.13735 0.818488 -1.19674e-19)
(1.19992 0.583776 0)
(1.2281 0.518623 0)
(1.01606 0.0133644 -1.19381e-18)
(1.01498 0.0142773 1.49856e-18)
(1.02535 -0.00982814 0)
(1.02342 -0.011866 0)
(1.00642 0.00261338 0)
(1.01041 0.00373056 0)
(1.00459 0.00185765 0)
(1.00979 0.0062395 0)
(1.00781 0.00596203 0)
(1.00451 0.00471053 0)
(0.0961853 1.36252 0)
(0.0908352 1.32786 0)
(0.129872 1.40162 0)
(0.146727 1.40575 0)
(0.145744 2.59701 0)
(0.185623 2.6667 -4.23334e-19)
(0.10145 2.65271 0)
(0.0851144 2.65547 1.97561e-19)
(0.0382713 2.67826 -1.48788e-19)
(0.0179597 1.31846 0)
(0.0221865 1.24475 0)
(0.0195081 1.32924 0)
(0.0340114 1.26711 0)
(0.00272671 1.98401 2.04061e-21)
(-0.0206853 2.6084 -1.71314e-20)
(-0.00911985 2.66526 1.45891e-20)
(-0.018814 2.68389 0)
(-0.0234466 2.61419 -8.08965e-21)
(-0.0233709 2.60903 1.085e-20)
(0.0116471 1.98254 1.174e-21)
(-0.00769156 2.39653 2.2985e-20)
(-0.0137775 2.41847 -1.65455e-20)
(1.009 0.0382663 1.2119e-18)
(1.0052 0.0162436 -1.50834e-18)
(1.00236 0.0459294 -1.23096e-18)
(0.976412 0.0310069 1.55189e-18)
(1.06414 0.00834789 0)
(1.04929 -0.00830257 0)
(1.09424 0.0349931 0)
(1.07423 0.0128623 0)
(1.07203 0.000481715 0)
(1.14017 0.0827705 0)
(1.1116 0.0443991 0)
(1.11524 0.032289 0)
(-0.0249855 2.43206 1.32926e-21)
(-0.0133061 2.01233 0)
(-0.0148768 2.21591 0)
(-0.0206063 2.6027 -1.0511e-20)
(-0.0177681 2.61258 1.71333e-22)
(0.00334723 1.5706 -3.47714e-20)
(-0.00475131 1.49915 3.54198e-20)
(-0.0142442 1.38848 0)
(-0.0177091 1.39514 0)
(-0.0222061 1.38979 0)
(-0.00330551 1.30866 0)
(0.00763523 1.23622 0)
(0.387413 1.49613 2.76691e-19)
(0.430376 1.49683 1.4527e-19)
(0.597718 2.44592 -2.4005e-19)
(0.39901 2.54318 7.06565e-19)
(0.350665 2.0558 7.10927e-20)
(1.02106 -0.00812449 0)
(1.0155 -0.00975321 0)
(1.01491 -0.0155045 0)
(1.00741 -0.00108995 0)
(1.00493 -0.000914969 0)
(1.00778 -0.00469807 0)
(1.00927 -0.00362237 0)
(1.01422 -0.00438683 0)
(1.02058 0.0162969 1.16943e-18)
(1.01771 0.0155675 -1.4958e-18)
(1.02087 0.0183048 -1.17834e-18)
(1.0185 0.0164488 1.47726e-18)
(0.783906 1.3239 0)
(0.720769 1.3737 2.464e-19)
(0.894936 1.22337 9.70147e-20)
(0.940516 1.16812 -1.29065e-19)
(1.15502 2.60072 2.74637e-19)
(0.772383 0.121717 5.98705e-19)
(1.16323 0.108434 0)
(1.21167 0.193799 -4.68641e-19)
(1.19858 0.154919 -1.99193e-20)
(1.00632 0.155905 0)
(0.130064 2.95914 5.32301e-19)
(0.10662 2.8652 -1.15929e-18)
(0.0157815 2.3742 7.76048e-19)
(0.0934298 -0.132027 -3.3478e-19)
(0.336575 3.41488 -2.15419e-19)
(0.191426 3.30924 0)
(0.23522 3.34996 2.80552e-19)
(0.240654 3.03153 -1.77785e-18)
(0.334063 3.1898 0)
(0.00729815 3.12076 4.6191e-20)
(0.0172479 3.12961 -5.43357e-19)
(0.0156742 3.12569 7.99735e-19)
(0.0350985 3.13956 0)
(0.0332255 3.15041 0)
(1.21107 2.59856 0)
(0.543617 0.809945 -5.27848e-19)
(1.06382 0.991843 -6.90865e-21)
(0.998056 1.07715 0)
(0.851317 0.973522 -1.10154e-19)
(1.0885 0.893021 2.80805e-20)
(0.322161 0.345743 -8.64841e-19)
(0.664036 0.320737 -1.76772e-20)
(0.581239 0.221866 4.10101e-19)
(0.551489 0.340806 3.02616e-20)
(0.444958 0.286126 -1.21618e-18)
(0.626586 0.323415 0)
(0.70535 0.420181 6.99273e-19)
(0.710522 0.422884 0)
(0.588939 0.339495 0)
(0.527075 0.248788 0)
(0.820628 0.621288 4.12919e-19)
(1.23698 0.288676 -4.9066e-19)
(1.23656 0.426951 0)
(1.2452 0.367702 0)
(0.697931 0.195232 6.19467e-19)
(0.869021 0.550121 -3.79175e-19)
(0.766291 0.520181 6.73696e-19)
(0.960773 0.44247 -7.39846e-19)
(1.01929 0.0149225 8.0207e-19)
(1.01762 0.0143332 -8.073e-19)
(1.0159 0.0154068 0)
(1.03644 -0.00563345 0)
(1.02987 -0.00839766 -7.56125e-19)
(1.02791 -0.0119771 7.48607e-19)
(1.02487 0.010422 0)
(1.0234 0.0141495 0)
(1.01142 0.00414332 0)
(1.01421 0.00913384 0)
(1.01515 0.00414514 0)
(1.01426 0.00287487 0)
(0.0636733 1.34575 0)
(0.0680083 1.29551 0)
(0.145967 1.38429 1.3104e-20)
(0.282703 1.47691 9.13357e-20)
(0.176426 1.44818 1.9291e-19)
(0.209668 1.45298 -3.1394e-19)
(0.171877 1.40892 0)
(0.13675 1.60041 -7.02991e-20)
(0.119164 1.57799 0)
(0.347667 2.00618 -1.03368e-19)
(0.343073 2.3413 6.14302e-19)
(0.19414 1.4628 6.12734e-20)
(0.268192 1.39565 2.4291e-20)
(0.202982 1.38689 -1.96617e-20)
(0.279106 1.33891 -1.01175e-19)
(0.244321 1.58111 0)
(0.267935 1.61838 1.1087e-19)
(0.0308578 2.26311 -2.85506e-20)
(0.0433089 2.66758 0)
(0.0664519 2.39949 1.33402e-19)
(0.0629736 2.42036 0)
(0.0693702 2.66915 -2.18933e-19)
(0.0488265 2.69757 0)
(0.0264099 1.42778 3.0468e-20)
(0.0339053 1.47986 0)
(0.0284475 1.39576 0)
(0.0233425 1.39975 -3.43786e-20)
(-0.000152851 2.65153 -1.72783e-20)
(0.0291961 2.69686 1.67011e-19)
(0.00979842 2.72163 1.1793e-21)
(0.00269817 1.83417 -1.41656e-21)
(-0.00306421 1.68672 -2.63424e-21)
(0.0139641 1.29942 0)
(0.0209137 1.22154 0)
(0.0464065 1.58839 -2.72659e-20)
(0.0294894 1.46159 -3.29815e-20)
(0.0360614 1.52647 4.14e-20)
(0.0395948 1.61264 0)
(-0.0295245 2.27051 9.48519e-20)
(-0.030631 2.54966 -3.9954e-20)
(-0.0163155 2.44709 3.75385e-21)
(-0.00365863 1.85056 1.71636e-21)
(-0.0254834 2.4991 1.43128e-21)
(-0.0207641 2.44253 2.81956e-21)
(1.01869 0.0212024 -8.02312e-19)
(1.01427 0.0274583 8.01962e-19)
(1.01352 0.0172189 0)
(1.0114 0.0714242 1.12394e-18)
(0.991415 0.0585884 -1.26252e-18)
(0.949888 0.0537541 1.41053e-18)
(1.01404 0.11251 -1.50158e-19)
(1.04285 -0.00563543 0)
(1.05121 -0.00128418 7.21113e-19)
(1.03912 -0.00980076 -7.22618e-19)
(1.07161 0.0426807 -4.28803e-20)
(1.06479 0.0239868 3.69767e-19)
(1.0634 0.0567201 0)
(1.0537 0.050226 -1.32991e-19)
(1.0326 0.0432775 0)
(1.02547 0.0397347 0)
(1.02782 0.0135083 0)
(1.02385 0.0161538 0)
(1.04013 0.0326918 2.73974e-19)
(1.03916 0.0277343 -6.05822e-19)
(1.05111 0.0344312 -2.90293e-19)
(1.04826 0.03445 -3.19825e-19)
(1.07144 0.0650545 6.23615e-19)
(1.09685 0.0526792 0)
(1.10562 0.0967371 0)
(-0.024953 2.27571 5.37164e-20)
(-0.0233974 2.01788 8.99606e-22)
(-0.0196085 2.02516 0)
(-0.0272212 2.44512 -5.34757e-20)
(-0.0220309 2.40118 -2.16496e-21)
(-0.0324661 2.47288 5.64167e-21)
(-0.0208316 2.62159 -9.83773e-21)
(-0.0232107 2.56331 -3.65703e-23)
(-0.0213928 2.51486 -2.53976e-21)
(-0.0160091 2.61559 9.28242e-21)
(-0.0209413 2.61747 -9.80177e-21)
(-0.00528653 1.49149 -4.97573e-22)
(0.00406076 1.61922 -3.24295e-20)
(0.372566 1.44467 -1.17242e-19)
(0.372003 1.38162 3.44509e-20)
(0.66148 1.42402 -2.38306e-19)
(0.529347 1.48995 -1.42873e-19)
(0.587693 1.45621 0)
(0.59356 2.42282 2.06802e-19)
(0.661803 2.41786 3.3736e-19)
(0.411489 2.51278 8.76437e-20)
(0.402953 2.53727 -6.08854e-19)
(0.510736 2.47866 6.12776e-19)
(0.553401 2.45969 0)
(0.488425 2.51732 -5.59089e-19)
(0.248789 2.59018 1.14321e-18)
(0.355022 2.56206 -7.77581e-20)
(0.284309 2.65186 -1.58574e-18)
(0.947953 2.37553 7.25714e-19)
(0.83825 2.38073 0)
(1.01106 0.000514125 2.62065e-20)
(1.01534 -0.00539138 -2.12607e-20)
(1.01767 -0.00350513 -3.88314e-19)
(1.01502 -0.000863754 3.90359e-19)
(1.01244 0.00122762 0)
(0.647064 1.28876 0)
(0.668992 1.18375 0)
(0.782382 1.10293 0)
(0.661852 1.14694 0)
(1.185 2.61432 5.97705e-20)
(1.07309 2.36149 0)
(0.834878 2.16751 3.81109e-21)
(0.824228 2.43261 0)
(0.922088 2.52604 -4.20645e-19)
(0.957333 2.48216 2.79827e-19)
(0.800393 0.180807 0)
(0.747561 0.154471 1.62467e-19)
(0.911078 0.15096 9.45593e-19)
(0.82653 0.154711 -3.55069e-19)
(0.783298 0.0901858 -1.09132e-18)
(1.08171 0.239734 -8.91849e-19)
(0.999086 0.301498 -1.70642e-20)
(0.929446 0.304825 8.60515e-19)
(1.00781 0.232194 7.20511e-19)
(0.949624 0.197016 -1.25181e-18)
(0.912893 0.201327 1.56534e-19)
(0.952001 0.266654 -3.32141e-19)
(0.928201 0.228026 0)
(0.995372 0.193218 6.17314e-19)
(1.04712 0.193006 0)
(1.04466 0.221058 0)
(1.10713 0.120611 2.89542e-19)
(1.07115 0.179993 -1.49287e-20)
(1.0754 0.239918 -1.576e-19)
(1.10172 0.206142 0)
(1.02332 0.0470415 6.1695e-19)
(1.0394 0.0601535 7.70528e-19)
(1.03435 0.0460454 -6.11891e-19)
(1.04327 0.067424 -5.1638e-19)
(1.02123 0.075671 -7.91421e-19)
(0.98671 0.16037 0)
(0.99328 0.106164 0)
(0.964558 0.0712988 -5.01284e-19)
(0.906711 0.0973834 1.99003e-19)
(1.03968 0.10733 7.14819e-19)
(1.06946 0.124139 -8.35163e-19)
(1.07576 0.15647 7.45783e-19)
(1.03061 0.148713 0)
(1.07524 0.111687 0)
(1.05494 0.0928211 -3.4223e-19)
(1.04346 0.0967471 -5.84031e-19)
(0.578888 1.058 1.38696e-19)
(0.60553 1.38516 -4.0242e-20)
(1.15487 2.73026 -2.25439e-19)
(1.22065 3.07246 1.43376e-21)
(1.24677 2.71318 -1.20296e-19)
(1.27548 2.69657 -3.3774e-20)
(1.20304 2.33686 -1.09437e-20)
(1.20831 2.97632 -9.15478e-20)
(1.22836 2.94174 2.31559e-19)
(1.21086 3.22545 -1.43907e-19)
(1.37071 2.95649 1.98876e-19)
(1.35959 2.87461 0)
(0.559386 0.818466 -5.00893e-20)
(0.114658 1.23074 5.69145e-19)
(0.551601 0.374215 5.6388e-19)
(0.389861 0.12125 6.14811e-19)
(0.486042 0.32638 6.88385e-19)
(0.542641 0.441222 -1.10951e-18)
(0.544902 0.438195 9.07714e-19)
(0.470505 0.332166 -3.44783e-19)
(0.356597 0.261534 7.82517e-19)
(0.717873 0.266943 -3.57455e-19)
(0.678881 0.290374 0)
(0.629373 0.207992 7.17316e-21)
(0.739736 0.505579 3.68197e-19)
(0.715262 0.476455 -1.33995e-18)
(0.619291 0.449417 1.21172e-20)
(0.619957 0.439059 0)
(0.688588 0.719802 3.97008e-19)
(0.849405 0.777546 3.96177e-19)
(0.773672 0.860772 -4.63561e-19)
(0.896392 0.815533 -1.55345e-19)
(0.928076 0.860388 -3.75909e-20)
(0.935151 0.860408 3.84947e-20)
(0.862481 0.656565 -6.83829e-19)
(0.942842 0.710553 1.44274e-19)
(1.00288 0.726528 0)
(0.99372 0.703135 -1.95172e-19)
(1.02848 0.341396 2.1289e-19)
(1.14826 0.304619 2.88589e-19)
(1.06938 0.276898 3.64591e-19)
(1.01729 0.373692 -4.31602e-19)
(1.06577 0.436185 0)
(1.12157 0.419723 0)
(0.923549 0.37664 2.30498e-21)
(0.841293 0.312341 0)
(0.884923 0.30863 4.06293e-19)
(0.911134 0.312937 -7.37601e-21)
(0.954493 0.445518 2.06104e-18)
(0.91449 0.500769 5.31261e-19)
(0.92018 0.467863 -5.65933e-19)
(0.837791 0.453182 6.0675e-19)
(0.820889 0.445519 3.63908e-19)
(0.790602 0.427749 -3.57964e-19)
(1.02736 -0.000250782 6.4682e-19)
(1.01999 5.11935e-05 0)
(1.01852 0.000978833 4.21761e-19)
(1.02172 -0.00156471 -9.55404e-19)
(1.02235 0.00446865 4.64135e-19)
(1.02032 0.0114792 -9.71932e-19)
(1.02123 0.0108464 0)
(1.02048 0.0110639 -2.02574e-19)
(1.01595 0.00782426 5.08204e-19)
(1.01662 0.0106033 -2.53584e-19)
(1.01732 0.00995312 1.8675e-19)
(0.0273728 1.32045 0)
(0.0338058 1.36909 0)
(0.0430761 1.32194 0)
(0.0471637 1.27361 0)
(0.0711417 1.39379 -5.25083e-20)
(0.078027 1.3621 2.28468e-20)
(0.117233 1.53814 -1.1787e-20)
(0.100238 1.38475 -8.09728e-21)
(0.0346726 1.46717 1.56657e-20)
(0.0386547 1.46084 -1.19451e-20)
(0.0624705 1.37865 -8.96042e-21)
(0.054128 1.37964 4.52912e-20)
(0.0472755 1.35439 6.62343e-21)
(0.038331 1.37728 3.38009e-21)
(0.107881 2.36865 -1.47228e-19)
(0.0968101 2.41629 0)
(0.171808 2.04353 1.06961e-19)
(0.113816 1.7098 3.78927e-20)
(0.234502 2.03777 -8.91789e-20)
(0.201744 2.42883 0)
(0.263555 2.3787 -6.03648e-19)
(0.303798 2.37632 4.26716e-19)
(0.231111 1.99882 -2.47057e-19)
(0.156248 2.15781 1.68837e-19)
(0.142463 2.26516 0)
(0.0179709 1.87937 6.46462e-21)
(-0.000528413 2.39353 -3.46515e-20)
(0.00555572 2.15012 0)
(0.0110657 2.45627 -1.35842e-20)
(0.0280003 2.30007 8.43515e-21)
(0.0158602 1.40834 -6.43299e-21)
(0.0145176 1.39273 1.09028e-19)
(0.013793 1.39838 -3.57882e-20)
(0.0207743 1.40047 -3.06023e-20)
(0.0251426 1.43155 0)
(0.00983896 1.38008 0)
(0.0016113 1.29395 -4.32197e-20)
(0.00648932 1.37162 1.21237e-20)
(0.00940986 1.37183 0)
(0.00872522 1.28731 -3.24903e-20)
(0.0175689 1.21263 6.60144e-20)
(1.04076 0.0119923 0)
(1.04692 0.00823455 -6.76576e-20)
(1.03863 0.0220621 -4.88391e-19)
(1.04836 0.0209335 0)
(1.05239 0.0208294 0)
(1.03631 0.0121915 -6.81657e-21)
(1.03096 0.01201 7.84973e-19)
(1.03168 0.0169591 9.5163e-19)
(1.02545 0.0208442 0)
(1.02223 0.0212034 0)
(1.03511 0.0258591 4.87138e-19)
(1.0255 0.0274102 0)
(1.02355 0.0275484 0)
(-0.0185887 2.02231 0)
(0.00107964 1.64967 -4.31083e-21)
(-0.00455207 1.75813 -3.02473e-20)
(0.000301836 1.38189 0)
(-0.00686604 1.54996 -1.7043e-20)
(-0.00803685 1.4594 1.10358e-20)
(-0.00303933 1.39517 0)
(0.390026 1.64777 0)
(0.374916 1.30898 -6.8512e-20)
(0.302522 1.34338 0)
(0.427806 1.30671 3.48807e-21)
(0.477127 1.46754 0)
(0.457701 1.41316 2.63943e-20)
(1.0366 2.67656 -1.53394e-20)
(0.968486 2.40433 -9.12135e-19)
(0.921474 2.1923 1.02355e-18)
(0.852237 2.37262 2.41799e-19)
(0.847977 2.48645 0)
(0.917808 2.48258 0)
(0.93129 2.3691 0)
(0.910226 2.35821 -9.43184e-19)
(0.687552 2.4508 -3.93484e-19)
(0.800511 2.44036 -9.74598e-20)
(0.810858 2.41442 7.4071e-20)
(0.695764 2.39099 0)
(0.800879 2.38618 0)
(0.759102 2.39961 -3.68362e-19)
(0.768012 2.47639 0)
(0.627387 1.09361 0)
(0.48055 0.903925 -5.07785e-19)
(0.564021 0.946256 -3.21726e-20)
(0.519245 1.0367 0)
(0.519533 0.98104 7.60853e-19)
(0.794348 0.883742 -1.30153e-19)
(0.805698 1.0204 0)
(0.780582 0.986864 1.86096e-19)
(0.663031 1.03362 0)
(0.664823 0.936156 0)
(1.16383 2.75312 -2.28699e-19)
(1.14128 2.81647 -9.62341e-20)
(0.929502 2.33154 9.88708e-20)
(0.89737 2.31083 -8.287e-20)
(1.12936 2.7261 0)
(1.08319 2.69561 9.97024e-20)
(1.08933 2.4795 -3.13124e-19)
(0.983879 2.23217 -3.04271e-20)
(0.493191 1.33326 0)
(0.508415 1.06245 -1.22253e-19)
(0.575533 1.16751 0)
(0.854898 0.246701 0)
(0.765558 0.196052 0)
(0.68434 0.1555 0)
(0.845826 0.248462 -6.3951e-19)
(0.738937 0.239136 3.72864e-19)
(0.923125 0.0874011 -4.10772e-19)
(0.930873 0.131446 0)
(0.91689 0.140253 1.77029e-19)
(0.852536 0.118511 7.08373e-19)
(0.816625 0.0788328 -4.44408e-19)
(1.15635 3.35051 -7.20306e-19)
(1.20517 3.26997 0)
(1.1541 3.37933 -1.49087e-18)
(0.642527 3.54069 1.2653e-18)
(0.864625 3.10929 7.40187e-20)
(0.520553 0.808519 6.03076e-19)
(0.424935 0.805214 0)
(0.313085 0.406051 -1.49286e-19)
(0.46866 0.655697 8.56656e-19)
(0.554442 0.377141 -1.98082e-19)
(0.513024 0.472061 2.32161e-19)
(0.671403 0.514412 4.96936e-19)
(0.708932 0.549524 0)
(0.659564 0.581809 0)
(0.622472 0.530768 0)
(1.00443 0.612845 8.96707e-20)
(0.919415 0.550669 -5.17193e-19)
(0.94463 0.582778 3.89998e-19)
(0.97637 0.522163 -3.99907e-19)
(1.08362 0.492894 0)
(1.09209 0.582977 -9.77089e-20)
(0.858335 0.40622 -8.3311e-19)
(0.858013 0.395534 -1.03292e-18)
(0.795136 0.390305 6.49352e-19)
(0.803577 0.367127 -6.60248e-19)
(0.846346 0.330763 -5.20799e-19)
(0.795064 0.331757 6.37507e-19)
(1.02667 0.00602988 -4.9318e-19)
(1.02637 0.00625247 1.00286e-18)
(1.02943 0.000190823 6.26812e-19)
(1.03364 0.00110037 -7.54884e-19)
(1.03377 0.00921842 0)
(1.03004 0.00991586 -1.22919e-18)
(0.063738 1.64466 1.94354e-20)
(0.0479251 1.58737 0)
(0.0885937 1.6951 1.1605e-19)
(0.0987166 1.67708 -1.01677e-19)
(0.0912732 1.54591 2.20892e-20)
(0.0906288 1.53982 0)
(0.0108452 1.68283 0)
(-0.0035793 1.48898 6.42625e-21)
(-0.0020433 1.43495 -5.77963e-21)
(-0.00733675 1.54658 5.40616e-21)
(0.0014678 1.88288 9.64325e-21)
(-0.0104478 1.93592 -1.15856e-21)
(0.497508 1.35963 -2.736e-19)
(0.490974 1.3608 3.00546e-19)
(0.45444 1.30177 -2.94842e-20)
(0.437444 1.28663 7.67704e-21)
(0.639188 1.30693 0)
(0.555607 1.39652 1.0632e-19)
(0.570739 1.40396 -1.03497e-19)
(0.46817 1.28991 2.87073e-20)
(0.521617 1.2408 0)
(0.573262 1.20319 0)
(0.654582 2.41044 5.7803e-19)
(0.669985 2.45173 1.25871e-18)
(0.714443 2.46244 -8.67229e-19)
(0.61072 2.4366 -2.01713e-19)
(0.560599 2.52684 2.83186e-19)
(0.509745 2.50152 -7.55462e-19)
(0.978305 2.37568 -5.72741e-19)
(1.0127 2.3879 0)
(0.925844 2.17022 -6.58895e-19)
(1.05409 2.67465 0)
(1.05637 2.66125 0)
(0.600924 2.26012 -1.22125e-19)
(1.03746 3.15514 1.32506e-19)
(0.908556 3.02556 -3.65779e-20)
(0.267192 0.858958 0)
(0.295863 0.705294 -3.16541e-19)
(0.464452 0.664189 -3.17657e-19)
(0.380641 2.00483 0)
(0.462742 2.77973 -5.15251e-20)
(0.416907 2.54248 0)
(0.710455 0.669699 -8.39296e-19)
(0.793477 0.682718 1.12821e-18)
(0.815071 0.625247 -1.11486e-18)
(0.689385 0.633131 -1.07866e-19)
(0.744104 0.589422 -4.42981e-19)
(1.00102 2.75496 -1.00772e-19)
(1.04141 2.81538 -1.6202e-19)
(0.633197 2.12633 6.87049e-19)
(0.586189 1.694 -4.89756e-19)
(0.694658 1.8918 -4.03632e-19)
(0.987236 2.4386 -1.12924e-19)
(0.993916 2.43171 2.93699e-19)
(0.651547 1.82666 2.8032e-20)
(0.442519 1.31403 1.43228e-19)
)
;

boundaryField
{
    wall-4
    {
        type            noSlip;
    }
    velocity-inlet-5
    {
        type            fixedValue;
        value           uniform (1 0 0);
    }
    velocity-inlet-6
    {
        type            fixedValue;
        value           uniform (0 3 0);
    }
    pressure-outlet-7
    {
        type            zeroGradient;
    }
    wall-8
    {
        type            noSlip;
    }
    frontAndBackPlanes
    {
        type            empty;
    }
}


// ************************************************************************* //
