/*--------------------------------*- C++ -*----------------------------------*\
  =========                 |
  \\      /  F ield         | OpenFOAM: The Open Source CFD Toolbox
   \\    /   O peration     | Website:  https://openfoam.org
    \\  /    A nd           | Version:  13
     \\/     M anipulation  |
\*---------------------------------------------------------------------------*/
FoamFile
{
    format      ascii;
    class       volScalarField;
    location    "36";
    object      p;
}
// * * * * * * * * * * * * * * * * * * * * * * * * * * * * * * * * * * * * * //

dimensions      [0 2 -2 0 0 0 0];

internalField   nonuniform List<scalar> 
918
(
0.631852
1.28467
0.0118222
0.631181
0.00951636
1.2517
-0.425737
0.797378
0.611994
-0.0165901
0.0432126
0.607062
1.11229
0.877921
-1.05231
0.0816733
0.748138
-0.305236
0.611007
0.0443888
0.83299
0.618582
0.621615
0.612202
0.674543
0.858948
0.992989
0.0188106
-0.0102033
-0.00449652
0.0587737
0.0359235
0.0417692
1.13536
1.18643
1.20911
0.580334
0.405757
-0.285994
-0.355797
-0.348223
-0.472486
0.789266
0.791349
-0.0959547
0.798786
0.808361
0.599199
0.611356
0.612242
0.61334
0.612288
0.613683
0.487826
-0.0216945
-0.0544031
0.00345877
0.0149908
0.142548
0.0465511
0.0450748
0.045739
0.05105
0.531318
0.602922
0.600116
0.61214
0.620414
1.22422
1.19615
1.22228
1.13591
1.15243
1.09029
1.06285
0.899046
0.920523
0.862347
0.85083
-1.49042
-2.45352
-0.456035
-0.20165
-0.0123979
0.0812753
0.0908086
0.739167
0.737811
0.749558
0.761758
1.15816
-0.300424
-0.422563
0.61113
0.609926
0.618323
0.619018
0.615031
0.614126
0.0501707
0.054954
0.0282592
0.0412691
0.0413362
0.822303
0.820636
0.612745
0.609765
0.627715
0.648465
0.640345
0.363592
0.678532
0.690847
0.680423
0.847971
0.842778
0.851415
0.966567
0.929294
1.03027
1.0536
-0.00710102
-0.00679854
0.0625545
0.057569
0.0743544
0.576281
0.569041
0.595168
0.58369
0.586108
0.321449
0.186473
0.49134
0.516541
-0.197096
-0.258853
-0.359397
-0.378904
-0.493794
0.680999
0.779828
0.779433
-0.116332
-0.03827
-0.172208
0.0346811
-0.0251703
0.589615
0.596521
0.591579
0.606958
0.601463
0.60341
0.615584
0.612658
0.61422
0.551275
0.675469
0.414066
0.379634
-0.165705
-0.0739397
-0.167911
0.026966
0.0318733
0.154963
0.182121
0.132373
0.120236
0.0383026
0.0453418
0.0424856
0.0577397
0.056715
0.52451
0.513989
0.54358
0.550878
0.593265
0.594369
0.597571
0.596132
1.01372
1.03608
1.04353
1.01733
-3.45539
-6.25964
0.127932
0.267194
-0.0169181
-0.00266405
-0.0156263
0.0484092
0.00718123
0.00701817
0.0940998
0.091467
0.0917321
0.0925921
0.723884
0.723116
1.07595
1.07491
1.05872
1.00767
0.599197
0.601323
0.606898
0.602736
0.0561292
0.056418
0.0598587
0.808775
0.816277
0.815238
0.32689
0.240703
0.412372
0.439896
0.710268
0.695043
0.707834
0.74204
0.777678
1.06103
1.0792
1.07753
1.08586
1.12993
1.14637
1.11162
0.556438
0.566015
0.56118
0.598359
0.596061
0.597001
0.59252
0.593978
0.591765
0.034357
-0.349337
0.569518
0.586741
0.565329
0.572495
0.759893
0.834977
0.761774
0.771297
0.770039
0.100188
0.0436049
0.338149
0.3038
0.466778
0.501629
0.481549
0.984809
0.945335
0.995299
0.968842
0.930176
0.956199
-0.300969
-1.81524
-0.92591
0.62246
0.433672
0.522191
0.106976
0.0956157
0.102934
1.06948
1.1484
0.732005
0.898672
0.908002
0.816506
0.847852
0.902197
0.826418
0.86203
0.898238
0.88047
0.637207
0.582616
0.592575
0.903908
0.95928
0.214685
0.160136
0.115785
0.201562
0.255682
0.229971
1.1129
1.01547
1.08693
0.609514
0.610209
0.00393388
0.0374459
0.614346
0.614395
0.047999
0.07397
0.50478
-0.762268
0.203777
0.602831
0.593071
0.610005
0.00203183
0.445206
0.042722
0.142946
0.0959787
0.604696
0.541639
0.502593
0.0561013
0.0674997
0.0496412
-0.127855
0.607186
0.605496
0.609465
0.610449
0.611107
0.0485554
0.0279188
0.0170872
0.0480681
0.0450139
0.043107
0.574718
0.591968
-0.0818123
0.609587
0.611714
0.611527
0.604692
0.61039
0.60859
0.0690432
0.0742274
0.0599542
0.311329
0.432764
0.75188
0.846772
0.717921
0.490838
0.251772
0.651468
0.717243
0.619478
0.777964
0.772752
0.791692
0.26717
0.119939
0.275422
0.217126
0.600697
0.599343
0.591312
0.588417
0.60485
0.602958
0.607513
0.604471
0.607458
0.608863
0.0394479
0.0175459
0.00422567
-0.0586121
0.401446
0.66255
0.33955
0.370932
0.231
0.0511406
0.0506817
0.0430253
0.0407523
0.0915682
0.0806875
0.137047
0.141356
0.116425
0.0952674
0.0848927
0.0796833
0.0744969
0.598323
0.596776
0.603051
0.611741
0.550964
0.554744
0.521036
0.540735
0.526902
0.467595
0.502039
0.477672
0.055633
0.063554
0.0372565
0.073992
0.0856133
0.0640051
0.0608986
0.0540567
0.055968
0.0544699
0.0601156
0.060283
-0.0862716
-0.198948
1.06326
0.999681
0.20586
0.596376
0.6028
0.599584
0.604389
0.607504
0.608344
0.606103
0.602685
0.59252
0.594294
0.590731
0.591424
-0.0199832
-0.15699
0.0170112
-0.0512036
0.215578
0.703379
0.445379
0.385308
0.379757
0.60187
1.00353
0.798529
0.792362
0.814558
-0.266484
0.13039
-0.19943
0.419823
0.24146
0.750195
0.800626
0.823095
0.770035
0.721503
-0.0358563
0.624871
0.0277986
0.0735636
0.267294
0.157891
0.793339
0.756067
0.761851
0.779727
0.799123
0.761628
0.742184
0.737736
0.775347
0.778888
0.577957
0.344294
0.299324
0.260111
0.739232
0.618532
0.675797
0.587896
0.595632
0.598418
0.596996
0.579394
0.586731
0.582442
0.588248
0.591502
0.600601
0.600953
0.596351
0.598543
0.0382272
0.0372071
0.05485
-0.0523483
-0.0413291
-0.101219
0.0163358
0.155799
0.118664
0.314107
0.42018
0.133204
0.0170801
0.0462345
0.0798888
0.259027
0.28357
0.160073
0.250735
0.235146
0.221548
0.325074
0.332328
0.0680589
0.0594513
0.0599729
0.058728
0.113137
0.180933
0.193266
0.092096
0.0838169
0.0532177
0.0566705
0.0651825
0.0630173
0.0643464
0.101656
0.0238948
0.0709703
0.0917788
0.0961077
0.0904049
0.084515
0.591384
0.593348
0.59313
0.600953
0.617604
0.633034
0.592214
0.572719
0.563654
0.566635
0.540239
0.550162
0.546131
0.559232
0.579516
0.588373
0.586462
0.589019
0.572332
0.573725
0.560843
0.564712
0.540736
0.522481
0.510895
0.0543508
0.0570137
0.072901
0.0384811
0.0735717
0.0788417
0.096113
0.108974
0.0922554
0.0902792
0.0869454
0.0713313
0.0748249
0.00649235
0.0852178
-0.102265
-0.134363
-0.203467
0.967303
1.08759
0.891516
0.667541
0.680996
0.919854
1.00569
0.629619
0.814266
0.837557
0.65362
0.91976
0.601205
0.600798
0.598394
0.597883
0.599121
0.0691806
0.170282
0.178914
0.233285
0.347584
0.460699
0.386255
0.263224
0.396267
0.400544
0.698714
0.714115
0.662893
0.686118
0.683822
0.511427
0.589899
0.64465
0.59716
0.643794
0.666381
0.626925
0.657548
0.603107
0.559157
0.557245
0.505005
0.526087
0.504176
0.48598
0.590841
0.568636
0.578901
0.56999
0.589339
0.61451
0.610369
0.63956
0.650568
0.573903
0.533058
0.542852
0.571631
0.532286
0.545918
0.561621
0.298598
0.197818
0.282305
-0.00944171
0.0714657
0.0563063
0.00923089
0.0547203
0.340635
-0.357582
-0.330354
-0.963096
0.564176
1.03417
0.74664
0.719226
0.794904
0.773701
0.776638
0.799622
0.806404
0.728782
0.747207
0.750476
0.708027
0.73128
0.754558
0.751991
0.598595
0.472311
0.464131
0.423087
0.297129
0.331255
0.533643
0.456237
0.382251
0.385224
0.547936
0.436268
0.502613
0.541282
0.472916
0.428016
0.632146
0.698356
0.688398
0.663313
0.579866
0.593494
0.618538
0.654516
0.681615
0.713804
0.588046
0.593847
0.595123
0.592583
0.58982
0.592734
0.592836
0.595351
0.596194
0.599107
0.598095
0.0473742
0.0590458
0.0477173
0.0395073
0.0640501
0.0593364
0.105072
0.0922032
0.0786989
0.0852522
0.058141
0.0549132
0.0604302
0.0693573
0.178566
0.19325
0.179793
0.139695
0.326332
0.458614
0.528463
0.405293
0.298986
0.324034
0.346876
0.0737388
0.103124
0.0884777
0.128471
0.119096
0.0641546
0.0578911
0.0606392
0.0654902
0.078137
0.0602248
0.0684961
0.0773026
0.0661167
0.0587225
0.0565424
0.574821
0.56838
0.569523
0.563767
0.562781
0.576226
0.580593
0.582351
0.587685
0.589649
0.580254
0.585649
0.589194
0.092796
0.0735215
0.0691682
0.0784702
0.0783809
0.0797637
0.0777372
0.198092
0.125093
0.130799
0.0856731
-0.0404049
0.0163536
0.561014
0.558382
0.555573
0.790054
0.641103
0.559993
0.655898
0.762295
0.347511
0.545748
0.379244
0.959327
0.85247
0.998213
0.615564
0.31226
0.466654
0.517088
0.326178
0.398513
0.403878
0.292991
0.324624
0.356424
0.457074
0.335047
0.30943
0.0678771
0.256226
0.372261
0.353393
0.480827
0.543202
0.332822
0.252275
0.207712
0.690737
0.709933
0.729718
0.69988
0.72438
0.650099
0.640207
0.658175
0.666051
0.661653
-0.691552
-0.399736
-1.34344
-0.658713
-0.20942
0.593506
0.557108
0.836253
0.723674
0.787927
0.773142
0.732655
0.698997
0.710858
0.743262
0.441148
0.552189
0.526273
0.53241
0.433805
0.366967
0.667106
0.661217
0.697188
0.721279
0.68883
0.72192
0.585793
0.585411
0.585101
0.581531
0.579885
0.582034
0.141975
0.112407
0.145553
0.128074
0.105481
0.0937861
0.0886077
0.0820554
0.0767479
0.0758313
0.0858021
0.0853211
0.239111
0.181077
0.10393
0.134903
0.0732989
0.00708728
-0.0114295
0.0892036
0.181923
0.171991
0.478155
0.72901
0.550383
0.718608
0.558487
0.613954
0.545747
0.537173
0.564955
0.450827
0.530909
0.29288
-0.209703
-0.118594
0.850953
0.869507
0.650813
0.464772
0.23613
0.425185
0.624759
0.560652
0.599089
0.668062
0.660241
0.079635
0.147016
0.405524
0.633412
0.302878
0.294673
0.289576
0.463422
0.388399
)
;

boundaryField
{
    wall-4
    {
        type            zeroGradient;
    }
    velocity-inlet-5
    {
        type            zeroGradient;
    }
    velocity-inlet-6
    {
        type            zeroGradient;
    }
    pressure-outlet-7
    {
        type            fixedValue;
        value           uniform 0;
    }
    wall-8
    {
        type            zeroGradient;
    }
    frontAndBackPlanes
    {
        type            empty;
    }
}


// ************************************************************************* //
