/*--------------------------------*- C++ -*----------------------------------*\
  =========                 |
  \\      /  F ield         | OpenFOAM: The Open Source CFD Toolbox
   \\    /   O peration     | Website:  https://openfoam.org
    \\  /    A nd           | Version:  13
     \\/     M anipulation  |
\*---------------------------------------------------------------------------*/
FoamFile
{
    format      ascii;
    class       volVectorField;
    location    "36";
    object      U;
}
// * * * * * * * * * * * * * * * * * * * * * * * * * * * * * * * * * * * * * //

dimensions      [0 1 -1 0 0 0 0];

internalField   nonuniform List<vector> 
918
(
(0.985164 -0.000499461 0)
(0.00501051 2.96625 0)
(-0.0161232 0.806304 0)
(0.979702 0.00214941 0)
(-0.0898727 1.76853 -3.31406e-20)
(-0.00704411 2.94879 -2.68489e-18)
(0.83066 1.17346 3.74711e-19)
(0.309883 0.142031 -1.77073e-20)
(0.999908 -0.000285116 0)
(0.051626 0.828562 0)
(0.00380522 0.636159 0)
(0.734583 -0.0123297 0)
(0.0111379 2.93033 0)
(0.00234042 2.79517 0)
(-0.0176489 3.15678 7.10685e-19)
(-0.0120186 1.84341 -7.6563e-20)
(0.381927 0.0428741 1.168e-18)
(0.190474 1.18262 2.40944e-19)
(0.962787 0.00501942 0)
(0.00124874 0.62617 0)
(0.0733828 0.188376 -8.34695e-19)
(1.00198 -0.0049821 0)
(1.00022 -0.00979519 0)
(0.975721 -0.00644384 0)
(0.585668 -0.0367118 0)
(0.0162953 2.63812 0)
(-0.0149521 2.91007 1.00255e-18)
(-0.014387 0.828369 0)
(-0.048918 0.998541 0)
(-0.0129582 0.805702 0)
(-0.133983 2.56871 0)
(-0.0945519 1.93124 2.63162e-20)
(-0.050659 1.71683 0)
(-0.020602 2.9876 -9.71604e-23)
(-0.0166893 3.00529 2.08663e-18)
(0.00210194 3.00018 0)
(0.870602 -0.00944713 0)
(0.403149 0.936454 2.26778e-19)
(0.811091 1.19004 -3.63758e-19)
(0.95847 1.02861 4.34082e-19)
(0.681001 1.28332 -8.591e-20)
(0.679843 1.2683 5.04446e-19)
(0.351698 0.227916 1.7275e-20)
(0.325192 0.112382 0)
(1.13351 0.5524 0)
(0.317229 0.223387 7.89393e-20)
(0.280065 0.150676 -8.19172e-20)
(0.919721 -0.00745947 0)
(1.00027 0.000141295 0)
(0.999909 0.000328917 0)
(1.00363 -0.00777638 0)
(1.00096 -0.000931707 0)
(1.00017 2.84744e-05 0)
(0.080629 1.80417 -9.3435e-19)
(0.0331851 1 0)
(0.086829 0.895516 0)
(0.0136368 0.954877 0)
(0.0361488 0.767129 0)
(0.0231807 2.00074 0)
(0.0118078 0.812876 0)
(0.0240765 0.654218 0)
(-0.00371658 0.805524 0)
(-0.00777332 0.633558 0)
(0.83712 -0.0156049 0)
(0.849514 0.0280007 0)
(0.767996 -0.00235366 0)
(0.821765 0.0372683 0)
(0.702976 -0.0177791 0)
(0.0146895 3.00041 9.98304e-19)
(0.0115003 3.00804 0)
(0.00611087 3.00277 0)
(0.0135516 2.99737 1.13742e-23)
(0.00796637 2.95846 -1.48373e-18)
(0.0144984 2.98201 0)
(0.0108643 2.90357 0)
(0.0244146 2.93051 2.34046e-24)
(0.00452486 2.82529 0)
(0.0311103 2.9163 0)
(-0.00525642 2.74513 0)
(0.308605 3.55381 0)
(-0.131869 3.63538 0)
(0.13965 3.24726 -6.61374e-19)
(-0.0126575 2.9826 0)
(-0.0992032 2.2794 0)
(-0.0269171 2.07721 7.55064e-20)
(0.0164966 1.8979 -8.33674e-20)
(0.472766 0.145631 -4.04163e-19)
(0.379523 0.0239171 -3.89988e-19)
(0.457637 0.168244 -1.21716e-18)
(0.36704 0.0627814 -8.02336e-19)
(0.219041 0.947132 0)
(0.272779 1.32345 -3.10398e-19)
(0.376551 1.26813 5.24143e-19)
(0.987496 0.00856637 0)
(0.941944 0.00588274 0)
(1.0003 0.000578427 0)
(1.00286 0.0093053 0)
(1.00302 0.00846266 -3.12393e-18)
(0.991915 0.00969521 2.35913e-18)
(-0.00242226 0.790109 0)
(-0.00885225 0.634228 0)
(0.0211703 0.854903 0)
(-0.0207993 0.791644 0)
(-0.000307931 0.629621 0)
(0.115557 0.194572 2.58044e-19)
(0.171886 0.172063 0)
(0.993536 -0.00838231 0)
(0.954405 -0.00652257 0)
(0.773399 0.0456928 0)
(0.710016 0.0561331 0)
(0.661921 -0.0301039 0)
(0.955478 -0.0106978 0)
(0.625961 0.0721197 0)
(0.45282 -0.0165322 1.70921e-18)
(-0.0365393 2.8635 7.84207e-19)
(0.0416586 2.90952 0)
(0.0547686 2.88495 0)
(-0.00457462 2.69926 0)
(-0.0130523 2.9852 9.5545e-19)
(-0.0180066 2.89518 0)
(-0.0154135 2.98806 -2.94977e-18)
(-0.0132973 2.9252 1.00804e-18)
(0.0297761 1.22992 0)
(-0.0125213 1.31087 0)
(-0.0249042 2.05038 -1.83151e-21)
(-0.0647097 1.97757 0)
(-0.0385419 1.7906 0)
(0.93782 -0.00771831 0)
(0.856143 -0.00937093 0)
(0.863499 0.00648814 0)
(0.949079 -0.00797372 0)
(0.883555 -0.00819531 0)
(0.515357 1.13038 -2.83955e-19)
(0.564938 1.18235 0)
(0.367025 0.880192 4.01524e-20)
(0.30936 0.739458 0)
(0.917807 1.06681 -1.145e-19)
(1.0282 0.868423 2.23952e-19)
(0.371305 1.37501 0)
(0.534312 1.34533 0)
(0.545563 1.29843 0)
(0.113253 0.181946 -3.34045e-19)
(0.385849 0.214953 0)
(0.351781 0.106046 2.26279e-19)
(0.998607 0.923426 0)
(1.06268 0.771472 0)
(1.08772 0.712254 -1.51248e-19)
(1.11372 0.613255 0)
(1.15796 0.396947 5.44178e-20)
(0.957439 -0.00883064 0)
(0.962334 -0.0101327 0)
(0.901428 -0.00796704 0)
(0.984164 -0.00918073 0)
(0.974626 -0.00941218 0)
(0.937036 -0.00636641 0)
(1.00018 0.00233858 0)
(1.00091 0.00139102 0)
(0.999913 0.000854328 0)
(0.033556 2.06046 5.11101e-19)
(0.121324 1.74581 0)
(0.0124537 2.17531 8.21398e-19)
(0.056682 1.8622 -7.09082e-19)
(0.105055 1.18735 -1.95812e-19)
(0.0461832 1.07432 0)
(0.141319 1.04225 0)
(0.0104559 0.906523 0)
(0.0184026 0.727993 0)
(-0.00562393 2.21739 -2.06608e-21)
(0.0302542 1.98822 0)
(-0.00657904 2.19401 -1.10015e-19)
(0.0291573 1.99999 2.08475e-19)
(0.00873677 0.868864 0)
(0.0138835 0.838233 0)
(0.02293 0.690922 0)
(-0.00237105 0.805826 0)
(-0.0136467 0.629552 0)
(0.934787 0.00885698 0)
(0.84398 -0.0147152 0)
(0.925129 -0.000440777 0)
(0.839556 -0.0126543 0)
(0.812455 0.00190074 0)
(0.902237 0.0194975 0)
(0.879219 0.0237051 0)
(0.789283 2.58451e-05 0)
(0.00562531 3.0647 -9.43652e-21)
(0.0165695 3.05786 0)
(0.0146294 2.96906 0)
(0.008572 2.87625 0)
(0.925597 3.97051 0)
(1.24023 3.30262 9.17926e-19)
(0.0700352 3.07485 0)
(-0.0284215 2.90604 0)
(0.0986452 1.48303 0)
(0.0183156 1.96429 0)
(-0.0271452 1.78006 0)
(-0.096468 2.51711 3.87751e-20)
(-0.0860613 2.4085 0)
(-0.142793 2.48815 0)
(0.0206656 1.97434 1.82759e-21)
(-0.0146247 2.11886 8.10571e-20)
(-0.0230694 2.09319 8.50028e-20)
(0.020935 1.94374 0)
(0.498483 0.120466 6.06509e-19)
(0.396843 0.00436488 -5.95882e-19)
(0.260761 1.57146 0)
(0.26749 0.723059 -3.36369e-19)
(0.177502 1.65622 -1.13481e-18)
(0.226952 1.19059 1.13773e-18)
(0.902275 0.00654859 0)
(0.967527 0.0110024 0)
(0.97462 0.0107665 0)
(0.92346 0.00651456 0)
(-0.0147491 0.813112 0)
(-0.00475542 0.803203 0)
(-0.00816292 0.634662 0)
(0.272037 0.220659 7.27141e-19)
(0.224752 0.205183 -8.60166e-19)
(0.235525 0.164116 0)
(1.07669 0.0806085 3.6046e-20)
(1.05809 0.0356483 0)
(0.998973 0.0370632 0)
(0.896796 -0.0085471 0)
(0.524149 0.0961933 0)
(0.559366 0.0764744 -2.73441e-18)
(0.418449 -0.00269469 1.02524e-18)
(0.00911332 2.98086 8.23929e-19)
(-0.0331198 2.86572 4.60806e-20)
(0.00369831 3.05023 -1.98897e-20)
(0.020136 3.0434 7.06457e-19)
(-0.0149946 2.99656 3.30151e-20)
(-0.0129826 2.94947 -1.32648e-22)
(-0.0172807 3.01194 -6.07456e-19)
(0.0148908 3.02375 4.39739e-19)
(0.00738799 3.03686 -6.99532e-19)
(0.932351 -0.001905 0)
(0.938391 -0.00389345 0)
(0.843988 -0.00886135 0)
(0.956763 0.0116707 0)
(0.943142 0.0128694 0)
(0.881844 0.0061783 0)
(0.918394 0.0160601 0)
(0.926737 0.0145727 0)
(0.838835 0.0042076 0)
(0.719109 1.40986 -1.83802e-20)
(0.752903 1.51933 0)
(0.189295 0.327377 8.18218e-20)
(0.216654 0.654892 6.60031e-19)
(0.258739 0.716823 -3.81832e-19)
(0.265769 0.534971 7.61081e-19)
(0.331469 0.78364 1.74462e-18)
(0.130952 0.220294 4.01221e-19)
(0.432273 0.189493 8.51193e-19)
(0.410176 0.206013 2.21176e-19)
(0.363255 0.0876266 4.22536e-19)
(1.14787 0.455435 -3.00482e-20)
(1.15951 0.249953 -3.90206e-20)
(0.00250305 2.21788 3.33601e-19)
(0.0533386 1.92321 0)
(0.962594 0.0273906 0)
(0.938011 0.0126982 0)
(0.861179 -0.0185873 0)
(0.0112953 3.07455 0)
(0.0198093 2.94404 1.31039e-18)
(0.0164557 2.95642 0)
(0.00623413 2.85065 -1.30013e-18)
(0.00615734 3.09098 3.19593e-19)
(0.00719939 3.08236 0)
(0.786048 1.8224 -1.44538e-19)
(1.24788 2.5014 3.59081e-19)
(0.768315 1.96245 -1.19166e-18)
(0.0203596 2.98215 -7.24222e-19)
(0.0359082 3.00249 0)
(-0.0335354 2.87928 0)
(-0.0082287 2.17326 -7.17757e-21)
(-0.00961701 2.14782 -1.7069e-19)
(0.0226722 1.99123 -4.95627e-21)
(0.274378 1.37783 1.09594e-18)
(0.223195 0.508863 -7.51305e-19)
(0.0624787 1.98527 8.51371e-19)
(0.137301 1.87466 -1.0003e-18)
(0.179505 1.48499 9.09171e-20)
(0.00194887 3.11913 -2.01339e-18)
(0.0140112 3.11874 2.17372e-18)
(-0.00885607 2.98123 8.87685e-19)
(-0.00388908 2.97764 -8.47201e-19)
(-0.0211195 2.88129 -9.04087e-19)
(0.00865604 3.10023 -2.38541e-18)
(0.00235216 3.10519 2.34668e-18)
(0.272981 0.68026 0)
(0.235367 0.669347 -1.36245e-18)
(0.0967921 0.221627 6.02856e-19)
(0.346825 0.90877 1.19251e-18)
(0.186006 0.264 -1.84019e-18)
(1.1559 0.169017 1.01993e-19)
(1.16157 0.304306 0)
(1.14229 0.117656 -5.14142e-20)
(-0.00211784 2.22825 -2.74489e-21)
(-0.00125893 2.22947 0)
(0.0359241 1.9626 0)
(0.338312 1.28635 -3.95126e-19)
(0.365495 1.11885 -8.52007e-19)
(0.199333 0.359932 1.5215e-18)
(1.00587 -0.0108711 0)
(1.00766 -0.00765501 5.7705e-19)
(0.0550069 1.23249 0)
(0.0127423 1.10933 0)
(1.00222 0.00350209 1.80507e-21)
(1.00365 0.00943035 1.17688e-18)
(-0.0849027 2.52784 -4.95907e-20)
(-0.0651866 2.54333 0)
(0.0361556 3.17933 5.01567e-19)
(0.395872 3.49257 0)
(1.14048 0.652728 -1.0242e-19)
(1.01291 0.013072 -2.13119e-21)
(1.02122 -0.0104225 0)
(1.00168 9.50906e-05 6.52952e-23)
(0.0981901 1.35284 0)
(0.148973 2.58196 0)
(0.0166772 1.30265 0)
(-0.000987749 2.63069 1.12056e-19)
(-0.0254503 2.58272 8.20747e-20)
(1.0027 0.0273997 2.47329e-21)
(1.06145 0.00333049 0)
(1.09438 0.0222519 0)
(-0.0118982 1.90798 0)
(-0.0315134 2.57292 0)
(0.0356831 1.2492 0)
(0.288525 1.46675 -9.38597e-20)
(1.01125 -0.00965841 0)
(1.00939 -0.0149371 0)
(1.00233 0.00068782 7.36848e-19)
(1.00547 -0.00484762 -8.66684e-19)
(1.00119 -0.000993115 0)
(0.0917518 1.60864 0)
(0.0871309 1.33749 0)
(0.0572549 1.51274 0)
(0.0353998 1.22671 0)
(0.0270684 1.1392 0)
(-0.0006223 1.09065 0)
(1.0343 -0.00652765 0)
(1.02074 0.0157031 -9.25014e-22)
(0.796867 1.26405 1.84849e-19)
(1.00228 0.000245127 -7.36404e-19)
(1.00406 0.0052397 8.59296e-19)
(1.00118 0.00205805 0)
(1.01286 0.0102603 7.3185e-19)
(1.00803 0.00826985 -8.84977e-19)
(1.0086 0.0146652 0)
(-0.0444098 2.59154 0)
(-0.055704 2.55882 7.73356e-20)
(-0.0469823 2.57535 -5.3287e-20)
(1.2189 0.253024 7.79664e-19)
(1.1537 0.0792508 0)
(0.0448537 3.07735 -1.05913e-18)
(0.06582 2.85338 -7.65448e-20)
(0.142279 3.19355 1.59992e-18)
(0.136918 3.22251 -2.59703e-19)
(0.135448 3.23523 0)
(0.0204808 3.13786 2.77925e-19)
(0.0770686 3.16049 1.04651e-18)
(0.0695525 3.18686 -5.22587e-19)
(0.0234274 3.12926 0)
(0.653022 0.301128 0)
(0.575093 0.346524 0)
(1.11 0.685504 2.70575e-19)
(1.10587 0.813997 -2.98216e-19)
(1.16886 0.572172 0)
(1.19867 0.511278 0)
(1.01617 0.0132933 -1.36542e-18)
(1.015 0.0142633 1.71409e-18)
(1.02515 -0.0100148 0)
(1.02318 -0.0120065 0)
(1.00648 0.00257279 0)
(1.01042 0.00367311 0)
(1.00462 0.00182293 0)
(1.00986 0.00615423 0)
(1.0078 0.00598083 0)
(1.00452 0.00459577 0)
(0.0878017 1.34931 0)
(0.080193 1.32395 0)
(0.118837 1.38562 0)
(0.128455 1.39905 0)
(0.146557 2.60606 0)
(0.187091 2.67175 -4.90693e-19)
(0.099873 2.6637 0)
(0.08856 2.66651 2.65122e-19)
(0.0385936 2.68766 -2.63361e-19)
(0.0363102 1.31419 0)
(0.0118625 1.23815 0)
(0.0341415 1.3237 0)
(0.0377191 1.267 0)
(-0.00417023 1.98939 -7.00514e-20)
(-0.0266747 2.61079 7.31354e-20)
(-0.0138614 2.67343 1.16133e-19)
(-0.0216796 2.68418 0)
(-0.03021 2.61466 -1.94473e-19)
(-0.0285671 2.60687 -1.19897e-19)
(0.00620233 1.98934 5.3873e-20)
(-0.0179958 2.41357 -9.80952e-20)
(-0.0203482 2.43102 -1.31681e-19)
(1.01153 0.0355854 1.38684e-18)
(1.00799 0.0167112 -1.71789e-18)
(1.00405 0.0417137 -1.39139e-18)
(0.982673 0.0217647 1.76871e-18)
(1.06256 0.00706606 0)
(1.04802 -0.00904598 0)
(1.09103 0.0327217 0)
(1.07224 0.0112283 0)
(1.06987 -0.00146136 0)
(1.13575 0.0757058 0)
(1.10748 0.0406267 0)
(1.10996 0.0284423 0)
(-0.104482 2.46447 -1.08319e-20)
(0.00866173 2.16596 0)
(-0.0703366 2.33997 0)
(-0.0369924 2.59178 4.28109e-20)
(-0.0294555 2.60144 -1.99563e-21)
(0.0473412 1.68948 7.16158e-20)
(0.0439922 1.61146 -7.27817e-20)
(0.0500594 1.41169 0)
(0.050619 1.41974 0)
(0.0574152 1.42226 0)
(0.0407033 1.27415 0)
(0.0239681 1.15586 0)
(0.378229 1.48154 1.28481e-19)
(0.416645 1.48721 9.7033e-20)
(0.59673 2.45031 -2.56209e-19)
(0.403454 2.54572 7.64001e-19)
(0.354957 2.06918 9.83235e-20)
(1.02094 -0.00825295 0)
(1.01544 -0.00982157 0)
(1.01487 -0.0155479 0)
(1.00747 -0.00121648 0)
(1.0049 -0.000973785 0)
(1.00776 -0.00477503 0)
(1.00924 -0.00374453 0)
(1.01414 -0.00453282 0)
(1.02143 0.0159618 1.33823e-18)
(1.01813 0.0157561 -1.71579e-18)
(1.02191 0.0179186 -1.34749e-18)
(1.01977 0.0165571 1.69068e-18)
(0.764424 1.31219 0)
(0.699624 1.36557 1.49787e-19)
(0.872601 1.2094 1.88329e-20)
(0.914931 1.16382 -2.5048e-20)
(1.15585 2.60816 4.51408e-19)
(0.809513 0.100545 6.72058e-19)
(1.15554 0.0978562 0)
(1.1988 0.180655 -6.26168e-19)
(1.18256 0.145243 -2.64765e-20)
(1.0047 0.141823 0)
(0.137627 2.96192 6.40039e-19)
(0.114639 2.86763 -1.33427e-18)
(0.0258088 2.37071 8.99911e-19)
(0.0924599 -0.00474549 -4.06231e-19)
(0.340588 3.42142 -1.60231e-19)
(0.194599 3.31396 0)
(0.237505 3.35625 2.08674e-19)
(0.246529 3.03508 -2.05251e-18)
(0.341325 3.19433 0)
(0.00736864 3.1208 5.30241e-20)
(0.0168872 3.12979 -6.19538e-19)
(0.0155461 3.12581 9.11864e-19)
(0.0363102 3.13979 0)
(0.0347457 3.15083 0)
(1.21488 2.60803 0)
(0.532375 0.840199 -5.92166e-19)
(1.03516 0.988727 5.89102e-20)
(0.971873 1.06367 0)
(0.819651 0.964328 -1.52735e-19)
(1.05818 0.877692 2.93316e-20)
(0.369384 0.405122 -1.0428e-18)
(0.699069 0.323778 -2.26202e-20)
(0.668643 0.242363 4.7951e-19)
(0.591354 0.37996 3.53485e-20)
(0.508614 0.355491 -1.42272e-18)
(0.667884 0.342066 0)
(0.702756 0.427343 8.14304e-19)
(0.710137 0.424022 0)
(0.626677 0.369604 0)
(0.602768 0.29569 0)
(0.79369 0.616246 4.96011e-19)
(1.21601 0.276139 -6.59272e-19)
(1.20974 0.41568 0)
(1.2216 0.358335 0)
(0.750982 0.190072 7.1456e-19)
(0.839926 0.535901 -4.47009e-19)
(0.742505 0.510673 7.94318e-19)
(0.943056 0.422655 -8.87048e-19)
(1.01982 0.0145908 9.20196e-19)
(1.0179 0.0141832 -9.25086e-19)
(1.01595 0.015586 0)
(1.03578 -0.00615009 0)
(1.0295 -0.00865487 -8.69908e-19)
(1.02747 -0.0121858 8.61466e-19)
(1.02514 0.00957697 0)
(1.0237 0.0132345 0)
(1.01141 0.00402569 0)
(1.0143 0.00894685 0)
(1.0151 0.00392694 0)
(1.0142 0.00272922 0)
(0.0586201 1.33267 0)
(0.0621166 1.2942 0)
(0.145528 1.35597 -8.01266e-20)
(0.266242 1.46387 4.27228e-20)
(0.157558 1.43455 8.46084e-20)
(0.187721 1.44295 -1.4094e-19)
(0.160127 1.38066 0)
(0.129873 1.58955 -1.59705e-19)
(0.115542 1.55982 0)
(0.354587 2.02286 -1.42922e-19)
(0.348634 2.35554 7.16771e-19)
(0.185842 1.44311 1.39235e-19)
(0.260933 1.3769 -1.557e-20)
(0.198947 1.36153 1.26382e-20)
(0.273038 1.31793 -1.93463e-19)
(0.242392 1.57415 0)
(0.261377 1.6156 1.82252e-19)
(0.0317363 2.27499 -6.7052e-20)
(0.0411156 2.67832 0)
(0.0643946 2.41242 2.199e-19)
(0.0577057 2.43432 0)
(0.0699876 2.67947 -2.93263e-19)
(0.0500623 2.70687 0)
(0.0240318 1.40623 -6.37287e-20)
(0.0327637 1.45787 0)
(0.0327299 1.37455 0)
(0.0230531 1.37897 7.19069e-20)
(-0.00347089 2.65973 -2.00368e-20)
(0.0276242 2.70563 3.08557e-19)
(0.00873513 2.72815 2.18826e-21)
(-0.00661531 1.83779 7.01276e-20)
(-0.015174 1.67945 3.14729e-20)
(0.00902558 1.29317 0)
(0.00429464 1.20734 0)
(0.0457531 1.56505 9.37689e-20)
(0.0284437 1.43976 8.87405e-20)
(0.0347773 1.50604 -1.11431e-19)
(0.0380329 1.5899 0)
(-0.0438682 2.28647 -1.0641e-19)
(-0.0526151 2.54721 4.64138e-20)
(-0.0195443 2.45229 -2.40671e-20)
(-0.0215409 1.85294 -8.49125e-20)
(-0.0361012 2.49951 -3.15091e-20)
(-0.028983 2.44588 1.38712e-19)
(1.01994 0.0206535 -9.1581e-19)
(1.01621 0.0259318 9.18535e-19)
(1.01526 0.0162379 0)
(1.01181 0.0660137 1.28917e-18)
(0.992398 0.0556394 -1.43931e-18)
(0.954232 0.0426881 1.60727e-18)
(1.01546 0.102056 -1.72352e-19)
(1.04195 -0.00621189 0)
(1.05005 -0.00201832 8.33922e-19)
(1.0383 -0.0101578 -8.34746e-19)
(1.0698 0.0402865 -4.99262e-20)
(1.06337 0.0220023 4.29493e-19)
(1.06432 0.0525857 0)
(1.05159 0.0475583 -1.53884e-19)
(1.03329 0.0395854 0)
(1.02621 0.0359066 0)
(1.02777 0.0126264 0)
(1.02442 0.0154904 0)
(1.03945 0.0301914 3.16526e-19)
(1.03943 0.0255702 -6.97097e-19)
(1.05021 0.032122 -3.36355e-19)
(1.04731 0.0323245 -3.69838e-19)
(1.06804 0.060799 7.27889e-19)
(1.09342 0.0482014 0)
(1.10118 0.0905309 0)
(-0.0531543 2.28074 -5.85249e-20)
(-0.01099 2.12168 -1.03015e-20)
(-0.0034523 2.08156 0)
(-0.0520101 2.46217 5.8809e-20)
(-0.0438658 2.43994 2.06788e-20)
(-0.0699493 2.45977 -2.23748e-20)
(-0.0292155 2.61743 1.03755e-19)
(-0.0426154 2.55672 -8.37243e-21)
(-0.0313532 2.51517 3.29404e-20)
(-0.0266162 2.60828 -5.51357e-20)
(-0.0296249 2.61087 6.79925e-20)
(0.0615848 1.5634 1.04639e-21)
(0.0271032 1.70756 8.62315e-20)
(0.367506 1.42133 -3.8259e-20)
(0.365692 1.36546 1.28263e-19)
(0.646552 1.41187 -1.44852e-19)
(0.514261 1.4762 -9.40785e-20)
(0.566765 1.44902 0)
(0.592192 2.42593 2.29638e-19)
(0.658994 2.41766 3.61522e-19)
(0.41112 2.52049 8.32258e-20)
(0.405341 2.54809 -7.26854e-19)
(0.513798 2.49294 6.8798e-19)
(0.551811 2.46404 0)
(0.489061 2.51998 -6.08305e-19)
(0.2491 2.59633 1.30366e-18)
(0.353946 2.56969 -8.32598e-20)
(0.28508 2.65816 -1.76736e-18)
(0.942418 2.37829 8.19067e-19)
(0.834501 2.3824 0)
(1.01091 0.000379002 2.99594e-20)
(1.0152 -0.00556045 -2.43324e-20)
(1.01765 -0.0036689 -4.44759e-19)
(1.01491 -0.00100601 4.46806e-19)
(1.01229 0.00100627 0)
(0.634576 1.28133 0)
(0.652272 1.17637 0)
(0.754494 1.08379 0)
(0.643963 1.14263 0)
(1.18536 2.62261 5.92449e-20)
(1.07362 2.36653 0)
(0.837091 2.1883 4.88985e-21)
(0.825736 2.44858 0)
(0.921745 2.53901 -5.15725e-19)
(0.957129 2.4951 3.4334e-19)
(0.818133 0.151336 0)
(0.787257 0.128086 1.83552e-19)
(0.925295 0.135414 1.06979e-18)
(0.840402 0.130393 -4.00634e-19)
(0.819637 0.0728262 -1.22677e-18)
(1.0753 0.221805 -1.07615e-18)
(0.996201 0.279879 -1.52776e-20)
(0.920674 0.276223 1.00019e-18)
(1.00576 0.209324 8.41505e-19)
(0.952796 0.177109 -1.42938e-18)
(0.918362 0.177901 1.78416e-19)
(0.950762 0.237944 -3.85683e-19)
(0.929702 0.200237 0)
(0.995373 0.175358 7.06653e-19)
(1.04594 0.174588 0)
(1.04519 0.200961 0)
(1.1026 0.108308 3.42644e-19)
(1.0715 0.162723 -1.37467e-20)
(1.06926 0.223936 -1.86513e-19)
(1.0989 0.190379 0)
(1.02303 0.0437684 7.1182e-19)
(1.041 0.0560704 8.89665e-19)
(1.03363 0.0416562 -7.0569e-19)
(1.04142 0.0618875 -5.96316e-19)
(1.01745 0.0693139 -9.07206e-19)
(0.989698 0.148797 0)
(0.999153 0.0987692 0)
(0.970037 0.0638929 -5.71915e-19)
(0.921903 0.0854799 2.24323e-19)
(1.03734 0.097612 8.24761e-19)
(1.06783 0.111247 -9.85894e-19)
(1.07134 0.143323 8.78841e-19)
(1.03046 0.135262 0)
(1.07335 0.101942 0)
(1.05607 0.0842598 -4.00154e-19)
(1.04438 0.0909302 -6.76327e-19)
(0.577993 1.07695 1.83856e-19)
(0.611652 1.41416 -8.65537e-20)
(1.15595 2.74174 -2.88508e-19)
(1.22275 3.08258 1.43033e-20)
(1.2482 2.72243 -2.655e-19)
(1.27837 2.70651 2.89954e-20)
(1.20628 2.34553 -1.00552e-20)
(1.20989 2.98627 -1.45376e-19)
(1.22922 2.95124 3.16527e-19)
(1.21382 3.23619 -1.21843e-19)
(1.375 2.96765 1.68527e-19)
(1.36567 2.8857 0)
(0.538067 0.847997 -5.6569e-20)
(0.138711 1.25888 6.17885e-19)
(0.53097 0.462404 6.72706e-19)
(0.366687 0.213467 7.44734e-19)
(0.529885 0.388852 8.03026e-19)
(0.543314 0.480081 -1.31202e-18)
(0.545846 0.484589 1.07135e-18)
(0.497682 0.409926 -4.05557e-19)
(0.423156 0.345722 9.19913e-19)
(0.754219 0.248654 -4.09411e-19)
(0.71775 0.284163 0)
(0.707435 0.210991 9.80412e-21)
(0.72756 0.514603 4.29319e-19)
(0.698455 0.482588 -1.56356e-18)
(0.614497 0.475448 1.63104e-20)
(0.625176 0.458415 0)
(0.668338 0.733903 4.55037e-19)
(0.819353 0.771464 4.84443e-19)
(0.744864 0.853868 -5.64574e-19)
(0.860926 0.803616 -1.96449e-19)
(0.894297 0.847957 -5.3168e-20)
(0.902566 0.849292 5.44401e-20)
(0.833812 0.643146 -8.22766e-19)
(0.911433 0.69946 1.82453e-19)
(0.968392 0.714041 0)
(0.959161 0.69041 -2.53779e-19)
(1.02157 0.319379 2.60188e-19)
(1.13291 0.289338 3.7775e-19)
(1.06158 0.258587 4.40034e-19)
(1.00654 0.354683 -5.18935e-19)
(1.04548 0.421062 0)
(1.09748 0.405879 0)
(0.90852 0.349777 5.47658e-21)
(0.841128 0.283008 0)
(0.869784 0.275603 4.67602e-19)
(0.904044 0.282165 -5.46411e-21)
(0.934879 0.425704 2.47641e-18)
(0.890766 0.486788 6.402e-19)
(0.895915 0.450611 -6.71473e-19)
(0.818152 0.433773 7.19408e-19)
(0.800699 0.430117 4.27655e-19)
(0.771139 0.417343 -4.20341e-19)
(1.02729 -0.000426578 7.42017e-19)
(1.01999 -0.000212743 0)
(1.01849 0.000736062 4.8326e-19)
(1.02163 -0.00199821 -1.09503e-18)
(1.02226 0.00408696 5.3193e-19)
(1.02042 0.0109971 -1.11416e-18)
(1.02138 0.0103944 0)
(1.02076 0.0106513 -2.31922e-19)
(1.016 0.00756895 5.81825e-19)
(1.01678 0.0102989 -2.90208e-19)
(1.01747 0.00964239 2.13828e-19)
(0.030507 1.30918 0)
(0.0381507 1.34353 0)
(0.0414259 1.31028 0)
(0.0492571 1.2756 0)
(0.0692927 1.36897 1.31625e-19)
(0.0772996 1.34165 -3.17336e-20)
(0.110579 1.49817 -6.11913e-20)
(0.0926241 1.34305 4.26049e-20)
(0.0324445 1.44242 -1.16858e-19)
(0.03655 1.43392 9.04467e-20)
(0.0615091 1.35105 -5.35946e-21)
(0.0546355 1.352 -7.3891e-20)
(0.0499515 1.3314 -1.11702e-20)
(0.0401576 1.35291 -1.3776e-20)
(0.108269 2.3839 -2.43125e-19)
(0.0962267 2.42773 0)
(0.173719 2.05687 1.46685e-19)
(0.11086 1.70781 8.06565e-20)
(0.232824 2.04978 -1.18118e-19)
(0.207988 2.44501 0)
(0.26782 2.3961 -7.0959e-19)
(0.306981 2.39396 5.03025e-19)
(0.234508 2.00833 -3.30813e-19)
(0.155001 2.17273 2.08153e-19)
(0.146239 2.28999 0)
(0.0128028 1.88062 -1.28374e-19)
(-0.0077489 2.41081 -2.00811e-19)
(-0.000812963 2.16318 0)
(0.00896213 2.46952 -1.38438e-20)
(0.0206166 2.31619 7.50863e-20)
(0.0173594 1.39262 1.11615e-20)
(0.0119059 1.38068 -1.78036e-19)
(0.0116906 1.38579 4.59031e-20)
(0.0150749 1.38479 6.14427e-20)
(0.0223156 1.41047 0)
(0.0131547 1.36775 0)
(0.0314234 1.27623 7.36804e-20)
(0.0208266 1.36623 -2.50274e-20)
(0.0102224 1.35854 0)
(0.0268641 1.27475 4.74502e-20)
(0.00358999 1.17263 -9.91253e-20)
(1.03983 0.0108761 0)
(1.04618 0.00718699 -7.82429e-20)
(1.03864 0.0203183 -5.62319e-19)
(1.04778 0.0191194 0)
(1.05111 0.0193134 0)
(1.03653 0.0108625 -6.64121e-21)
(1.03101 0.0106168 9.0163e-19)
(1.03201 0.0157948 1.09412e-18)
(1.02601 0.019723 0)
(1.02328 0.0201813 0)
(1.03522 0.0239187 5.61344e-19)
(1.02634 0.02528 0)
(1.02468 0.0253221 0)
(-0.0436174 2.02073 0)
(0.0144954 1.69852 -1.72354e-21)
(-0.0198696 1.78933 1.08211e-20)
(0.0373414 1.36513 0)
(0.00218267 1.57472 5.06134e-20)
(0.0329798 1.48708 -3.2533e-20)
(0.072177 1.42055 0)
(0.394473 1.67432 0)
(0.367672 1.295 -2.27655e-19)
(0.306977 1.34161 0)
(0.424518 1.29487 2.01662e-19)
(0.467043 1.4505 0)
(0.448323 1.39587 -6.19106e-20)
(1.03461 2.68625 -1.76127e-20)
(0.96417 2.40865 -1.02929e-18)
(0.913744 2.18779 1.18812e-18)
(0.847869 2.37426 2.66683e-19)
(0.846183 2.4973 0)
(0.916337 2.49325 0)
(0.925816 2.37158 0)
(0.903759 2.35838 -1.03735e-18)
(0.690668 2.46645 -4.74883e-19)
(0.801406 2.45707 -1.1487e-19)
(0.811963 2.43027 8.76488e-20)
(0.693867 2.39187 0)
(0.797685 2.38691 0)
(0.75666 2.39977 -3.94911e-19)
(0.769019 2.4879 0)
(0.611398 1.09865 0)
(0.481633 0.928325 -5.93013e-19)
(0.54864 0.963813 -3.75751e-20)
(0.518443 1.05524 0)
(0.518709 1.00501 8.9041e-19)
(0.768614 0.880396 -1.6504e-19)
(0.779058 1.01422 0)
(0.752586 0.972612 2.4968e-19)
(0.640279 1.03499 0)
(0.644429 0.944137 0)
(1.16396 2.76261 -2.89753e-19)
(1.14147 2.8264 -1.40523e-19)
(0.930952 2.34711 1.7436e-19)
(0.898888 2.32532 -1.06809e-19)
(1.12878 2.73496 0)
(1.0823 2.70496 1.28555e-19)
(1.08864 2.48636 -3.66467e-19)
(0.983041 2.23346 -3.03299e-20)
(0.496801 1.35683 0)
(0.509472 1.07531 -1.62169e-19)
(0.561728 1.1632 0)
(0.861016 0.214444 0)
(0.794602 0.167144 0)
(0.744311 0.13912 0)
(0.855725 0.219404 -7.36018e-19)
(0.770924 0.210104 4.29804e-19)
(0.936144 0.0724557 -4.63343e-19)
(0.950114 0.11768 0)
(0.928918 0.127075 1.98753e-19)
(0.870201 0.103605 7.96222e-19)
(0.845917 0.0622378 -4.98388e-19)
(1.16145 3.36167 -6.77039e-19)
(1.20888 3.28101 0)
(1.16016 3.3896 -1.40965e-18)
(0.647942 3.55046 1.19501e-18)
(0.872649 3.11788 2.03196e-20)
(0.511943 0.854165 6.69072e-19)
(0.429648 0.847043 0)
(0.339887 0.497223 -1.6733e-19)
(0.447661 0.683355 9.60438e-19)
(0.534265 0.46864 -2.32584e-19)
(0.508573 0.520582 2.63211e-19)
(0.659956 0.53325 5.77188e-19)
(0.688712 0.553024 0)
(0.640053 0.616498 0)
(0.598638 0.553774 0)
(0.971905 0.599433 1.37588e-19)
(0.892299 0.535874 -6.23059e-19)
(0.915995 0.569325 4.87132e-19)
(0.952476 0.504589 -4.84561e-19)
(1.05555 0.480343 0)
(1.06319 0.569779 -1.27925e-19)
(0.84194 0.385639 -9.78019e-19)
(0.845771 0.371243 -1.21376e-18)
(0.793833 0.381823 7.62185e-19)
(0.790705 0.350994 -7.7511e-19)
(0.840622 0.306738 -6.07557e-19)
(0.794013 0.306114 7.46485e-19)
(1.02672 0.00542944 -5.7133e-19)
(1.02646 0.00566726 1.16682e-18)
(1.02904 -0.000432967 7.2051e-19)
(1.03332 0.000573674 -8.67536e-19)
(1.03311 0.00807733 0)
(1.03004 0.00865884 -1.4111e-18)
(0.0627604 1.64286 4.425e-20)
(0.0436756 1.56705 0)
(0.0865952 1.69404 2.93924e-19)
(0.0943413 1.67397 -2.64374e-19)
(0.0914235 1.51747 1.14848e-19)
(0.0864156 1.49681 0)
(0.00424872 1.69084 0)
(-0.0088486 1.49615 -2.62642e-20)
(-0.00599833 1.43523 2.36501e-20)
(0.00252293 1.56939 2.04426e-21)
(-0.00992924 1.89057 -4.72101e-20)
(-0.0310875 1.94464 2.55202e-20)
(0.496208 1.37363 -4.14718e-19)
(0.491398 1.37753 4.52978e-19)
(0.446675 1.29091 -1.33298e-19)
(0.436777 1.29396 1.51623e-20)
(0.626037 1.29566 0)
(0.544177 1.38273 2.65388e-21)
(0.560989 1.39093 -2.58365e-21)
(0.456497 1.2774 1.28474e-19)
(0.510805 1.23212 0)
(0.563451 1.19802 0)
(0.65779 2.42602 6.97568e-19)
(0.670722 2.46303 1.42283e-18)
(0.716435 2.47507 -9.79682e-19)
(0.615703 2.4517 -2.23939e-19)
(0.563048 2.54325 3.23898e-19)
(0.51209 2.51665 -8.5579e-19)
(0.975444 2.37764 -6.66182e-19)
(1.01171 2.39209 0)
(0.921121 2.16632 -7.65482e-19)
(1.05242 2.68399 0)
(1.05452 2.67057 0)
(0.612814 2.27797 -1.69258e-19)
(1.04175 3.16464 8.08657e-20)
(0.913053 3.03489 1.89504e-20)
(0.282401 0.918088 0)
(0.323925 0.780043 -3.49232e-19)
(0.481042 0.734393 -3.62603e-19)
(0.392264 2.02537 0)
(0.467973 2.78677 -1.41452e-20)
(0.424845 2.55092 0)
(0.682004 0.681157 -9.66977e-19)
(0.764415 0.680956 1.32911e-18)
(0.78437 0.623045 -1.3176e-18)
(0.664714 0.643349 -1.24435e-19)
(0.721644 0.5973 -5.17846e-19)
(1.00367 2.76834 -6.14867e-20)
(1.04056 2.825 -2.44149e-19)
(0.641278 2.15573 7.54532e-19)
(0.59644 1.71974 -5.32849e-19)
(0.699417 1.91035 -4.97418e-19)
(0.989255 2.45132 -1.22892e-19)
(0.993981 2.44574 3.80892e-19)
(0.661176 1.85151 3.38768e-20)
(0.450897 1.33716 1.85582e-19)
)
;

boundaryField
{
    wall-4
    {
        type            noSlip;
    }
    velocity-inlet-5
    {
        type            fixedValue;
        value           uniform (1 0 0);
    }
    velocity-inlet-6
    {
        type            fixedValue;
        value           uniform (0 3 0);
    }
    pressure-outlet-7
    {
        type            zeroGradient;
    }
    wall-8
    {
        type            noSlip;
    }
    frontAndBackPlanes
    {
        type            empty;
    }
}


// ************************************************************************* //
