/*--------------------------------*- C++ -*----------------------------------*\
  =========                 |
  \\      /  F ield         | OpenFOAM: The Open Source CFD Toolbox
   \\    /   O peration     | Website:  https://openfoam.org
    \\  /    A nd           | Version:  13
     \\/     M anipulation  |
\*---------------------------------------------------------------------------*/
FoamFile
{
    format      ascii;
    class       volVectorField;
    location    "45";
    object      U;
}
// * * * * * * * * * * * * * * * * * * * * * * * * * * * * * * * * * * * * * //

dimensions      [0 1 -1 0 0 0 0];

internalField   nonuniform List<vector> 
918
(
(0.985163 -0.000503256 0)
(0.00501107 2.96625 0)
(0.00827076 0.851063 0)
(0.979703 0.0021479 0)
(-0.0145593 2.04861 3.05092e-20)
(-0.00704251 2.94879 -2.52814e-18)
(0.816991 1.15478 4.31431e-19)
(0.243233 0.117921 -1.58919e-20)
(0.999907 -0.000283552 0)
(0.0613143 0.798029 0)
(0.0126604 0.606205 0)
(0.734737 -0.0167871 0)
(0.0110996 2.93035 0)
(0.00267419 2.79465 0)
(-0.0175091 3.15449 7.67702e-19)
(-0.017352 1.90702 1.7018e-21)
(0.310265 0.032764 1.04409e-18)
(0.188931 1.16668 3.0277e-19)
(0.962764 0.00501792 0)
(-0.014574 0.549713 0)
(0.0441501 0.158439 -7.52474e-19)
(1.00198 -0.00497953 0)
(1.00022 -0.00979069 0)
(0.975728 -0.00644012 0)
(0.583618 -0.0384372 0)
(0.0154218 2.6401 0)
(-0.0148766 2.91 9.34436e-19)
(0.00970668 0.919928 0)
(0.00146177 1.16002 0)
(0.00778011 0.895962 0)
(-0.017706 2.61085 0)
(-0.00358838 2.1022 -2.43586e-20)
(-0.00934053 1.87493 0)
(-0.020614 2.9876 -9.10499e-23)
(-0.0166912 3.0053 1.96493e-18)
(0.00210352 3.00019 0)
(0.87088 -0.00955304 0)
(0.404912 0.938374 1.86008e-19)
(0.795424 1.1724 -4.81367e-19)
(0.941479 1.01104 5.23946e-19)
(0.667463 1.26489 -9.93371e-20)
(0.667967 1.2495 5.74543e-19)
(0.281067 0.191359 1.55039e-20)
(0.257386 0.0908109 0)
(1.1336 0.549407 0)
(0.248154 0.18334 7.08191e-20)
(0.214384 0.117598 -7.3488e-20)
(0.919807 -0.00744719 0)
(1.00027 0.000155621 0)
(0.999909 0.000336946 0)
(1.00363 -0.00776833 0)
(1.00096 -0.000923338 0)
(1.00017 3.11119e-05 0)
(0.0765603 1.81508 -8.10132e-19)
(0.03062 0.981442 0)
(0.0966814 0.865574 0)
(0.0130118 0.93363 0)
(0.0361646 0.731416 0)
(0.0140538 2.00324 0)
(0.00694269 0.833997 0)
(0.00847939 0.625003 0)
(0.00635283 0.821933 0)
(0.0189274 0.591229 0)
(0.839247 -0.0158198 0)
(0.8454 0.0297428 0)
(0.767684 -0.00550614 0)
(0.814843 0.0392558 0)
(0.704174 -0.0191968 0)
(0.0146927 3.0004 9.37993e-19)
(0.0115102 3.00798 0)
(0.00612324 3.00279 0)
(0.0135425 2.99734 1.06562e-23)
(0.00797895 2.95847 -1.39409e-18)
(0.0144858 2.98204 0)
(0.0108237 2.90362 0)
(0.0248499 2.93066 2.15094e-24)
(0.00451949 2.82474 0)
(0.0306108 2.91617 0)
(-0.00549928 2.74544 0)
(0.307871 3.55066 0)
(-0.131771 3.63202 0)
(0.139419 3.24481 -7.1443e-19)
(-0.0126923 2.9806 0)
(-0.0205344 1.99755 0)
(-0.00860042 2.16044 -1.67846e-21)
(-0.0103276 1.90963 -1.32391e-20)
(0.411897 0.143256 -3.61437e-19)
(0.317643 0.0180481 -3.49298e-19)
(0.38859 0.153948 -1.08782e-18)
(0.292611 0.0441608 -7.16189e-19)
(0.224178 0.965837 0)
(0.270549 1.3128 -3.60242e-19)
(0.365612 1.24663 6.01283e-19)
(0.987472 0.00855686 0)
(0.941916 0.00583619 0)
(1.0003 0.00057846 0)
(1.00286 0.00930606 0)
(1.00302 0.00846177 -2.79181e-18)
(0.991913 0.00969949 2.10829e-18)
(-0.00850773 0.802758 0)
(-0.00500215 0.547593 0)
(-0.0233191 0.975919 0)
(-0.00828345 0.822484 0)
(-0.00343622 0.542582 0)
(0.0727298 0.160518 2.32512e-19)
(0.132741 0.136016 0)
(0.993542 -0.00837885 0)
(0.95443 -0.00652238 0)
(0.760989 0.0465632 0)
(0.696615 0.0571763 0)
(0.664184 -0.0313845 0)
(0.964069 -0.00812661 0)
(0.612835 0.0762296 0)
(0.444606 -0.0109586 1.55517e-18)
(-0.0369519 2.86321 7.01563e-19)
(0.0418581 2.90951 0)
(0.054044 2.88535 0)
(-0.00431245 2.69961 0)
(-0.0133726 2.98512 8.86593e-19)
(-0.0179658 2.89508 0)
(-0.0154139 2.98809 -2.74536e-18)
(-0.0133505 2.92517 9.39181e-19)
(0.00537488 1.34769 0)
(0.0243712 1.38266 0)
(-0.00816329 2.12547 3.39663e-22)
(-0.0071494 2.08582 0)
(-0.0203861 1.88656 0)
(0.938149 -0.00758224 0)
(0.856684 -0.00979237 0)
(0.863353 0.00610316 0)
(0.94932 -0.00798195 0)
(0.883756 -0.00811847 0)
(0.51701 1.13194 -2.34648e-19)
(0.566329 1.18322 0)
(0.368887 0.882936 3.45106e-20)
(0.311041 0.741871 0)
(0.90173 1.0503 -1.4342e-19)
(1.01302 0.854404 2.86523e-19)
(0.358492 1.36187 0)
(0.52356 1.32669 0)
(0.5425 1.27764 0)
(0.117032 0.182204 -3.03445e-19)
(0.313669 0.183341 0)
(0.280368 0.084874 2.02454e-19)
(0.985155 0.910479 0)
(1.0556 0.763597 0)
(1.07901 0.704029 -2.19808e-19)
(1.11437 0.609311 0)
(1.16691 0.396403 5.54618e-20)
(0.957592 -0.00882017 0)
(0.962416 -0.0100895 0)
(0.901572 -0.00793959 0)
(0.984178 -0.0091662 0)
(0.974661 -0.00936737 0)
(0.937079 -0.00636663 0)
(1.00019 0.00233639 0)
(1.0009 0.00140895 0)
(0.99991 0.000852438 0)
(0.0353014 2.06679 4.47346e-19)
(0.120211 1.75731 0)
(0.0167954 2.18169 6.96501e-19)
(0.0505792 1.86975 -5.8742e-19)
(0.103936 1.17503 -2.47599e-19)
(0.0446834 1.06059 0)
(0.144039 1.01661 0)
(0.00521957 0.894021 0)
(0.0150792 0.680391 0)
(-0.00170502 2.23679 -1.14396e-21)
(0.0217029 2.00787 0)
(-0.00326129 2.23997 -4.99715e-20)
(0.0164618 2.01249 8.70868e-20)
(0.00611051 0.866943 0)
(0.0044598 0.847205 0)
(0.00625793 0.648387 0)
(0.00496619 0.803786 0)
(0.00190063 0.577116 0)
(0.936316 0.0092531 0)
(0.847132 -0.0152195 0)
(0.926096 -4.27343e-06 0)
(0.84088 -0.0128902 0)
(0.811984 0.000577512 0)
(0.900935 0.0203358 0)
(0.876569 0.0249319 0)
(0.788831 -0.00190443 0)
(0.00581569 3.06494 -8.7807e-21)
(0.0166053 3.05772 0)
(0.0146862 2.96906 0)
(0.00869287 2.87627 0)
(0.924743 3.96646 0)
(1.23927 3.2993 9.30174e-19)
(0.0700236 3.07269 0)
(-0.028528 2.90422 0)
(0.0024441 1.39816 0)
(-0.0228989 1.70258 0)
(-0.00257377 1.54372 0)
(-0.0290721 2.56851 -9.03376e-21)
(-0.0122382 2.26033 0)
(-0.0193026 2.40575 0)
(0.005921 1.9377 2.2272e-21)
(-0.00381249 2.23783 9.59205e-21)
(-0.00606111 2.19634 1.33228e-20)
(-0.003309 1.9225 0)
(0.446343 0.123861 5.4648e-19)
(0.355741 0.0088068 -5.36528e-19)
(0.259951 1.57842 0)
(0.272624 0.740274 -3.17949e-19)
(0.177214 1.66418 -1.0648e-18)
(0.226996 1.20629 1.06734e-18)
(0.902174 0.00645952 0)
(0.967474 0.0110762 0)
(0.974599 0.0107868 0)
(0.923404 0.00646488 0)
(-0.000619944 0.793514 0)
(-0.0115867 0.793881 0)
(0.00383624 0.555225 0)
(0.212702 0.176533 6.53333e-19)
(0.177731 0.162586 -7.73342e-19)
(0.17866 0.124756 0)
(1.0887 0.0834848 2.86888e-20)
(1.07119 0.0379007 0)
(1.00609 0.0387827 0)
(0.901986 -0.00676669 0)
(0.484749 0.105948 0)
(0.534011 0.0875694 -2.48657e-18)
(0.395922 0.00570274 9.31014e-19)
(0.00897653 2.98146 7.50276e-19)
(-0.0322405 2.86615 4.79182e-20)
(0.00361664 3.05027 -1.85663e-20)
(0.0201493 3.04335 6.59661e-19)
(-0.0150007 2.99656 3.08181e-20)
(-0.0129402 2.94943 -1.23967e-22)
(-0.0172722 3.01196 -5.69353e-19)
(0.0148476 3.02388 4.12303e-19)
(0.00736803 3.03684 -6.53707e-19)
(0.933001 -0.00161319 0)
(0.938806 -0.00351117 0)
(0.844803 -0.00931626 0)
(0.956667 0.0118061 0)
(0.942928 0.0130687 0)
(0.881726 0.00600861 0)
(0.917748 0.0166228 0)
(0.926339 0.0148013 0)
(0.838559 0.00330405 0)
(0.720149 1.41018 3.50619e-20)
(0.753573 1.51912 0)
(0.186892 0.325469 7.23282e-20)
(0.221143 0.661934 5.84424e-19)
(0.261076 0.721255 -3.40226e-19)
(0.26579 0.533843 6.7631e-19)
(0.338504 0.794976 1.59572e-18)
(0.135859 0.223418 3.75483e-19)
(0.362324 0.171263 7.59681e-19)
(0.340548 0.180445 1.98111e-19)
(0.287607 0.0643965 3.77572e-19)
(1.15671 0.454174 3.90256e-20)
(1.17576 0.251429 3.40148e-20)
(0.00789334 2.22934 2.72999e-19)
(0.0464225 1.93784 0)
(0.966198 0.0285086 0)
(0.940195 0.01327 0)
(0.864994 -0.0185101 0)
(0.0112672 3.07431 0)
(0.0197999 2.94421 1.21293e-18)
(0.0164344 2.95634 0)
(0.00636126 2.85053 -1.203e-18)
(0.00636699 3.09188 2.94819e-19)
(0.00707948 3.08234 0)
(0.786634 1.82146 -1.58796e-19)
(1.24713 2.49881 4.04134e-19)
(0.768715 1.96103 -1.23419e-18)
(0.0198871 2.9813 -6.49293e-19)
(0.0355772 3.00071 0)
(-0.0342667 2.8776 0)
(-0.00482972 2.21866 -1.28127e-20)
(-0.0048934 2.24114 -2.77733e-20)
(0.00992068 1.97273 -8.19657e-21)
(0.276764 1.38624 1.03415e-18)
(0.231292 0.528557 -7.09342e-19)
(0.0635714 1.99123 7.82429e-19)
(0.136154 1.87927 -9.28569e-19)
(0.179801 1.49854 9.23612e-20)
(0.00583475 3.11804 -1.64875e-18)
(0.0132735 3.1187 1.79506e-18)
(-0.00923552 2.98049 8.20066e-19)
(-0.00380934 2.97724 -7.77826e-19)
(-0.0215011 2.88101 -8.35222e-19)
(0.00848987 3.09872 -2.19199e-18)
(0.00167812 3.10638 2.19578e-18)
(0.275201 0.686116 0)
(0.240688 0.676208 -1.20526e-18)
(0.0963819 0.224326 5.34536e-19)
(0.352742 0.920828 1.11526e-18)
(0.191146 0.268269 -1.71943e-18)
(1.17133 0.171077 7.11332e-20)
(1.17627 0.305106 0)
(1.15999 0.119946 -1.66612e-20)
(1.49471e-05 2.24826 -1.80411e-21)
(0.00263249 2.23933 0)
(0.0307343 1.97304 0)
(0.340114 1.29452 -3.72083e-19)
(0.370732 1.13271 -8.0472e-19)
(0.20509 0.36758 1.43293e-18)
(1.00587 -0.0108552 0)
(1.00766 -0.00764839 5.15212e-19)
(0.00360718 1.322 0)
(-0.018219 1.29912 0)
(1.00222 0.00350477 1.80564e-21)
(1.00366 0.00944953 1.05159e-18)
(-0.0200745 2.55247 1.14422e-20)
(-0.0254827 2.59471 0)
(0.0354281 3.17814 4.34104e-19)
(0.394432 3.48975 0)
(1.16359 0.648119 -6.79487e-20)
(1.01291 0.0130901 -2.15047e-21)
(1.02126 -0.0103707 0)
(1.00171 0.00011734 7.61938e-23)
(0.102856 1.35973 0)
(0.14488 2.5741 0)
(0.0251687 1.30075 0)
(0.0016545 2.6253 4.94778e-20)
(-0.0196662 2.58402 1.98048e-20)
(1.00097 0.0288872 2.47121e-21)
(1.06203 0.00377695 0)
(1.09521 0.0235739 0)
(-0.0224549 1.74119 0)
(-0.020538 2.59349 0)
(-0.000152619 1.29333 0)
(0.296239 1.47174 -1.55776e-19)
(1.01127 -0.00964518 0)
(1.00939 -0.0149287 0)
(1.00238 0.000736204 6.58464e-19)
(1.00547 -0.00482219 -7.73786e-19)
(1.00118 -0.000998179 0)
(-0.00610649 1.46014 0)
(-0.00317401 1.36545 0)
(0.00466645 1.41742 0)
(-0.000782004 1.28098 0)
(-0.00714564 1.25845 0)
(-0.00534904 1.23496 0)
(1.03467 -0.00633336 0)
(1.02032 0.015698 -9.02413e-22)
(0.802715 1.26552 2.44539e-19)
(1.00223 0.000309815 -6.55516e-19)
(1.00407 0.00524726 7.67687e-19)
(1.00117 0.00206599 0)
(1.01278 0.0103122 6.52699e-19)
(1.00801 0.00829314 -7.90649e-19)
(1.00858 0.0146886 0)
(-0.0251061 2.62216 0)
(-0.0266018 2.60202 -1.29369e-20)
(-0.0247702 2.61549 9.54457e-21)
(1.22954 0.260972 6.20033e-19)
(1.15703 0.0842013 0)
(0.04255 3.07767 -9.56081e-19)
(0.0651444 2.85462 -6.95764e-20)
(0.141367 3.19261 1.46331e-18)
(0.136439 3.22119 -2.14433e-19)
(0.135149 3.23327 0)
(0.0191486 3.13739 2.47697e-19)
(0.0757294 3.1603 9.43317e-19)
(0.0685077 3.18591 -4.66667e-19)
(0.0220112 3.12971 0)
(0.624687 0.281896 0)
(0.554885 0.329357 0)
(1.131 0.68442 1.63384e-19)
(1.126 0.80751 -1.57626e-19)
(1.19013 0.572094 0)
(1.22013 0.508257 0)
(1.01613 0.0133126 -1.21683e-18)
(1.01499 0.0142491 1.52736e-18)
(1.02525 -0.00991101 0)
(1.02332 -0.0118994 0)
(1.00643 0.00257486 0)
(1.01041 0.0036993 0)
(1.00457 0.00183289 0)
(1.0098 0.00620274 0)
(1.00784 0.00596361 0)
(1.0045 0.00465983 0)
(0.0912511 1.35708 0)
(0.085215 1.32772 0)
(0.122665 1.39295 0)
(0.137322 1.40398 0)
(0.145055 2.59864 0)
(0.185319 2.66643 -4.39524e-19)
(0.100529 2.65453 0)
(0.0862948 2.65738 2.1454e-19)
(0.0398235 2.67912 -1.78919e-19)
(0.0156213 1.31504 0)
(0.0198288 1.24122 0)
(0.0221726 1.32389 0)
(0.0265064 1.26757 0)
(0.00418921 1.9801 -1.67681e-20)
(-0.0183388 2.6118 1.76961e-21)
(-0.00696618 2.66693 3.97702e-20)
(-0.016613 2.68722 0)
(-0.021393 2.61888 -4.44514e-20)
(-0.021784 2.61376 -1.02232e-20)
(0.0135646 1.97911 1.54179e-20)
(-0.00497607 2.3972 -2.37464e-21)
(-0.0113599 2.41909 -4.51086e-20)
(1.01097 0.0367296 1.24079e-18)
(1.00633 0.0162238 -1.53254e-18)
(1.00223 0.0436573 -1.24163e-18)
(0.979689 0.0223019 1.58325e-18)
(1.06326 0.00760019 0)
(1.04863 -0.00860811 0)
(1.09253 0.0334602 0)
(1.07296 0.0118624 0)
(1.07075 -0.000158037 0)
(1.13773 0.0803363 0)
(1.10921 0.042752 0)
(1.11227 0.0307946 0)
(-0.0247745 2.4427 -1.83576e-22)
(-0.00963828 2.01965 0)
(-0.0133624 2.22555 0)
(-0.0215921 2.61366 -3.59507e-21)
(-0.0194944 2.6219 -1.76622e-22)
(0.00695046 1.56824 -1.88212e-20)
(0.00218848 1.49618 1.91267e-20)
(-0.00520651 1.38297 0)
(-0.0083151 1.389 0)
(-0.0115487 1.38403 0)
(0.00389918 1.29622 0)
(0.0112039 1.23745 0)
(0.377669 1.48747 2.51325e-19)
(0.418173 1.49068 1.37424e-19)
(0.597431 2.44899 -2.41707e-19)
(0.400914 2.54335 7.12956e-19)
(0.350636 2.06572 7.48072e-20)
(1.02099 -0.00818984 0)
(1.01546 -0.00978828 0)
(1.01489 -0.0155189 0)
(1.00745 -0.00115942 0)
(1.00494 -0.00093816 0)
(1.00776 -0.00475288 0)
(1.00924 -0.00369723 0)
(1.01417 -0.00446168 0)
(1.02105 0.0161392 1.19143e-18)
(1.01793 0.0156911 -1.52652e-18)
(1.02147 0.0181079 -1.20012e-18)
(1.01931 0.0168126 1.50044e-18)
(0.767433 1.31524 0)
(0.70396 1.36635 2.28558e-19)
(0.879237 1.21236 8.19175e-20)
(0.923106 1.16123 -1.08939e-19)
(1.15795 2.60761 2.96611e-19)
(0.796128 0.115353 6.06618e-19)
(1.16032 0.105615 0)
(1.20677 0.189888 -4.98274e-19)
(1.19149 0.151688 -2.10801e-20)
(1.00475 0.150102 0)
(0.134459 2.95998 5.61114e-19)
(0.111484 2.86589 -1.214e-18)
(0.0212361 2.37444 8.16918e-19)
(0.0903998 -0.0507909 -3.6361e-19)
(0.339509 3.41911 -2.03844e-19)
(0.194213 3.31189 0)
(0.237134 3.35361 2.65474e-19)
(0.244138 3.03326 -1.85143e-18)
(0.338522 3.19236 0)
(0.00613479 3.12089 4.81153e-20)
(0.0171585 3.12947 -5.64023e-19)
(0.0148969 3.12558 8.3014e-19)
(0.0349831 3.13975 0)
(0.0332054 3.15051 0)
(1.21597 2.60631 0)
(0.543866 0.828718 -5.3949e-19)
(1.0488 0.982879 6.90964e-21)
(0.983038 1.06522 0)
(0.838009 0.968907 -1.17581e-19)
(1.07474 0.878419 2.85461e-20)
(0.35879 0.377208 -9.35708e-19)
(0.676492 0.311766 -2.07978e-20)
(0.628594 0.221742 4.31042e-19)
(0.576946 0.363379 3.18335e-20)
(0.488065 0.328185 -1.28154e-18)
(0.647024 0.324761 0)
(0.701193 0.415978 7.32121e-19)
(0.710035 0.416895 0)
(0.611171 0.35309 0)
(0.567753 0.273303 0)
(0.809103 0.613131 4.32382e-19)
(1.22989 0.283359 -5.23392e-19)
(1.22824 0.419732 0)
(1.23742 0.359902 0)
(0.728149 0.187224 6.39951e-19)
(0.855659 0.536522 -3.9751e-19)
(0.750761 0.507038 7.04653e-19)
(0.95153 0.429213 -7.7393e-19)
(1.01959 0.0147701 8.18734e-19)
(1.01777 0.0142457 -8.23458e-19)
(1.01593 0.0154842 0)
(1.03613 -0.00587826 0)
(1.02969 -0.00853282 -7.716e-19)
(1.02774 -0.0120646 7.63955e-19)
(1.02498 0.0100282 0)
(1.0236 0.0136548 0)
(1.01141 0.00408724 0)
(1.01426 0.00903596 0)
(1.01514 0.00400781 0)
(1.01424 0.00278601 0)
(0.0624986 1.34224 0)
(0.0637365 1.29756 0)
(0.14355 1.36702 -1.02478e-20)
(0.270175 1.46883 7.96035e-20)
(0.163939 1.44046 1.6514e-19)
(0.195769 1.44749 -2.7086e-19)
(0.165183 1.39126 0)
(0.129738 1.59451 -8.94886e-20)
(0.113902 1.5678 0)
(0.348143 2.01801 -1.08749e-19)
(0.344837 2.35006 6.346e-19)
(0.186379 1.45164 7.80396e-20)
(0.2614 1.38124 1.67961e-20)
(0.195894 1.37115 -1.35863e-20)
(0.271487 1.32344 -1.14869e-19)
(0.238772 1.57709 0)
(0.261074 1.61655 1.21916e-19)
(0.0314576 2.26362 -3.91138e-20)
(0.0439248 2.66792 0)
(0.0655016 2.40069 1.55843e-19)
(0.0615338 2.42096 0)
(0.0698089 2.67009 -2.37604e-19)
(0.0503655 2.69821 0)
(0.0290576 1.41356 6.10113e-21)
(0.0356418 1.46637 0)
(0.0291785 1.38336 0)
(0.0240836 1.3851 -6.88381e-21)
(0.00200511 2.65273 -1.69171e-20)
(0.0309651 2.69682 2.04474e-19)
(0.0121413 2.72244 1.43854e-21)
(0.00660368 1.82726 1.39147e-20)
(-0.00123998 1.67663 5.95002e-21)
(0.0162892 1.29033 0)
(0.0235875 1.22283 0)
(0.047591 1.57631 5.5932e-21)
(0.0296351 1.44961 -5.19217e-22)
(0.037663 1.51473 6.09242e-22)
(0.040059 1.60045 0)
(-0.0280312 2.27563 6.41644e-20)
(-0.0278129 2.55932 -2.61591e-20)
(-0.0154286 2.45417 -7.47411e-23)
(0.000346558 1.84365 -1.68656e-20)
(-0.0225527 2.50379 -5.401e-21)
(-0.018859 2.44494 2.97774e-20)
(1.01938 0.0209014 -8.13525e-19)
(1.01546 0.026608 8.18055e-19)
(1.01455 0.0161936 0)
(1.0123 0.0703705 1.14895e-18)
(0.990202 0.059171 -1.29148e-18)
(0.948338 0.0437009 1.44661e-18)
(1.01367 0.107885 -1.53208e-19)
(1.04241 -0.00592484 0)
(1.05058 -0.00171498 7.36803e-19)
(1.03871 -0.0100146 -7.38314e-19)
(1.07004 0.0414215 -4.38896e-20)
(1.06389 0.0226271 3.78107e-19)
(1.06268 0.0543921 0)
(1.0533 0.0481061 -1.35919e-19)
(1.03239 0.0412027 0)
(1.02588 0.0377294 0)
(1.02783 0.0130163 0)
(1.02417 0.0157969 0)
(1.03998 0.0315655 2.79862e-19)
(1.039 0.0262417 -6.18177e-19)
(1.05055 0.032897 -2.96811e-19)
(1.04816 0.0328122 -3.26625e-19)
(1.07008 0.0628641 6.38809e-19)
(1.09505 0.0507192 0)
(1.10315 0.0944978 0)
(-0.0219742 2.28137 3.99881e-20)
(-0.0180933 2.02425 -6.6581e-22)
(-0.0155395 2.03005 0)
(-0.0285518 2.45433 -3.97994e-20)
(-0.0220008 2.41003 8.50356e-22)
(-0.0322059 2.4834 3.47223e-21)
(-0.0198093 2.62833 8.67197e-21)
(-0.0204538 2.57114 -1.21149e-21)
(-0.0189214 2.5205 3.00928e-21)
(-0.0161373 2.62405 2.47677e-22)
(-0.0207815 2.62507 1.12951e-21)
(0.00299458 1.47989 -3.54514e-22)
(0.00836655 1.61703 -1.57959e-20)
(0.363826 1.43156 -1.04066e-19)
(0.364194 1.36963 4.5746e-20)
(0.647963 1.41546 -2.21108e-19)
(0.51649 1.48193 -1.34571e-19)
(0.571978 1.45005 0)
(0.593073 2.4255 2.11696e-19)
(0.660976 2.41874 3.40648e-19)
(0.410383 2.51683 8.51875e-20)
(0.402616 2.54415 -6.32265e-19)
(0.511252 2.48866 6.21955e-19)
(0.552499 2.46281 0)
(0.48874 2.51802 -5.67562e-19)
(0.247553 2.59154 1.1795e-18)
(0.353442 2.5653 -8.06329e-20)
(0.283691 2.65298 -1.6221e-18)
(0.945198 2.38135 7.31378e-19)
(0.837193 2.38484 0)
(1.01103 0.000457944 2.67104e-20)
(1.01526 -0.0054738 -2.16803e-20)
(1.01764 -0.00361098 -3.96041e-19)
(1.01496 -0.000943566 3.98018e-19)
(1.01238 0.00109854 0)
(0.636097 1.28632 0)
(0.659746 1.1828 0)
(0.768196 1.09514 0)
(0.652387 1.14673 0)
(1.18724 2.62191 5.87136e-20)
(1.07586 2.36803 0)
(0.839273 2.1832 3.86475e-21)
(0.826059 2.44657 0)
(0.923245 2.53798 -4.27942e-19)
(0.958824 2.49364 2.84814e-19)
(0.813768 0.173129 0)
(0.773787 0.145735 1.65021e-19)
(0.920168 0.144433 9.61129e-19)
(0.8361 0.146934 -3.59235e-19)
(0.8016 0.0837984 -1.10846e-18)
(1.07818 0.233719 -9.23854e-19)
(0.991728 0.291204 -1.59322e-20)
(0.927152 0.292002 8.85684e-19)
(1.00333 0.222157 7.40418e-19)
(0.952185 0.189013 -1.27689e-18)
(0.916944 0.190032 1.59564e-19)
(0.954576 0.254534 -3.40448e-19)
(0.931474 0.216586 0)
(0.992369 0.183467 6.30283e-19)
(1.04456 0.186356 0)
(1.04051 0.212927 0)
(1.105 0.117297 2.97143e-19)
(1.06811 0.174913 -1.42912e-20)
(1.07282 0.234705 -1.62378e-19)
(1.10322 0.201642 0)
(1.02273 0.0453112 6.31396e-19)
(1.04033 0.0579561 7.8725e-19)
(1.0339 0.0440464 -6.26289e-19)
(1.04322 0.064709 -5.27541e-19)
(1.01906 0.0725901 -8.07885e-19)
(0.987955 0.156944 0)
(0.999109 0.104226 0)
(0.965907 0.0661949 -5.15439e-19)
(0.9133 0.0893499 2.02432e-19)
(1.0386 0.1034 7.2966e-19)
(1.06823 0.120125 -8.57921e-19)
(1.07471 0.153134 7.66683e-19)
(1.02914 0.142358 0)
(1.07438 0.107768 0)
(1.05492 0.0901539 -3.50972e-19)
(1.04458 0.0944863 -5.97438e-19)
(0.582371 1.07583 1.41927e-19)
(0.612343 1.40461 -4.35686e-20)
(1.15761 2.73801 -2.30542e-19)
(1.22403 3.07933 2.17108e-21)
(1.24974 2.72079 -1.38091e-19)
(1.27948 2.70443 -2.70512e-20)
(1.20762 2.34513 -1.0375e-20)
(1.21139 2.98343 -9.55727e-20)
(1.23088 2.94878 2.38131e-19)
(1.21486 3.23275 -1.42714e-19)
(1.3754 2.96463 1.97336e-19)
(1.36555 2.88285 0)
(0.551622 0.83679 -5.0578e-20)
(0.131525 1.24727 5.81302e-19)
(0.537513 0.427098 6.05058e-19)
(0.376166 0.176514 6.66731e-19)
(0.517875 0.363671 7.24102e-19)
(0.546444 0.463953 -1.16557e-18)
(0.548129 0.464983 9.52172e-19)
(0.49201 0.379134 -3.6581e-19)
(0.405355 0.311146 8.28589e-19)
(0.733981 0.251761 -3.66546e-19)
(0.694729 0.277518 0)
(0.669432 0.197097 8.61432e-21)
(0.734085 0.505402 3.85189e-19)
(0.706418 0.474369 -1.4045e-18)
(0.616319 0.461886 1.44446e-20)
(0.623432 0.448188 0)
(0.682343 0.725685 4.07631e-19)
(0.84102 0.772357 4.14096e-19)
(0.763429 0.85557 -4.84001e-19)
(0.88594 0.808249 -1.64257e-19)
(0.914776 0.851182 -4.08923e-20)
(0.922498 0.851342 4.18803e-20)
(0.854088 0.645827 -7.16972e-19)
(0.935214 0.702042 1.52598e-19)
(0.991256 0.716073 0)
(0.982573 0.692598 -2.08423e-19)
(1.02165 0.329734 2.23089e-19)
(1.14427 0.298606 3.05607e-19)
(1.06492 0.269454 3.77934e-19)
(1.00914 0.361116 -4.48969e-19)
(1.05883 0.425553 0)
(1.11523 0.411873 0)
(0.917268 0.362726 5.75303e-21)
(0.840674 0.295105 0)
(0.88004 0.290664 4.17282e-19)
(0.907709 0.298722 -5.06612e-21)
(0.945474 0.431594 2.15762e-18)
(0.904949 0.489142 5.57855e-19)
(0.907662 0.454148 -5.92997e-19)
(0.825535 0.438183 6.35004e-19)
(0.808686 0.43094 3.81141e-19)
(0.778232 0.412535 -3.74693e-19)
(1.02718 -0.000452898 6.59746e-19)
(1.01999 -0.000111852 0)
(1.01848 0.000822788 4.30095e-19)
(1.02167 -0.00172562 -9.74332e-19)
(1.0223 0.00426491 4.73261e-19)
(1.02039 0.0112112 -9.91121e-19)
(1.02133 0.0106045 0)
(1.02064 0.0108679 -2.06514e-19)
(1.01598 0.00768681 5.18074e-19)
(1.0167 0.0104426 -2.58494e-19)
(1.01741 0.00979081 1.90381e-19)
(0.029298 1.31725 0)
(0.0323508 1.35717 0)
(0.0424879 1.31932 0)
(0.0427215 1.27527 0)
(0.0705925 1.38191 -3.84118e-21)
(0.0773215 1.35285 8.17109e-21)
(0.110443 1.51401 -2.44903e-20)
(0.0932876 1.36313 4.44979e-21)
(0.0340239 1.4548 -2.18202e-20)
(0.0377972 1.44773 1.7112e-20)
(0.0619701 1.36648 -8.0993e-21)
(0.0541274 1.36837 1.33824e-20)
(0.0467952 1.34362 1.81419e-21)
(0.0384879 1.36607 -1.44655e-21)
(0.106486 2.37203 -1.72304e-19)
(0.095283 2.41881 0)
(0.169206 2.04791 1.154e-19)
(0.108633 1.70974 4.85949e-20)
(0.229528 2.04447 -9.4438e-20)
(0.203784 2.43758 0)
(0.264491 2.38873 -6.1611e-19)
(0.302535 2.38679 4.369e-19)
(0.228899 2.00471 -2.62982e-19)
(0.152634 2.16513 1.74577e-19)
(0.142915 2.27659 0)
(0.0190174 1.87461 -3.07295e-20)
(0.000365537 2.39458 -7.78751e-20)
(0.00642555 2.14913 0)
(0.0119 2.45705 -1.36118e-20)
(0.0277574 2.30173 2.6921e-20)
(0.0190845 1.39543 -2.03453e-21)
(0.0208045 1.38166 3.79619e-20)
(0.0208597 1.38573 -1.44914e-20)
(0.0235013 1.38531 -8.20879e-21)
(0.028642 1.41733 0)
(0.0174836 1.36806 0)
(0.0112917 1.28942 -2.21224e-20)
(0.0114977 1.35821 5.44447e-21)
(0.0161992 1.35998 0)
(0.0147429 1.28412 -1.65236e-20)
(0.0238897 1.21668 3.4504e-20)
(1.04046 0.0114003 0)
(1.04646 0.00767518 -6.9128e-20)
(1.03854 0.0211549 -4.98434e-19)
(1.04804 0.0200481 0)
(1.05199 0.019917 0)
(1.03627 0.0114865 -6.69329e-21)
(1.03095 0.0113346 8.0054e-19)
(1.03175 0.0162592 9.70489e-19)
(1.02576 0.0201628 0)
(1.0229 0.0205502 0)
(1.03512 0.0249013 4.97029e-19)
(1.026 0.026179 0)
(1.02427 0.0261989 0)
(-0.0137164 2.02084 0)
(0.00787409 1.64775 -4.40706e-21)
(-0.000109224 1.7557 -2.35136e-20)
(0.0055578 1.36765 0)
(-0.00260798 1.54275 -6.01936e-21)
(0.0032815 1.44638 5.30122e-21)
(0.0035676 1.37714 0)
(0.390743 1.66676 0)
(0.367032 1.29838 -8.62061e-20)
(0.301937 1.34171 0)
(0.420553 1.2985 2.80484e-20)
(0.466654 1.45785 0)
(0.447637 1.4028 1.44279e-20)
(1.03624 2.68623 -1.55476e-20)
(0.966391 2.41138 -9.19421e-19)
(0.917408 2.19392 1.04658e-18)
(0.850768 2.37709 2.43742e-19)
(0.848058 2.49718 0)
(0.917946 2.49322 0)
(0.928514 2.37492 0)
(0.907392 2.36221 -9.4813e-19)
(0.689277 2.4644 -4.00983e-19)
(0.801608 2.45446 -9.88211e-20)
(0.812314 2.42819 7.52676e-20)
(0.69542 2.39334 0)
(0.800272 2.38928 0)
(0.758826 2.40172 -3.70618e-19)
(0.769362 2.4871 0)
(0.620431 1.09947 0)
(0.486585 0.923996 -5.09586e-19)
(0.559348 0.959325 -3.24034e-20)
(0.524141 1.05487 0)
(0.525109 1.00315 7.64939e-19)
(0.786227 0.880483 -1.36017e-19)
(0.793339 1.01797 0)
(0.767795 0.979255 1.9739e-19)
(0.653668 1.03623 0)
(0.658205 0.942295 0)
(1.16562 2.76032 -2.35481e-19)
(1.14338 2.82363 -1.00006e-19)
(0.932795 2.34265 1.04614e-19)
(0.900364 2.32149 -8.47284e-20)
(1.1307 2.73382 0)
(1.08405 2.70386 1.01993e-19)
(1.09075 2.48712 -3.20933e-19)
(0.985136 2.23682 -3.07243e-20)
(0.498021 1.35155 0)
(0.512342 1.07628 -1.25173e-19)
(0.568368 1.16926 0)
(0.857745 0.230329 0)
(0.782681 0.185317 0)
(0.721918 0.145472 0)
(0.852135 0.234365 -6.56804e-19)
(0.755996 0.22177 3.84475e-19)
(0.929101 0.0756106 -4.18138e-19)
(0.944643 0.121913 0)
(0.924361 0.135472 1.7931e-19)
(0.862541 0.110432 7.19845e-19)
(0.830672 0.0679558 -4.50426e-19)
(1.16126 3.35801 -7.19031e-19)
(1.20949 3.27729 0)
(1.15917 3.3863 -1.48322e-18)
(0.646724 3.54714 1.25988e-18)
(0.871079 3.11472 6.79355e-20)
(0.5208 0.8405 6.10732e-19)
(0.433868 0.837356 0)
(0.33144 0.46471 -1.54104e-19)
(0.456672 0.672508 8.75354e-19)
(0.540231 0.432048 -2.09718e-19)
(0.511001 0.495251 2.41261e-19)
(0.665029 0.520274 5.19792e-19)
(0.69646 0.546411 0)
(0.649834 0.600573 0)
(0.606773 0.541876 0)
(0.995976 0.602066 1.00024e-19)
(0.910786 0.538322 -5.4282e-19)
(0.937084 0.572193 4.12245e-19)
(0.969797 0.509396 -4.19388e-19)
(1.07615 0.482216 0)
(1.08277 0.571627 -1.04469e-19)
(0.848372 0.391279 -8.69499e-19)
(0.851102 0.380293 -1.07424e-18)
(0.794637 0.380415 6.78155e-19)
(0.793903 0.352019 -6.93256e-19)
(0.842925 0.313842 -5.4218e-19)
(0.793255 0.311915 6.65405e-19)
(1.02668 0.00573676 -5.045e-19)
(1.0264 0.00596025 1.02731e-18)
(1.02931 -8.82881e-05 6.39561e-19)
(1.03344 0.00080159 -7.70245e-19)
(1.03357 0.00870308 0)
(1.03006 0.00935222 -1.25331e-18)
(0.062907 1.64443 2.64688e-20)
(0.0452895 1.57735 0)
(0.0842099 1.69494 1.61833e-19)
(0.0949662 1.67688 -1.43289e-19)
(0.0866317 1.53025 4.59329e-20)
(0.0855694 1.51511 0)
(0.0151324 1.67379 0)
(0.00280026 1.47893 -3.41089e-22)
(0.00669505 1.42302 3.06721e-22)
(0.000815731 1.53761 6.13904e-21)
(0.0051272 1.87824 -9.26944e-22)
(-0.004745 1.93009 4.37083e-21)
(0.497604 1.3708 -2.81914e-19)
(0.490849 1.37406 3.09337e-19)
(0.446045 1.29538 -3.99405e-20)
(0.435494 1.29257 8.29023e-21)
(0.628064 1.30054 0)
(0.544904 1.3884 9.20314e-20)
(0.560323 1.39617 -8.96039e-20)
(0.45704 1.28122 3.88227e-20)
(0.512647 1.23639 0)
(0.565122 1.2036 0)
(0.655914 2.42341 5.89179e-19)
(0.670325 2.46155 1.28031e-18)
(0.716007 2.47309 -8.81958e-19)
(0.614121 2.44807 -2.06456e-19)
(0.560632 2.54005 2.87874e-19)
(0.509649 2.51331 -7.67242e-19)
(0.977262 2.38094 -5.85677e-19)
(1.01335 2.39422 0)
(0.924034 2.17207 -6.779e-19)
(1.05428 2.68323 0)
(1.05653 2.67002 0)
(0.610365 2.27024 -1.20707e-19)
(1.04236 3.16113 1.32802e-19)
(0.913244 3.03115 -3.62328e-20)
(0.278358 0.896669 0)
(0.314831 0.752916 -3.22224e-19)
(0.477816 0.710463 -3.24555e-19)
(0.387313 2.01654 0)
(0.466331 2.78376 -4.72914e-20)
(0.42179 2.54721 0)
(0.699243 0.672886 -8.63698e-19)
(0.782797 0.676715 1.17352e-18)
(0.80271 0.619338 -1.1613e-18)
(0.678212 0.635036 -1.11611e-19)
(0.733642 0.588841 -4.61475e-19)
(1.00505 2.76341 -1.00987e-19)
(1.0431 2.82092 -1.67552e-19)
(0.639078 2.14313 6.7663e-19)
(0.595829 1.71112 -4.82118e-19)
(0.70004 1.90474 -4.08865e-19)
(0.990805 2.44697 -1.14088e-19)
(0.996077 2.4398 3.00606e-19)
(0.659831 1.84161 2.83473e-20)
(0.452022 1.33233 1.46639e-19)
)
;

boundaryField
{
    wall-4
    {
        type            noSlip;
    }
    velocity-inlet-5
    {
        type            fixedValue;
        value           uniform (1 0 0);
    }
    velocity-inlet-6
    {
        type            fixedValue;
        value           uniform (0 3 0);
    }
    pressure-outlet-7
    {
        type            zeroGradient;
    }
    wall-8
    {
        type            noSlip;
    }
    frontAndBackPlanes
    {
        type            empty;
    }
}


// ************************************************************************* //
