/*--------------------------------*- C++ -*----------------------------------*\
  =========                 |
  \\      /  F ield         | OpenFOAM: The Open Source CFD Toolbox
   \\    /   O peration     | Website:  https://openfoam.org
    \\  /    A nd           | Version:  13
     \\/     M anipulation  |
\*---------------------------------------------------------------------------*/
FoamFile
{
    format      ascii;
    class       volScalarField;
    location    "51";
    object      p;
}
// * * * * * * * * * * * * * * * * * * * * * * * * * * * * * * * * * * * * * //

dimensions      [0 2 -2 0 0 0 0];

internalField   nonuniform List<scalar> 
918
(
0.560337
1.19707
0.00166581
0.559732
-0.00770797
1.16411
-0.499821
0.69544
0.54051
-0.0979539
-0.0307751
0.53809
1.02462
0.79059
-1.12038
-0.00246192
0.65748
-0.378808
0.539582
-0.04318
0.723649
0.547073
0.550101
0.540683
0.607315
0.767708
0.905511
0.0208417
0.00891865
0.00419488
-0.0124144
-0.0332821
-0.0286634
1.04776
1.09884
1.12153
0.508519
0.336977
-0.366512
-0.435769
-0.428623
-0.543627
0.690457
0.689116
-0.193887
0.6982
0.702523
0.527613
0.539877
0.540783
0.541832
0.540801
0.542189
0.412669
-0.10119
-0.133819
-0.0777409
-0.0691183
0.0661741
-0.0327624
-0.0351348
-0.0286369
-0.028871
0.458276
0.533058
0.530079
0.543369
0.552815
1.13662
1.10854
1.13469
1.04832
1.06485
1.00261
0.975282
0.811298
0.833063
0.775901
0.764461
-1.55496
-2.51133
-0.527832
-0.275724
-0.0150779
0.00111871
0.00729189
0.652807
0.652987
0.658402
0.664042
1.08626
-0.377823
-0.475618
0.539718
0.538521
0.546872
0.547569
0.543586
0.542677
-0.0341299
-0.0313575
-0.0410903
-0.0413998
-0.0394407
0.712736
0.711635
0.541218
0.538229
0.559611
0.580681
0.572898
0.284536
0.611289
0.62521
0.596495
0.760666
0.753642
0.762854
0.878957
0.842643
0.942781
0.965869
0.0171671
-0.000235613
-0.00931026
-0.016861
-0.0137252
0.504393
0.49701
0.523899
0.511914
0.514392
0.252912
0.118467
0.42265
0.447952
-0.283302
-0.345675
-0.424727
-0.453371
-0.564919
0.61388
0.682361
0.679553
-0.207941
-0.134812
-0.265946
-0.0614122
-0.122739
0.51794
0.524905
0.519928
0.535416
0.529898
0.531854
0.544131
0.541208
0.542765
0.475111
0.59892
0.339094
0.30444
-0.23982
-0.151287
-0.240786
-0.0571135
-0.0527769
0.0799602
0.105253
0.0533131
0.041424
-0.0457016
-0.0384373
-0.0417739
-0.0275255
-0.0278447
0.451149
0.440119
0.470862
0.478334
0.522331
0.52362
0.527321
0.525606
0.926064
0.948308
0.955976
0.929848
-3.50622
-6.29799
0.0509894
0.188199
-0.00515736
-0.0100982
0.00467739
-0.00796699
-0.00203232
-0.00351472
0.00536543
0.00350632
0.00711997
0.00966973
0.645557
0.645925
1.00624
1.00986
0.984744
0.936516
0.527875
0.529966
0.535489
0.53136
-0.026881
-0.0286863
-0.0264943
0.704504
0.709424
0.707811
0.246689
0.158278
0.334893
0.363545
0.638605
0.627525
0.637315
0.656337
0.693015
0.973268
0.991546
0.98976
0.99825
1.04234
1.05879
1.02408
0.484078
0.493932
0.488949
0.527055
0.524797
0.525717
0.521389
0.522783
0.520666
-0.0328285
-0.414753
0.497208
0.515312
0.497625
0.502276
0.693298
0.770601
0.665229
0.673649
0.671128
0.00687406
-0.0511999
0.260497
0.227166
0.391454
0.427435
0.40662
0.897181
0.857793
0.907846
0.88108
0.842608
0.867934
-0.366422
-1.87239
-0.988085
0.539339
0.352733
0.440092
0.0234496
0.00630603
0.0114089
1.00326
1.07854
0.65477
0.826954
0.831648
0.731173
0.760914
0.815904
0.742527
0.776387
0.810629
0.791444
0.570708
0.510466
0.524275
0.839715
0.895513
0.129503
0.0702994
0.0261089
0.123823
0.180395
0.154893
1.03989
0.950228
1.0212
0.537983
0.538693
4.91565e-05
-0.0113549
0.542893
0.542942
-0.0121176
0.00119016
0.423658
-0.829023
0.11194
0.531434
0.521477
0.538525
-0.0814298
0.365343
-0.0330428
0.0613007
0.0061564
0.53542
0.469203
0.428903
0.00547468
-0.0113051
-0.0371939
-0.209888
0.535655
0.533961
0.537993
0.538952
0.539622
-0.0118835
-0.00765511
-0.00567896
-0.0353613
-0.0310275
-0.0414019
0.502709
0.521167
-0.163598
0.538132
0.540259
0.540081
0.533311
0.538953
0.537196
-0.00329618
-0.0112308
-0.0117942
0.228594
0.357124
0.665498
0.754281
0.636622
0.410904
0.174474
0.567284
0.63139
0.536195
0.690885
0.678655
0.693607
0.177207
0.0272853
0.186242
0.127818
0.529293
0.527983
0.519735
0.516746
0.533388
0.531492
0.536058
0.533057
0.536008
0.5374
-0.0392247
-0.0627649
-0.0767926
-0.143554
0.320332
0.582059
0.262361
0.292959
0.153451
-0.0260582
-0.0263572
-0.0319813
-0.0385902
0.0156709
-0.00874281
0.0565491
0.0572424
0.0300117
0.00307085
0.00770661
-0.00350188
-0.000160771
0.52848
0.526875
0.533287
0.542514
0.478733
0.48249
0.447812
0.468276
0.453687
0.39322
0.428179
0.403441
-0.00180472
0.00925516
-0.000135761
-0.00716897
-0.00259448
-0.0219282
-0.0198936
-0.0157431
-0.0123357
-0.0193608
-0.031438
-0.0293636
-0.168617
-0.284004
0.992665
0.919152
0.135447
0.524827
0.531262
0.528038
0.532907
0.536032
0.536853
0.53458
0.531135
0.521572
0.523163
0.519889
0.520663
-0.0956272
-0.236068
-0.0647843
-0.136703
0.147489
0.629969
0.36904
0.305992
0.300901
0.527828
0.930321
0.717492
0.694061
0.708457
-0.337167
0.0556308
-0.271981
0.346299
0.170309
0.663432
0.713238
0.735566
0.682981
0.635656
-0.10165
0.559594
-0.061372
-0.0114868
0.188327
0.0688885
0.691897
0.663085
0.666486
0.68348
0.700441
0.669166
0.652744
0.647371
0.679797
0.683296
0.497259
0.259858
0.212012
0.173294
0.648012
0.533467
0.58736
0.502873
0.524409
0.527069
0.525688
0.507497
0.515016
0.510592
0.516928
0.520338
0.529101
0.52953
0.524857
0.527007
-0.0435636
-0.0467652
-0.0211884
-0.130937
-0.121848
-0.183435
-0.0568975
0.0811399
0.0431101
0.240495
0.346206
0.0579178
-0.0538211
-0.0261069
0.0130261
0.184487
0.210421
0.0845345
0.173167
0.161481
0.144911
0.246504
0.251247
-0.0126646
-0.0169201
-0.0200786
-0.0218388
0.0324178
0.102184
0.112037
0.0104243
0.00464526
-0.025098
-0.0245661
-0.0106241
-0.014832
-0.0111727
0.0229394
-0.0404147
-0.00826624
0.00727756
0.0131073
0.009875
0.00493499
0.520796
0.523103
0.522733
0.530039
0.548444
0.564582
0.520964
0.500716
0.491601
0.494592
0.467812
0.478018
0.473695
0.487348
0.508399
0.517708
0.51508
0.517832
0.500544
0.502213
0.488773
0.492469
0.467601
0.448806
0.43701
-0.0315179
0.00561756
-0.00077519
-0.0296259
-0.00122822
-0.0134883
0.00324925
0.021961
0.00599155
0.00317432
-0.00666728
-0.0141269
-0.0132724
-0.0702082
0.0149359
-0.178408
-0.216195
-0.285997
0.894245
1.01794
0.816268
0.589633
0.607177
0.850028
0.935533
0.551877
0.741417
0.765461
0.588944
0.854422
0.529645
0.529253
0.526856
0.526332
0.527552
-0.0030585
0.100602
0.102187
0.162844
0.279466
0.392212
0.319173
0.193936
0.325156
0.328323
0.622366
0.635069
0.590621
0.614486
0.614927
0.431774
0.507592
0.559941
0.51699
0.568839
0.589719
0.545617
0.577834
0.52808
0.48269
0.478851
0.429413
0.449181
0.425828
0.40847
0.519725
0.496986
0.507548
0.497839
0.517326
0.541664
0.538281
0.570471
0.581441
0.501371
0.457595
0.466862
0.497256
0.458043
0.472991
0.48917
0.234032
0.135101
0.217897
-0.0704912
0.00465188
-0.00942229
-0.0571886
-0.00817865
0.276974
-0.417198
-0.392925
-1.02277
0.503661
0.96217
0.63999
0.613123
0.697326
0.679242
0.684191
0.701258
0.70544
0.638261
0.654384
0.656454
0.619233
0.642605
0.662635
0.659793
0.529528
0.393969
0.390373
0.341512
0.211807
0.249976
0.450162
0.372606
0.297485
0.298569
0.465206
0.35248
0.42148
0.457386
0.388519
0.342395
0.546196
0.611332
0.603165
0.577392
0.493532
0.507179
0.531274
0.566451
0.592381
0.623547
0.516472
0.522336
0.52358
0.521073
0.51833
0.521332
0.521529
0.524064
0.524773
0.52774
0.526767
-0.033589
-0.0214729
-0.0345233
-0.0426174
-0.0109614
-0.0148359
0.0286819
0.0150887
-0.000444693
0.00562926
-0.0206968
-0.0249735
-0.0200559
-0.0108819
0.106974
0.119598
0.103293
0.0637785
0.253858
0.384404
0.457489
0.333506
0.226349
0.249956
0.27101
-0.00120345
0.0266508
0.0137558
0.0521761
0.0433789
-0.0187218
-0.0232526
-0.0208403
-0.0137937
-0.00472284
-0.021299
-0.0234849
-0.0154441
-0.0194554
-0.0195047
-0.0228395
0.502942
0.496475
0.498159
0.492048
0.490774
0.50497
0.509185
0.511149
0.516567
0.518803
0.509011
0.514681
0.518426
0.00381437
-0.0205061
-0.0238994
-0.0113235
-0.015704
-0.0147565
-0.0167782
0.124676
0.0530998
0.0576434
0.0116338
-0.118238
-0.0607304
0.492744
0.492688
0.48511
0.722234
0.571841
0.492374
0.589739
0.694914
0.276173
0.474613
0.308393
0.890689
0.785757
0.932188
0.544505
0.246161
0.40601
0.453646
0.264013
0.337061
0.331436
0.219031
0.250671
0.286116
0.387135
0.267543
0.243512
0.00103895
0.190408
0.304076
0.285668
0.41211
0.474088
0.266275
0.18761
0.141631
0.609147
0.628005
0.643381
0.616014
0.636764
0.580137
0.568933
0.587252
0.596996
0.591837
-0.75038
-0.456965
-1.4028
-0.721276
-0.268239
0.534461
0.501692
0.770757
0.652798
0.702305
0.687108
0.645344
0.613165
0.632707
0.659328
0.354648
0.465973
0.441038
0.446119
0.347511
0.27888
0.578879
0.573476
0.607928
0.631515
0.601262
0.632201
0.514276
0.513959
0.513502
0.50979
0.508048
0.510357
0.0674733
0.0365979
0.0719049
0.0525301
0.0297907
0.0183294
0.00775735
-0.00194717
-0.00849946
-0.00956883
0.00434357
0.0078791
0.170943
0.110283
0.0305513
0.0603023
0.000505791
-0.0681407
-0.0857509
0.0160181
0.110995
0.101653
0.406647
0.657749
0.477681
0.645011
0.486448
0.542273
0.474271
0.466064
0.492476
0.382639
0.46236
0.242246
-0.264892
-0.173448
0.790764
0.804881
0.586474
0.406613
0.175001
0.3575
0.550445
0.483187
0.520158
0.589238
0.578271
0.0233589
0.0850843
0.360569
0.587921
0.240529
0.231492
0.225667
0.405521
0.326204
)
;

boundaryField
{
    wall-4
    {
        type            zeroGradient;
    }
    velocity-inlet-5
    {
        type            zeroGradient;
    }
    velocity-inlet-6
    {
        type            zeroGradient;
    }
    pressure-outlet-7
    {
        type            fixedValue;
        value           uniform 0;
    }
    wall-8
    {
        type            zeroGradient;
    }
    frontAndBackPlanes
    {
        type            empty;
    }
}


// ************************************************************************* //
