/*--------------------------------*- C++ -*----------------------------------*\
  =========                 |
  \\      /  F ield         | OpenFOAM: The Open Source CFD Toolbox
   \\    /   O peration     | Website:  https://openfoam.org
    \\  /    A nd           | Version:  13
     \\/     M anipulation  |
\*---------------------------------------------------------------------------*/
FoamFile
{
    format      ascii;
    class       volScalarField;
    location    "33";
    object      p;
}
// * * * * * * * * * * * * * * * * * * * * * * * * * * * * * * * * * * * * * //

dimensions      [0 2 -2 0 0 0 0];

internalField   nonuniform List<scalar> 
918
(
0.570433
1.22097
0.0141572
0.569728
-0.00996434
1.18802
-0.485585
0.740278
0.550554
-0.0760042
-0.0108651
0.544802
1.04848
0.814878
-1.11588
0.115545
0.691202
-0.365481
0.549552
-0.0859886
0.773152
0.55716
0.560197
0.550787
0.61126
0.79674
0.929187
-0.0522866
-0.00682998
-0.0267154
0.00343805
0.0108345
0.0393526
1.07168
1.12275
1.14543
0.518997
0.344577
-0.345959
-0.417714
-0.409694
-0.525212
0.731725
0.733698
-0.155383
0.741062
0.750725
0.537814
0.549916
0.550807
0.551917
0.550859
0.552261
0.427034
-0.0836521
-0.114417
-0.0549314
-0.0462193
0.101787
-0.0137006
-0.0185455
-0.00774634
-0.0125672
0.470666
0.54096
0.538063
0.549572
0.55737
1.16051
1.13244
1.15858
1.07219
1.08873
1.02647
0.999064
0.835424
0.856814
0.799695
0.788841
-1.55385
-2.51699
-0.519631
-0.265102
-0.0427385
0.100431
0.102807
0.682139
0.681875
0.692232
0.704671
1.09254
-0.360327
-0.482687
0.549694
0.548487
0.556872
0.557565
0.553575
0.552671
-0.0808849
-0.0679814
-0.0949241
-0.0900296
-0.0890093
0.762206
0.761066
0.551332
0.548353
0.564729
0.584881
0.576917
0.304423
0.61586
0.629999
0.617344
0.786183
0.780403
0.789236
0.902689
0.865791
0.966542
0.989761
-0.0484097
-0.0602029
0.131743
0.088782
0.103606
0.51496
0.507728
0.533656
0.522342
0.524745
0.259894
0.124498
0.430781
0.456245
-0.257465
-0.320413
-0.419182
-0.439045
-0.541667
0.616286
0.720335
0.721072
-0.175011
-0.095965
-0.232601
-0.0227144
-0.0838672
0.52825
0.535138
0.530216
0.54555
0.540072
0.542008
0.554139
0.551221
0.55278
0.491063
0.615644
0.354388
0.321863
-0.226648
-0.132595
-0.229044
-0.0342868
-0.0282877
0.108055
0.126915
0.0912527
0.0834981
-0.0259322
-0.0190921
-0.0243633
-0.0163474
-0.0220783
0.46367
0.453176
0.482741
0.489736
0.531597
0.53265
0.535649
0.534333
0.949896
0.972184
0.97973
0.953595
-3.5188
-6.32328
0.0645111
0.203763
-0.109714
-0.106401
-0.0602981
-0.0159494
-0.0389258
-0.0098777
0.0679622
0.0626158
0.0734775
0.0787741
0.666666
0.666289
1.0094
1.00662
0.993509
0.943228
0.537749
0.539871
0.545436
0.541278
-0.0341992
-0.0599807
-0.0432375
0.749376
0.756572
0.756184
0.268075
0.183584
0.352833
0.380117
0.652437
0.635199
0.649491
0.678365
0.714829
0.997174
1.01541
1.01369
1.02214
1.06625
1.08272
1.04794
0.495206
0.504757
0.499984
0.536908
0.534569
0.535533
0.530888
0.532479
0.530212
-0.0278738
-0.411901
0.514065
0.530171
0.505401
0.514241
0.693094
0.76519
0.703898
0.712948
0.712956
0.0431968
-0.0139622
0.278312
0.244358
0.40657
0.441009
0.421125
0.920911
0.881618
0.931563
0.904979
0.866427
0.891996
-0.363686
-1.87842
-0.988963
0.559299
0.370018
0.458573
0.0681981
0.0607933
0.0655002
0.999486
1.07905
0.671382
0.835664
0.845448
0.754116
0.784943
0.838708
0.764366
0.798946
0.834114
0.816153
0.573335
0.527066
0.532033
0.83307
0.888121
0.15739
0.103415
0.0593476
0.148058
0.200898
0.17918
1.04533
0.944895
1.0166
0.548099
0.548786
-0.0998855
-0.102974
0.552901
0.552933
-0.0187039
0.0363994
0.441194
-0.82546
0.146545
0.541363
0.531689
0.548562
-0.060665
0.385606
-0.0198213
0.0933709
0.0609554
0.5421
0.480536
0.442096
-0.163735
0.0874206
-0.0736878
-0.189118
0.545772
0.544085
0.548027
0.549027
0.549682
-0.189147
-0.144026
-0.16208
-0.116969
-0.113101
-0.104399
0.513405
0.530388
-0.142003
0.54814
0.550285
0.550091
0.543246
0.548915
0.547146
0.0474484
0.0451915
0.0949064
0.253712
0.37243
0.688862
0.784639
0.653834
0.427022
0.188195
0.588278
0.654256
0.556187
0.715198
0.71371
0.732599
0.209259
0.0615742
0.217322
0.160314
0.539231
0.537887
0.529927
0.527045
0.543433
0.54153
0.546067
0.543017
0.545994
0.547428
-0.0192164
-0.0389685
-0.0587615
-0.117452
0.342769
0.60222
0.279478
0.310729
0.182511
-0.00648955
-0.0118465
-0.0193086
-0.0258605
0.0355144
0.0403495
0.0878696
0.0959906
0.0787173
0.0557858
0.0336411
0.0295696
0.0213765
0.53605
0.534806
0.540682
0.548983
0.48965
0.493511
0.460061
0.479776
0.465801
0.406807
0.441388
0.416643
-0.0401428
-0.115243
-0.0599919
0.0651662
0.0589238
-0.100124
-0.157426
-0.135547
-0.139751
-0.154581
-0.0559008
-0.0581975
-0.149996
-0.264168
0.996562
0.937142
0.135045
0.535
0.541392
0.538202
0.542987
0.546068
0.546931
0.544686
0.541252
0.531009
0.532786
0.529119
0.529716
-0.0817256
-0.218854
-0.0436788
-0.110821
0.153737
0.645478
0.385787
0.326487
0.320167
0.541316
0.937839
0.733904
0.730799
0.753803
-0.329847
0.0666135
-0.262962
0.35546
0.177663
0.686453
0.737433
0.760739
0.707145
0.658333
-0.0983089
0.561178
-0.0311833
0.0137397
0.205852
0.0984277
0.731918
0.697163
0.702581
0.719886
0.738693
0.702791
0.682387
0.677044
0.71621
0.721143
0.516705
0.286684
0.242091
0.203622
0.680959
0.557724
0.61558
0.528572
0.534153
0.536962
0.535537
0.518067
0.525351
0.521079
0.526877
0.530033
0.539153
0.539495
0.534922
0.537088
-0.0231972
-0.0262402
-0.00460215
-0.114114
-0.101678
-0.160628
-0.0437471
0.0913175
0.0561521
0.247965
0.354581
0.0673289
-0.046312
-0.0158491
0.0127222
0.192298
0.217523
0.0998919
0.197232
0.176295
0.163436
0.264982
0.273795
0.00857413
0.00218488
-0.00514362
-0.00432477
0.060721
0.134035
0.14464
0.0341626
0.0319394
-0.00232732
-0.00794114
0.00703957
0.00304042
0.00681839
0.0451989
-0.043905
0.0322527
0.0341332
0.0380031
0.0456967
0.0382222
0.529703
0.531582
0.531374
0.53835
0.554987
0.569904
0.531053
0.511444
0.502483
0.505475
0.479417
0.489309
0.485823
0.498138
0.518443
0.52676
0.525057
0.527508
0.510871
0.512352
0.49995
0.503368
0.480096
0.46165
0.450095
-0.0718157
-0.0877917
-0.0788262
-0.0533208
-0.0523676
-0.0312358
0.0585469
0.0623447
0.0545441
0.0539744
0.0498543
-0.0796057
-0.0705729
-0.0602692
0.0175702
-0.168635
-0.201865
-0.273844
0.901874
1.01935
0.827777
0.605157
0.614438
0.852698
0.939824
0.568067
0.749108
0.774384
0.588531
0.848824
0.539806
0.539364
0.536967
0.536461
0.537687
0.0061537
0.10621
0.116584
0.170562
0.286099
0.399797
0.322323
0.194602
0.32836
0.334147
0.640426
0.656341
0.603293
0.626926
0.624338
0.452661
0.530216
0.585929
0.538324
0.584354
0.606621
0.567195
0.597591
0.543462
0.500336
0.499004
0.445729
0.46639
0.444723
0.426891
0.529369
0.507228
0.517746
0.508271
0.528003
0.554044
0.549105
0.576151
0.587378
0.513245
0.473324
0.483014
0.511471
0.471869
0.484794
0.500407
0.237523
0.137855
0.221276
-0.0713408
0.00948052
-0.00586423
-0.0528533
-0.00694685
0.279307
-0.419687
-0.392784
-1.02585
0.50145
0.96907
0.685773
0.657173
0.734365
0.712947
0.715543
0.738297
0.745558
0.670602
0.688446
0.692519
0.647841
0.671787
0.693575
0.691883
0.53507
0.4098
0.400697
0.36155
0.237249
0.270469
0.472998
0.395218
0.322217
0.326275
0.488473
0.377779
0.443952
0.482265
0.413975
0.36911
0.5722
0.639034
0.629283
0.604882
0.520188
0.533101
0.558425
0.594439
0.621608
0.65332
0.526628
0.532425
0.533696
0.531217
0.528359
0.531278
0.531357
0.533893
0.53474
0.537648
0.536646
-0.0192012
-0.00739718
-0.0143307
-0.0222308
0.00601282
-0.00156852
0.0415048
0.0293624
0.0188225
0.0263235
-0.00187746
-0.00727121
9.86964e-05
0.00917861
0.120769
0.13472
0.116642
0.0757136
0.260483
0.392723
0.461274
0.339713
0.233839
0.256869
0.282362
0.0167023
0.0498191
0.0336264
0.0760539
0.0612176
0.00194703
-0.00498523
-0.0080948
0.0109501
0.0193577
-0.0115575
-0.0336074
-0.0146426
-0.0155791
-0.0185843
-0.0347584
0.513557
0.507153
0.508457
0.502598
0.501434
0.515037
0.51926
0.520966
0.526215
0.528077
0.518764
0.524117
0.527603
0.0205741
-0.046853
-0.0196614
-0.00965431
-0.0343846
-0.0483201
-0.0348564
0.129206
0.0548545
0.0606046
0.0188523
-0.105871
-0.0494415
0.495898
0.495067
0.498582
0.721759
0.573359
0.493703
0.590603
0.695444
0.277076
0.477146
0.309495
0.890614
0.782884
0.927753
0.546942
0.24996
0.404555
0.454446
0.263743
0.336493
0.340925
0.231057
0.262829
0.294059
0.393828
0.273755
0.248502
0.00640175
0.194464
0.310738
0.291619
0.420248
0.48388
0.268169
0.189737
0.143628
0.632607
0.652274
0.671647
0.641413
0.666141
0.588781
0.580263
0.598288
0.606086
0.600421
-0.754227
-0.462152
-1.40656
-0.721954
-0.272593
0.530853
0.495191
0.770791
0.659991
0.724838
0.71039
0.671325
0.637384
0.648797
0.681323
0.382139
0.491935
0.466537
0.472426
0.375068
0.308418
0.607534
0.601416
0.637028
0.661395
0.629014
0.662324
0.524302
0.524016
0.523572
0.520122
0.518632
0.520735
0.081495
0.0530797
0.0841546
0.0643495
0.0436026
0.0330571
0.0339041
0.019509
0.010685
0.00223682
0.0326746
0.039459
0.171692
0.113227
0.0359025
0.0661319
0.00836057
-0.0581572
-0.0767974
0.0220846
0.114284
0.105411
0.408829
0.65986
0.48189
0.650816
0.489592
0.545314
0.489017
0.479415
0.509086
0.38968
0.468085
0.230463
-0.272144
-0.181284
0.786329
0.805058
0.587421
0.40103
0.171812
0.360662
0.562106
0.498684
0.537384
0.606068
0.598157
0.0176745
0.0850204
0.344865
0.573212
0.242307
0.233214
0.228404
0.40274
0.327086
)
;

boundaryField
{
    wall-4
    {
        type            zeroGradient;
    }
    velocity-inlet-5
    {
        type            zeroGradient;
    }
    velocity-inlet-6
    {
        type            zeroGradient;
    }
    pressure-outlet-7
    {
        type            fixedValue;
        value           uniform 0;
    }
    wall-8
    {
        type            zeroGradient;
    }
    frontAndBackPlanes
    {
        type            empty;
    }
}


// ************************************************************************* //
