/*--------------------------------*- C++ -*----------------------------------*\
  =========                 |
  \\      /  F ield         | OpenFOAM: The Open Source CFD Toolbox
   \\    /   O peration     | Website:  https://openfoam.org
    \\  /    A nd           | Version:  13
     \\/     M anipulation  |
\*---------------------------------------------------------------------------*/
FoamFile
{
    format      ascii;
    class       volScalarField;
    location    "0.18";
    object      T;
}
// * * * * * * * * * * * * * * * * * * * * * * * * * * * * * * * * * * * * * //

dimensions      [0 0 0 1 0 0 0];

internalField   nonuniform List<scalar> 
1000
(
0
0
0
0
0
0
0
0
0
0
0
0
0
0
0
0
0
0
0
0
0
0
0
0
0
0
0
0
0
0
0
0
0
0
0
0
0
0
0
0
0
0
0
0
0
0
0
0
0
0
0
0
0
0
0
0
0
0
0
0
0
0
0
0
0
0
0
0
0
0
0
0
0
0
0
0
0
0
0
0
0
0
0
0
0
0
8.39912e-323
1.68476e-321
2.92388e-320
5.01501e-319
8.57055e-318
1.46122e-316
2.48555e-315
4.21818e-314
7.14201e-313
1.20644e-311
2.03318e-310
3.41846e-309
5.73408e-308
9.59562e-307
1.60198e-305
2.66814e-304
4.4333e-303
7.34865e-302
1.2152e-300
2.00468e-299
3.29908e-298
5.41615e-297
8.87021e-296
1.44917e-294
2.36179e-293
3.83972e-292
6.22714e-291
1.00741e-289
1.62572e-288
2.61701e-287
4.20226e-286
6.7309e-285
1.0754e-283
1.71386e-282
2.72447e-281
4.32001e-280
6.83254e-279
1.07788e-277
1.69607e-276
2.66195e-275
4.1671e-274
6.50642e-273
1.01326e-271
1.57386e-270
2.43823e-269
3.7674e-268
5.80582e-267
8.92349e-266
1.36789e-264
2.09128e-263
3.18867e-262
4.84887e-261
7.35362e-260
1.11221e-258
1.67762e-257
2.52358e-256
3.78576e-255
5.66365e-254
8.44975e-253
1.25716e-251
1.86523e-250
2.75971e-249
4.07174e-248
5.99071e-247
8.78927e-246
1.28588e-244
1.87592e-243
2.72892e-242
3.95846e-241
5.72552e-240
8.25756e-239
1.1875e-237
1.70276e-236
2.43448e-235
3.47049e-234
4.93285e-233
6.99078e-232
9.87796e-231
1.39161e-229
1.95467e-228
2.73734e-227
3.82189e-226
5.32005e-225
7.38309e-224
1.0215e-222
1.40901e-221
1.93756e-220
2.65619e-219
3.63012e-218
4.94578e-217
6.71731e-216
9.09488e-215
1.22753e-213
1.65158e-212
2.21509e-211
2.96142e-210
3.9466e-209
5.24267e-208
6.94198e-207
9.16241e-206
1.20539e-204
1.58061e-203
2.06587e-202
2.69124e-201
3.49436e-200
4.52213e-199
5.83272e-198
7.49802e-197
9.60646e-196
1.22663e-194
1.56097e-193
1.97969e-192
2.50216e-191
3.15168e-190
3.95614e-189
4.94878e-188
6.16898e-187
7.66322e-186
9.48605e-185
1.17012e-183
1.43825e-182
1.76156e-181
2.14984e-180
2.61431e-179
3.1677e-178
3.82434e-177
4.60035e-176
5.51362e-175
6.58399e-174
7.8332e-173
9.28497e-172
1.09649e-170
1.29005e-169
1.51208e-168
1.76564e-167
2.05392e-166
2.38019e-165
2.74773e-164
3.15986e-163
3.61978e-162
4.13056e-161
4.69506e-160
5.31582e-159
5.99497e-158
6.73418e-157
7.53448e-156
8.39625e-155
9.31905e-154
1.03016e-152
1.13416e-151
1.24357e-150
1.35796e-149
1.47678e-148
1.59935e-147
1.72491e-146
1.85255e-145
1.98128e-144
2.11003e-143
2.23761e-142
2.3628e-141
2.4843e-140
2.6008e-139
2.71098e-138
2.81352e-137
2.90718e-136
2.99073e-135
3.06309e-134
3.12325e-133
3.17037e-132
3.20373e-131
3.22282e-130
3.22729e-129
3.21702e-128
3.19204e-127
3.15264e-126
3.09927e-125
3.03258e-124
2.95338e-123
2.86268e-122
2.76159e-121
2.65134e-120
2.53327e-119
2.40877e-118
2.27926e-117
2.14618e-116
2.01094e-115
1.8749e-114
1.73938e-113
1.60558e-112
1.47462e-111
1.34749e-110
1.22505e-109
1.10803e-108
9.97026e-108
8.92492e-107
7.94751e-106
7.04001e-105
6.20321e-104
5.43684e-103
4.73968e-102
4.10969e-101
3.54415e-100
3.03979e-99
2.59292e-98
2.19954e-97
1.85548e-96
1.5565e-95
1.29835e-94
1.07688e-93
8.88107e-93
7.28223e-92
5.93676e-91
4.81175e-90
3.87712e-89
3.10564e-88
2.47291e-87
1.95735e-86
1.53996e-85
1.20424e-84
9.35973e-84
7.23005e-83
5.55044e-82
4.23452e-81
3.21033e-80
2.41851e-79
1.8104e-78
1.34653e-77
9.95052e-77
7.30545e-76
5.32841e-75
3.86079e-74
2.77884e-73
1.98671e-72
1.41082e-71
9.95058e-71
6.97019e-70
4.84883e-69
3.34967e-68
2.29783e-67
1.56516e-66
1.05852e-65
7.10753e-65
4.73795e-64
3.13537e-63
2.05963e-62
1.34296e-61
8.69136e-61
5.58258e-60
3.55858e-59
2.25106e-58
1.41298e-57
8.80032e-57
5.43804e-56
3.33381e-55
2.02751e-54
1.22314e-53
7.31908e-53
4.34378e-52
2.5567e-51
1.49231e-50
8.63723e-50
4.9567e-49
2.8202e-48
1.59075e-47
8.89459e-47
4.92962e-46
2.70788e-45
1.47414e-44
7.95248e-44
4.25093e-43
2.25136e-42
1.18126e-41
6.1397e-41
3.16088e-40
1.61171e-39
8.13851e-39
4.06945e-38
2.01474e-37
9.87523e-37
4.79158e-36
2.30126e-35
1.09386e-34
5.14544e-34
2.39495e-33
1.1029e-32
5.02446e-32
2.26416e-31
1.00911e-30
4.4476e-30
1.9383e-29
8.3515e-29
3.55716e-28
1.49754e-27
6.23066e-27
2.56159e-26
1.0405e-25
4.17518e-25
1.65479e-24
6.47709e-24
2.50336e-23
9.55228e-23
3.598e-22
1.33757e-21
4.90689e-21
1.77605e-20
6.34145e-20
2.23324e-19
7.75562e-19
2.65556e-18
8.96343e-18
2.98188e-17
9.77512e-17
3.15708e-16
1.00437e-15
3.14677e-15
9.70744e-15
2.94799e-14
8.81119e-14
2.59143e-13
7.49799e-13
2.1338e-12
5.9713e-12
1.64282e-11
4.44237e-11
1.18043e-10
3.08154e-10
7.90106e-10
1.98925e-09
4.91669e-09
1.19269e-08
2.83883e-08
6.62832e-08
1.51777e-07
3.40752e-07
7.49873e-07
1.61713e-06
3.41662e-06
7.0703e-06
1.43271e-05
2.84219e-05
5.51847e-05
0.000104847
0.000194878
0.000354285
0.000629849
0.00109479
0.00186023
0.00308941
0.00501419
0.0079524
0.0123236
0.0186593
0.0276042
0.0399015
0.0563607
0.0778025
0.104985
0.138512
0.178738
0.225681
0.278955
0.337746
0.400826
0.46663
0.53337
0.599174
0.662254
0.721045
0.774319
0.821262
0.861488
0.895015
0.922197
0.943639
0.960098
0.972396
0.981341
0.987676
0.992048
0.994986
0.996911
0.99814
0.998905
0.99937
0.999646
0.999805
0.999895
0.999945
0.999972
0.999986
0.999993
0.999997
0.999998
0.999999
1
1
1
1
1
1
1
1
1
1
1
1
1
1
1
1
1
1
1
1
1
1
1
1
1
1
1
1
1
1
1
1
1
1
1
1
1
1
1
1
0.999999
0.999998
0.999997
0.999993
0.999986
0.999972
0.999945
0.999895
0.999805
0.999646
0.99937
0.998905
0.99814
0.996911
0.994986
0.992048
0.987676
0.981341
0.972396
0.960098
0.943639
0.922197
0.895015
0.861488
0.821262
0.774319
0.721045
0.662254
0.599174
0.53337
0.46663
0.400826
0.337746
0.278955
0.225681
0.178738
0.138512
0.104985
0.0778025
0.0563607
0.0399015
0.0276042
0.0186593
0.0123236
0.0079524
0.00501419
0.00308941
0.00186023
0.00109479
0.000629849
0.000354285
0.000194878
0.000104847
5.51847e-05
2.84219e-05
1.43271e-05
7.0703e-06
3.41662e-06
1.61713e-06
7.49873e-07
3.40752e-07
1.51777e-07
6.62832e-08
2.83883e-08
1.19269e-08
4.91669e-09
1.98925e-09
7.90106e-10
3.08154e-10
1.18043e-10
4.44237e-11
1.64282e-11
5.9713e-12
2.1338e-12
7.49799e-13
2.59143e-13
8.81119e-14
2.94799e-14
9.70744e-15
3.14677e-15
1.00437e-15
3.15708e-16
9.77512e-17
2.98188e-17
8.96343e-18
2.65556e-18
7.75562e-19
2.23324e-19
6.34145e-20
1.77605e-20
4.90689e-21
1.33757e-21
3.598e-22
9.55228e-23
2.50336e-23
6.47709e-24
1.65479e-24
4.17518e-25
1.0405e-25
2.56159e-26
6.23066e-27
1.49754e-27
3.55716e-28
8.3515e-29
1.9383e-29
4.4476e-30
1.00911e-30
2.26416e-31
5.02446e-32
1.1029e-32
2.39495e-33
5.14544e-34
1.09386e-34
2.30126e-35
4.79158e-36
9.87523e-37
2.01474e-37
4.06945e-38
8.13851e-39
1.61171e-39
3.16088e-40
6.1397e-41
1.18126e-41
2.25136e-42
4.25093e-43
7.95248e-44
1.47414e-44
2.70788e-45
4.92962e-46
8.89459e-47
1.59075e-47
2.8202e-48
4.9567e-49
8.63723e-50
1.49231e-50
2.5567e-51
4.34378e-52
7.31908e-53
1.22314e-53
2.02751e-54
3.33381e-55
5.43804e-56
8.80032e-57
1.41298e-57
2.25106e-58
3.55858e-59
5.58258e-60
8.69136e-61
1.34296e-61
2.05963e-62
3.13537e-63
4.73795e-64
7.10753e-65
1.05852e-65
1.56516e-66
2.29783e-67
3.34967e-68
4.84883e-69
6.97019e-70
9.95058e-71
1.41082e-71
1.98671e-72
2.77884e-73
3.86079e-74
5.32841e-75
7.30545e-76
9.95052e-77
1.34653e-77
1.8104e-78
2.41851e-79
3.21033e-80
4.23452e-81
5.55044e-82
7.23005e-83
9.35973e-84
1.20424e-84
1.53996e-85
1.95735e-86
2.47291e-87
3.10564e-88
3.87712e-89
4.81175e-90
5.93676e-91
7.28223e-92
8.88107e-93
1.07688e-93
1.29835e-94
1.5565e-95
1.85548e-96
2.19954e-97
2.59292e-98
3.03979e-99
3.54415e-100
4.10969e-101
4.73968e-102
5.43684e-103
6.20321e-104
7.04001e-105
7.94751e-106
8.92492e-107
9.97026e-108
1.10803e-108
1.22505e-109
1.34749e-110
1.47462e-111
1.60558e-112
1.73938e-113
1.8749e-114
2.01094e-115
2.14618e-116
2.27926e-117
2.40877e-118
2.53327e-119
2.65134e-120
2.76159e-121
2.86268e-122
2.95338e-123
3.03258e-124
3.09927e-125
3.15264e-126
3.19204e-127
3.21702e-128
3.22729e-129
3.22282e-130
3.20373e-131
3.17037e-132
3.12325e-133
3.06309e-134
2.99073e-135
2.90718e-136
2.81352e-137
2.71098e-138
2.6008e-139
2.4843e-140
2.3628e-141
2.23761e-142
2.11003e-143
1.98128e-144
1.85255e-145
1.72491e-146
1.59935e-147
1.47678e-148
1.35796e-149
1.24357e-150
1.13416e-151
1.03016e-152
9.31905e-154
8.39625e-155
7.53448e-156
6.73418e-157
5.99497e-158
5.31582e-159
4.69506e-160
4.13056e-161
3.61978e-162
3.15986e-163
2.74773e-164
2.38019e-165
2.05392e-166
1.76564e-167
1.51208e-168
1.29005e-169
1.09649e-170
9.28497e-172
7.8332e-173
6.58399e-174
5.51362e-175
4.60035e-176
3.82434e-177
3.1677e-178
2.61431e-179
2.14984e-180
1.76156e-181
1.43825e-182
1.17012e-183
9.48605e-185
7.66322e-186
6.16898e-187
4.94878e-188
3.95614e-189
3.15168e-190
2.50216e-191
1.97969e-192
1.56097e-193
1.22663e-194
9.60646e-196
7.49802e-197
5.83272e-198
4.52213e-199
3.49436e-200
2.69124e-201
2.06587e-202
1.58061e-203
1.20539e-204
9.16241e-206
6.94198e-207
5.24267e-208
3.9466e-209
2.96142e-210
2.21509e-211
1.65158e-212
1.22753e-213
9.09488e-215
6.71731e-216
4.94578e-217
3.63012e-218
2.65619e-219
1.93756e-220
1.40901e-221
1.0215e-222
7.38309e-224
5.32005e-225
3.82189e-226
2.73734e-227
1.95467e-228
1.39161e-229
9.87796e-231
6.99078e-232
4.93285e-233
3.47049e-234
2.43448e-235
1.70276e-236
1.1875e-237
8.25756e-239
5.72552e-240
3.95846e-241
2.72892e-242
1.87592e-243
1.28588e-244
8.78927e-246
5.99071e-247
4.07174e-248
2.75971e-249
1.86523e-250
1.25716e-251
8.44975e-253
5.66365e-254
3.78576e-255
2.52358e-256
1.67762e-257
1.11221e-258
7.35362e-260
4.84887e-261
3.18867e-262
2.09128e-263
1.36789e-264
8.92349e-266
5.80582e-267
3.7674e-268
2.43823e-269
1.57386e-270
1.01326e-271
6.50642e-273
4.1671e-274
2.66195e-275
1.69607e-276
1.07788e-277
6.83254e-279
4.32001e-280
2.72447e-281
1.71386e-282
1.0754e-283
6.7309e-285
4.20226e-286
2.61701e-287
1.62572e-288
1.00741e-289
6.22714e-291
3.83972e-292
2.36179e-293
1.44917e-294
8.87021e-296
5.41615e-297
3.29908e-298
2.00468e-299
1.2152e-300
7.34865e-302
4.4333e-303
2.66814e-304
1.60198e-305
9.59562e-307
5.73408e-308
3.41846e-309
2.03318e-310
1.20644e-311
7.14201e-313
4.21818e-314
2.48555e-315
1.46122e-316
8.57054e-318
5.01501e-319
2.92437e-320
1.68476e-321
8.39912e-323
0
0
0
0
0
0
0
0
0
0
0
0
0
0
0
0
0
0
0
0
0
0
0
0
0
0
0
0
0
0
0
0
0
0
0
0
0
0
0
0
0
0
0
0
0
0
0
0
0
0
0
0
0
0
0
0
0
0
0
0
0
0
0
0
0
0
0
0
0
0
0
0
0
0
0
0
0
0
0
0
0
0
0
0
0
0
)
;

boundaryField
{
    sides
    {
        type            zeroGradient;
    }
    empty
    {
        type            empty;
    }
}


// ************************************************************************* //
