/*--------------------------------*- C++ -*----------------------------------*\
  =========                 |
  \\      /  F ield         | OpenFOAM: The Open Source CFD Toolbox
   \\    /   O peration     | Website:  https://openfoam.org
    \\  /    A nd           | Version:  13
     \\/     M anipulation  |
\*---------------------------------------------------------------------------*/
FoamFile
{
    format      ascii;
    class       surfaceScalarField;
    location    "3.5";
    object      phi;
}
// * * * * * * * * * * * * * * * * * * * * * * * * * * * * * * * * * * * * * //

dimensions      [1 0 -1 0 0 0 0];

internalField   nonuniform List<scalar> 
10325
(
0.00840003
2.89833e-11
0.00840001
8.67995e-10
0.00840008
8.16899e-10
0.00839989
8.63612e-09
0.00840037
7.81762e-09
0.00839908
4.92892e-08
0.00840213
6.94692e-08
0.00839498
2.53842e-07
0.00840878
5.32375e-07
0.00838295
1.33215e-06
0.00841178
3.58823e-06
0.00836951
9.2495e-06
0.00836259
3.05366e-05
0.00823835
0.000110314
0.00767036
0.000563338
0.00700438
0.000667783
0.00637584
0.00063002
0.00572809
0.00064882
0.0050483
0.000680486
0.00432807
0.000721625
0.00355731
0.000771198
0.0027366
0.000820937
0.00186871
0.000866521
0.000955197
0.000911977
0.000955379
0.00840003
2.1842e-10
0.00840004
8.00736e-10
0.00839998
4.50781e-09
0.00840015
7.72464e-09
0.00839976
3.24456e-08
0.00840055
5.88496e-08
0.0083988
1.87161e-07
0.00840151
4.19487e-07
0.00839575
1.04064e-06
0.0084028
2.81601e-06
0.00838679
6.64579e-06
0.00839104
1.9838e-05
0.00834976
6.02541e-05
0.00824011
0.000222421
0.00768524
0.00111062
0.00700341
0.00135102
0.00638278
0.00125213
0.00574416
0.0012885
0.00506844
0.00135689
0.00434022
0.00145122
0.00355963
0.00155223
0.00272963
0.00165114
0.00185043
0.00174434
0.000931974
0.00182889
0.00188752
0.00840003
1.25957e-10
0.00840001
2.07232e-09
0.00840009
3.67685e-09
0.00839988
2.02744e-08
0.0084004
2.89268e-08
0.0083991
1.25e-07
0.00840211
2.02029e-07
0.00839522
7.25115e-07
0.00840859
1.39018e-06
0.00838357
4.1732e-06
0.00841209
9.94153e-06
0.00836993
2.86847e-05
0.00836541
8.90693e-05
0.00825208
0.000321635
0.00776782
0.00159018
0.00707554
0.00204513
0.00645167
0.00187752
0.0058165
0.00192471
0.00514384
0.00203024
0.00441289
0.00218344
0.00362472
0.00234084
0.00278408
0.00249192
0.0018879
0.00263943
0.000949931
0.00276519
0.00283747
0.00840003
4.15594e-10
0.00840005
1.51331e-09
0.00839999
8.12481e-09
0.00840013
1.48081e-08
0.00839973
5.918e-08
0.0084007
1.0698e-07
0.00839824
3.54418e-07
0.00840385
7.20146e-07
0.00839142
2.06436e-06
0.00841131
4.82581e-06
0.0083802
1.29182e-05
0.00840193
3.56017e-05
0.00835709
0.000110638
0.00829147
0.000396867
0.00793907
0.00193389
0.00724066
0.00274475
0.00659976
0.00251983
0.00595958
0.00256593
0.00528682
0.00270334
0.00455432
0.00291781
0.00375806
0.00313718
0.00290236
0.00334791
0.0019808
0.00355941
0.00100318
0.00374155
0.00384109
0.00840003
2.46718e-10
0.00840001
2.47924e-09
0.00840009
5.98803e-09
0.00839989
2.43037e-08
0.00840037
4.61611e-08
0.00839926
1.56434e-07
0.00840183
3.11923e-07
0.0083962
9.33696e-07
0.0084071
2.06278e-06
0.00838765
5.61738e-06
0.0084122
1.41188e-05
0.00837932
3.95413e-05
0.0083907
0.000121635
0.00834444
0.000430226
0.00823489
0.00203935
0.00753334
0.00344783
0.00684631
0.00320823
0.0061864
0.0032267
0.00550724
0.00338318
0.00476967
0.00365622
0.00396494
0.0039425
0.00308645
0.00422633
0.00212988
0.00451451
0.00109049
0.00477893
0.0049315
0.00840003
3.88093e-10
0.00840004
1.91411e-09
0.0084
8.1106e-09
0.00840011
1.85602e-08
0.00839982
5.98401e-08
0.00840057
1.26865e-07
0.00839867
3.67117e-07
0.00840334
8.14508e-07
0.00839347
2.17396e-06
0.00841152
5.2695e-06
0.00838668
1.36387e-05
0.00841618
3.71742e-05
0.00840331
0.000111755
0.0084581
0.000385934
0.00876469
0.00172494
0.00805443
0.00415842
0.00723986
0.00402374
0.00653674
0.00393074
0.00583386
0.00408674
0.00509023
0.00440098
0.00426188
0.00477146
0.00335463
0.0051335
0.0023448
0.00552259
0.00122451
0.00589746
0.00615562
0.00840003
2.79223e-10
0.00840002
2.09911e-09
0.00840007
6.26825e-09
0.00839994
2.04576e-08
0.00840027
4.68543e-08
0.00839956
1.34101e-07
0.00840123
2.98221e-07
0.00839787
8.151e-07
0.00840448
1.87883e-06
0.00839403
4.89804e-06
0.00841124
1.22039e-05
0.00839584
3.28663e-05
0.0084281
9.66391e-05
0.00848159
0.000323172
0.00881223
0.00139321
0.00834598
0.00462318
0.00753791
0.00483175
0.00685762
0.00461163
0.00619094
0.00475357
0.00545537
0.00513789
0.00463232
0.00559449
0.00370249
0.006064
0.00264953
0.00657395
0.00142581
0.00711889
0.00758111
0.00840003
3.42214e-10
0.00840003
1.74357e-09
0.00840003
7.19391e-09
0.00840002
1.70439e-08
0.00840004
5.25981e-08
0.00840002
1.13999e-07
0.00839987
3.29013e-07
0.00840036
7.10951e-07
0.00839892
1.95929e-06
0.00840168
4.52397e-06
0.00839913
1.19259e-05
0.00840251
3.1085e-05
0.00840766
9.10064e-05
0.0084315
0.000300221
0.00856158
0.00125989
0.00823233
0.00494958
0.00763118
0.00543177
0.00708581
0.00515801
0.00646814
0.00537131
0.00581178
0.00579535
0.00503117
0.00637583
0.00412395
0.00697116
0.00304945
0.0076475
0.00174043
0.00842554
0.00932083
0.00840003
2.84535e-10
0.00840002
1.97947e-09
0.00840007
6.24665e-09
0.00839995
1.93526e-08
0.00840024
4.60016e-08
0.00839959
1.28378e-07
0.00840115
2.88314e-07
0.0083978
7.92097e-07
0.00840445
1.81308e-06
0.00839264
4.78748e-06
0.00841041
1.17537e-05
0.00838703
3.15242e-05
0.0084092
9.03028e-05
0.00840184
0.000295971
0.00847473
0.00118809
0.00816813
0.00525266
0.00786009
0.0057397
0.0072987
0.00571995
0.00671498
0.00595564
0.00613736
0.00637364
0.00545658
0.00705732
0.00463734
0.00779118
0.00364759
0.00863632
0.00225752
0.00981394
0.0115775
0.00840003
3.75732e-10
0.00840003
1.80212e-09
0.00840005
7.54117e-09
0.00839999
1.74537e-08
0.00840007
5.59436e-08
0.00839996
1.14103e-07
0.0083999
3.5739e-07
0.00840021
7.00756e-07
0.00839887
2.17572e-06
0.00840076
4.44996e-06
0.00839792
1.29817e-05
0.00839831
3.14579e-05
0.00839687
9.28306e-05
0.00839713
0.000296127
0.00843965
0.00114303
0.00828764
0.00540131
0.00786961
0.00615774
0.00744306
0.00614692
0.00699998
0.00639929
0.00649912
0.00687562
0.00596247
0.00759446
0.0053296
0.00842436
0.00444327
0.00952221
0.00313203
0.0111237
0.0147086
0.00840003
2.83757e-10
0.00840003
2.13591e-09
0.00840004
6.55039e-09
0.00840001
2.09877e-08
0.00840011
4.90355e-08
0.00839973
1.40343e-07
0.00840078
3.08229e-07
0.008398
8.72783e-07
0.00840472
1.88657e-06
0.00839031
5.36415e-06
0.00841416
1.22039e-05
0.00838189
3.40795e-05
0.00841067
9.27992e-05
0.00838564
0.00029838
0.00843435
0.00110468
0.0084995
0.00533084
0.00806755
0.00658951
0.00763395
0.0065807
0.00728832
0.00674547
0.00691714
0.00724774
0.00655824
0.00795434
0.00613321
0.00885008
0.00572447
0.00993097
0.00569179
0.0111555
0.0115152
0.00888416
0.00840003
3.06448e-10
0.00840003
2.13249e-09
0.00840006
6.73385e-09
0.00839998
2.07443e-08
0.00840016
5.05631e-08
0.00839977
1.36466e-07
0.00840066
3.21469e-07
0.0083988
8.39447e-07
0.00840231
2.00722e-06
0.00839576
5.14073e-06
0.00840642
1.27617e-05
0.00839039
3.34736e-05
0.0084099
9.24442e-05
0.00840495
0.000288042
0.00847773
0.00103815
0.00893682
0.00486706
0.00846748
0.00705872
0.00797134
0.00707722
0.00761547
0.00710159
0.00732754
0.00753614
0.00707108
0.00821143
0.00687708
0.00904478
0.00684812
0.00996034
0.00729315
0.0107102
0.0104899
0.00831758
0.00840003
3.05331e-10
0.00840003
1.87355e-09
0.00840003
6.48958e-09
0.00840003
1.82948e-08
0.00840004
4.82423e-08
0.00840004
1.20977e-07
0.00839995
3.09972e-07
0.00840048
7.47255e-07
0.00839889
1.9292e-06
0.00840326
4.61288e-06
0.00839676
1.20526e-05
0.00840995
3.02139e-05
0.00840882
8.36045e-05
0.00845406
0.000251025
0.00861062
0.000875079
0.00971151
0.00376471
0.00911473
0.00765549
0.00849337
0.007699
0.00808719
0.00750827
0.00781184
0.00781195
0.00763325
0.00839051
0.00760042
0.00907821
0.00783352
0.00972787
0.00838206
0.0101616
0.00986689
0.00900469
0.00840003
2.56473e-10
0.00840004
1.54251e-09
0.00840002
5.49503e-09
0.00840007
1.51364e-08
0.00839995
4.04896e-08
0.00840032
1.00538e-07
0.00839952
2.53149e-07
0.00840177
6.15056e-07
0.00839747
1.5425e-06
0.0084086
3.74218e-06
0.00839221
9.43488e-06
0.0084276
2.35812e-05
0.00841449
6.26948e-05
0.0085146
0.000180239
0.00878139
0.000590907
0.0101577
0.00239182
0.00974274
0.00806896
0.00931557
0.00812621
0.00869791
0.00812627
0.00837001
0.00814015
0.00824147
0.00851945
0.00828613
0.00903394
0.00854418
0.00947066
0.00902481
0.00968093
0.00936632
0.00952494
0.00840003
2.11874e-10
0.00840004
1.33564e-09
0.00840002
4.66733e-09
0.00840007
1.30075e-08
0.00839996
3.44927e-08
0.00840028
8.67511e-08
0.00839961
2.13228e-07
0.00840138
5.40821e-07
0.00839796
1.27672e-06
0.00840632
3.30921e-06
0.00839331
7.75957e-06
0.00841935
2.03092e-05
0.00840193
5.15727e-05
0.00846261
0.000146957
0.00856569
0.000468233
0.00916105
0.00180426
0.00987852
0.00734683
0.00955412
0.00845029
0.00915534
0.00852511
0.008875
0.00842094
0.00877672
0.00861802
0.0088479
0.0089629
0.00908453
0.00923524
0.00947502
0.00929106
0.00895599
0.00988504
0.00840003
2.00068e-10
0.00840003
1.14412e-09
0.00840004
4.18277e-09
0.00840002
1.11639e-08
0.00840005
3.11001e-08
0.00840004
7.26922e-08
0.00840002
1.99235e-07
0.00840035
4.38869e-07
0.00839931
1.22968e-06
0.00840278
2.67457e-06
0.00839658
7.47707e-06
0.00841113
1.71116e-05
0.00840081
4.70378e-05
0.0084362
0.000126299
0.00849282
0.000398406
0.00885825
0.00144614
0.00988467
0.00631622
0.009755
0.00857959
0.00951962
0.00876041
0.00928962
0.00865119
0.00921811
0.0086905
0.00929923
0.00888121
0.00950531
0.00902931
0.00981336
0.0089841
0.00863625
0.0101334
0.00840003
1.60253e-10
0.00840003
1.00289e-09
0.00840003
3.52864e-09
0.00840005
9.78828e-09
0.00840001
2.61747e-08
0.0084001
6.5991e-08
0.00840001
1.62709e-07
0.0084001
4.15036e-07
0.00840044
9.81704e-07
0.00839973
2.56689e-06
0.00840288
6.02869e-06
0.0084012
1.59459e-05
0.00841162
3.95614e-05
0.00842683
0.000109673
0.0084982
0.000327944
0.00879717
0.00114531
0.0104034
0.00470819
0.0102138
0.00876873
0.00997682
0.00899732
0.0096957
0.00893216
0.00961728
0.00876972
0.00968202
0.00881707
0.00984841
0.00886278
0.0100825
0.00875025
0.00839816
0.0103214
0.00840003
1.27872e-10
0.00840003
8.16269e-10
0.00840004
2.74112e-09
0.00840002
7.95295e-09
0.00840008
2.03494e-08
0.00839996
5.17567e-08
0.00840033
1.29114e-07
0.00839968
3.12587e-07
0.00840166
7.93679e-07
0.00839849
1.86285e-06
0.0084077
4.822e-06
0.00839798
1.13357e-05
0.00842957
2.95882e-05
0.00843651
7.58438e-05
0.00857089
0.000218128
0.00899929
0.000702542
0.0109836
0.0027261
0.0109077
0.00884406
0.0106542
0.0092507
0.0103053
0.00928083
0.0100789
0.00899635
0.0100575
0.00883871
0.0101603
0.00876022
0.0103219
0.00858893
0.00823386
0.0104863
0.00840003
9.36089e-11
0.00840003
6.62012e-10
0.00840003
2.12102e-09
0.00840004
6.46632e-09
0.00840003
1.56988e-08
0.00840007
4.28317e-08
0.00840006
9.70695e-08
0.00840006
2.63591e-07
0.00840059
5.84551e-07
0.00839951
1.58968e-06
0.00840427
3.54273e-06
0.00839843
9.52667e-06
0.00841881
2.23114e-05
0.00841783
5.9896e-05
0.0084905
0.000162439
0.00866559
0.000512231
0.0094947
0.00190531
0.0109448
0.00739016
0.0108951
0.00929976
0.0106945
0.00948117
0.010462
0.00922884
0.0103953
0.0089061
0.0104435
0.00871217
0.0105435
0.00848917
0.0081308
0.0106469
0.00840003
8.91202e-11
0.00840003
4.89832e-10
0.00840003
1.87098e-09
0.00840003
4.77552e-09
0.00840003
1.37963e-08
0.00840006
3.17269e-08
0.00839999
8.63152e-08
0.00840032
1.96044e-07
0.00839962
5.2079e-07
0.00840199
1.2002e-06
0.0083977
3.1358e-06
0.00841017
7.43436e-06
0.00839421
1.92156e-05
0.00843349
4.82649e-05
0.00843313
0.000132415
0.00857264
0.000397755
0.00906343
0.00140008
0.0110179
0.00543671
0.0111589
0.00915853
0.0110715
0.00956834
0.0108483
0.00945193
0.0107145
0.00903987
0.0107027
0.00872466
0.0107509
0.00844124
0.00807657
0.0108052
0.00840003
6.00842e-11
0.00840003
3.8715e-10
0.00840003
1.31166e-09
0.00840003
3.7756e-09
0.00840005
9.70979e-09
0.00840001
2.47818e-08
0.00840015
6.08804e-08
0.0083999
1.50645e-07
0.00840085
3.67969e-07
0.00839927
9.0319e-07
0.00840472
2.21096e-06
0.00839718
5.42158e-06
0.00842136
1.34379e-05
0.00840697
3.35851e-05
0.00848729
8.79299e-05
0.00860296
0.000248804
0.00922008
0.000801676
0.0116673
0.0029831
0.0117588
0.00906637
0.0116565
0.00967039
0.0113784
0.00972993
0.0111017
0.00931679
0.0109894
0.00883712
0.0109724
0.00845875
0.00807055
0.0109788
0.00840003
4.29446e-11
0.00840003
3.02741e-10
0.00840003
9.58001e-10
0.00840003
2.95354e-09
0.00840004
7.11703e-09
0.00840002
1.92228e-08
0.00840011
4.47382e-08
0.00839996
1.1554e-07
0.00840057
2.72463e-07
0.00839948
6.82699e-07
0.00840335
1.64919e-06
0.00839742
4.03745e-06
0.0084162
1.00309e-05
0.00839857
2.4652e-05
0.00845893
6.37384e-05
0.00849575
0.000173596
0.00879016
0.000537059
0.00979865
0.00195841
0.0117199
0.00714701
0.0118468
0.00954338
0.0117191
0.00985753
0.0114211
0.00961452
0.0112847
0.00897399
0.011205
0.00853866
0.00810739
0.0111684
0.00840003
3.42001e-11
0.00840003
2.1659e-10
0.00840003
7.52382e-10
0.00840004
2.11498e-09
0.00840003
5.56469e-09
0.00840006
1.40577e-08
0.00840001
3.4429e-08
0.00840018
8.67861e-08
0.00839996
2.05897e-07
0.00840067
5.26408e-07
0.00840008
1.23072e-06
0.0084024
3.19009e-06
0.00840249
7.44819e-06
0.00841156
1.94329e-05
0.00842147
4.75812e-05
0.00847374
0.000129679
0.00862638
0.00037781
0.00928736
0.00129934
0.01171
0.0047225
0.0120107
0.00924233
0.0120788
0.00978942
0.0119314
0.00976207
0.0115925
0.00931263
0.011458
0.0086736
0.00819608
0.0113697
0.00840003
2.60485e-11
0.00840003
1.5201e-10
0.00840003
5.56518e-10
0.00840003
1.48648e-09
0.00840004
4.08418e-09
0.00840004
9.81144e-09
0.00840004
2.53192e-08
0.0084001
5.9823e-08
0.00840003
1.51679e-07
0.00840057
3.59642e-07
0.0083998
8.97243e-07
0.00840368
2.16156e-06
0.00839912
5.33585e-06
0.00841947
1.30921e-05
0.00841056
3.26512e-05
0.00848742
8.41138e-05
0.00860133
0.000233412
0.00918872
0.000731511
0.011292
0.00261176
0.0123991
0.00813516
0.0124
0.00978848
0.0122241
0.00993795
0.011892
0.0096453
0.0117347
0.00883068
0.00834076
0.0115901
0.00840003
1.80629e-11
0.00840003
1.12096e-10
0.00840003
3.89065e-10
0.00840003
1.09173e-09
0.00840004
2.88117e-09
0.00840003
7.1336e-09
0.00840006
1.8071e-08
0.00840003
4.31561e-08
0.00840017
1.0905e-07
0.00840011
2.57128e-07
0.00840051
6.54802e-07
0.00840106
1.53506e-06
0.00840186
3.91679e-06
0.00840723
9.31608e-06
0.00841289
2.37545e-05
0.00844199
5.92696e-05
0.00851093
0.000160478
0.00876986
0.000477535
0.00970033
0.00167714
0.0121602
0.00567405
0.0125042
0.00944436
0.0125877
0.00985453
0.0124643
0.00976885
0.0120604
0.00923532
0.00856432
0.0118369
0.00840003
1.13624e-11
0.00840003
8.04057e-11
0.00840003
2.54406e-10
0.00840003
7.85503e-10
0.00840004
1.88449e-09
0.00840003
5.10964e-09
0.00840005
1.17374e-08
0.00840002
3.0623e-08
0.00840018
7.08236e-08
0.00839997
1.80001e-07
0.0084009
4.24728e-07
0.00839982
1.05269e-06
0.00840494
2.54844e-06
0.00840008
6.1865e-06
0.00842371
1.53755e-05
0.00842111
3.76837e-05
0.00851443
9.81696e-05
0.00868963
0.000271858
0.00952046
0.000864684
0.0122392
0.00294945
0.0129657
0.00871688
0.0129613
0.00985874
0.0127398
0.00999031
0.0124021
0.00957268
0.00881695
0.0121504
0.00840003
8.55202e-12
0.00840003
5.2319e-11
0.00840003
1.84791e-10
0.00840003
5.09518e-10
0.00840003
1.36186e-09
0.00840004
3.33328e-09
0.00840003
8.44393e-09
0.00840007
2.01922e-08
0.00840002
5.0368e-08
0.00840027
1.20264e-07
0.00839996
2.97716e-07
0.00840134
7.1482e-07
0.0083999
1.76135e-06
0.0084066
4.25233e-06
0.00840213
1.05102e-05
0.00843006
2.5805e-05
0.0084391
6.55721e-05
0.00856326
0.000175299
0.00887839
0.000525943
0.010008
0.00183293
0.0126654
0.00605497
0.0129871
0.00953659
0.0131701
0.00980711
0.0129126
0.00983008
0.00919382
0.0125349
0.00840003
5.82063e-12
0.00840003
3.49223e-11
0.00840003
1.2514e-10
0.00840003
3.4106e-10
0.00840003
9.18702e-10
0.00840004
2.23636e-09
0.00840003
5.66585e-09
0.00840006
1.35084e-08
0.00840003
3.36694e-08
0.00840018
8.0263e-08
0.00840007
1.98079e-07
0.00840066
4.76116e-07
0.00840074
1.1599e-06
0.00840253
2.83285e-06
0.00840594
6.83997e-06
0.00841445
1.69722e-05
0.00843821
4.18295e-05
0.00850678
0.000108645
0.00872756
0.00030246
0.00959427
0.000967883
0.0124071
0.00324014
0.0133042
0.00863933
0.0133638
0.00974723
0.0132381
0.00995573
0.00957319
0.0128587
0.00840003
3.63964e-12
0.00840003
2.42463e-11
0.00840003
8.11468e-11
0.00840003
2.35857e-10
0.00840003
5.97685e-10
0.00840004
1.53962e-09
0.00840003
3.67816e-09
0.00840004
9.32124e-09
0.00840005
2.17802e-08
0.00840007
5.54005e-08
0.00840017
1.28307e-07
0.00840015
3.26307e-07
0.00840112
7.5933e-07
0.00840033
1.91893e-06
0.00840698
4.51503e-06
0.008403
1.13455e-05
0.00843493
2.74861e-05
0.00844852
7.00399e-05
0.00859356
0.000186073
0.00897743
0.000556882
0.0103353
0.00189778
0.0129869
0.00598439
0.0133426
0.00939094
0.0135685
0.00972934
0.00976124
0.0133802
0.00840003
2.56983e-12
0.00840003
1.50802e-11
0.00840003
5.52607e-11
0.00840003
1.47197e-10
0.00840003
4.04124e-10
0.00840003
9.6492e-10
0.00840003
2.47733e-09
0.00840004
5.83492e-09
0.00840003
1.45767e-08
0.0084001
3.47655e-08
0.00840003
8.48875e-08
0.00840044
2.06151e-07
0.00840008
4.93637e-07
0.00840221
1.21862e-06
0.00840088
2.88409e-06
0.00841064
7.21405e-06
0.00841107
1.71221e-05
0.0084532
4.35629e-05
0.00850769
0.000109784
0.00877843
0.00030777
0.00969161
0.000971577
0.0125382
0.00314122
0.0136042
0.00832416
0.0136684
0.0096646
0.00976679
0.0136624
0.00840003
1.53519e-12
0.00840003
1.02862e-11
0.00840003
3.37243e-11
0.00840003
1.00054e-10
0.00840003
2.49711e-10
0.00840003
6.44551e-10
0.00840004
1.55596e-09
0.00840003
3.83218e-09
0.00840005
9.32941e-09
0.00840005
2.23409e-08
0.00840008
5.55087e-08
0.00840019
1.29987e-07
0.00840016
3.28258e-07
0.00840124
7.60044e-07
0.00840038
1.93703e-06
0.00840769
4.47832e-06
0.00840311
1.14636e-05
0.0084395
2.71153e-05
0.00844819
7.00944e-05
0.00861209
0.000182506
0.0090028
0.000542785
0.0103551
0.00181262
0.0131706
0.00550206
0.013698
0.00913655
0.00959983
0.0138647
0.00840003
1.02643e-12
0.00840003
6.22271e-12
0.00840003
2.22333e-11
0.00840003
6.07051e-11
0.00840003
1.62741e-10
0.00840003
3.96987e-10
0.00840003
9.9078e-10
0.00840004
2.39432e-09
0.00840003
5.79383e-09
0.00840006
1.41718e-08
0.00840004
3.35895e-08
0.00840017
8.32041e-08
0.00840015
1.94802e-07
0.00840066
4.86777e-07
0.00840117
1.12988e-06
0.00840281
2.84637e-06
0.00840808
6.60201e-06
0.00841691
1.66949e-05
0.00844939
3.99199e-05
0.00852727
0.000103325
0.00879122
0.000279279
0.00973515
0.000868162
0.0125268
0.00271249
0.0138908
0.00776929
0.00953847
0.0139517
0.00840003
6.42514e-13
0.00840003
3.94827e-12
0.00840003
1.37833e-11
0.00840003
3.84848e-11
0.00840003
1.00989e-10
0.00840003
2.48768e-10
0.00840003
6.25471e-10
0.00840003
1.47096e-09
0.00840004
3.72249e-09
0.00840004
8.56286e-09
0.00840004
2.18331e-08
0.00840012
4.99183e-08
0.00840006
1.2709e-07
0.00840062
2.92434e-07
0.00840008
7.36376e-07
0.00840356
1.71942e-06
0.00840066
4.27929e-06
0.00841874
1.01847e-05
0.00841176
2.52572e-05
0.0084862
6.24806e-05
0.00855985
0.000163721
0.00899463
0.000472353
0.010131
0.0015518
0.0132017
0.00470513
0.00873401
0.0140063
0.00840003
3.76519e-13
0.00840003
2.46447e-12
0.00840003
8.33732e-12
0.00840003
2.39827e-11
0.00840003
6.11771e-11
0.00840003
1.55429e-10
0.00840003
3.74255e-10
0.00840003
9.27899e-10
0.00840004
2.20101e-09
0.00840004
5.41784e-09
0.00840005
1.28517e-08
0.00840005
3.14531e-08
0.00840017
7.48739e-08
0.00840009
1.82084e-07
0.00840091
4.36675e-07
0.00840025
1.05541e-06
0.00840529
2.54321e-06
0.00840207
6.1518e-06
0.00842771
1.49496e-05
0.00842663
3.66434e-05
0.00853576
9.23516e-05
0.00872094
0.000247751
0.00955115
0.000747157
0.0118962
0.0023521
0.00669154
0.0139396
0.00840003
2.39882e-13
0.00840003
1.47049e-12
0.00840003
5.24067e-12
0.00840003
1.43257e-11
0.00840003
3.82458e-11
0.00840003
9.37387e-11
0.00840003
2.31546e-10
0.00840003
5.64199e-10
0.00840003
1.34494e-09
0.00840004
3.32889e-09
0.00840004
7.74785e-09
0.00840005
1.94881e-08
0.0084001
4.46989e-08
0.00840009
1.13394e-07
0.00840051
2.59368e-07
0.00840023
6.55065e-07
0.00840306
1.51447e-06
0.00840115
3.78507e-06
0.00841738
8.89565e-06
0.00841147
2.21516e-05
0.00848407
5.39281e-05
0.00854657
0.000139792
0.00894972
0.000389774
0.0100301
0.0012414
0.00371036
0.0130187
0.00840003
1.40828e-13
0.00840003
9.17044e-13
0.00840003
3.07289e-12
0.00840003
8.91199e-12
0.00840003
2.26005e-11
0.00840003
5.71486e-11
0.00840003
1.3947e-10
0.00840003
3.36758e-10
0.00840003
8.26787e-10
0.00840003
1.94314e-09
0.00840004
4.84791e-09
0.00840005
1.11909e-08
0.00840005
2.82277e-08
0.00840015
6.47368e-08
0.0084001
1.63466e-07
0.00840078
3.76499e-07
0.0084003
9.43036e-07
0.00840458
2.20039e-06
0.00840197
5.45919e-06
0.0084245
1.29663e-05
0.00842172
3.21803e-05
0.00851812
7.95345e-05
0.00865823
0.000210519
0.00931088
0.00061523
0.00193762
0.0110743
0.00840003
8.53376e-14
0.00840003
5.2838e-13
0.00840003
1.8672e-12
0.00840003
5.15073e-12
0.00840003
1.36263e-11
0.00840003
3.35134e-11
0.00840003
8.22191e-11
0.00840003
2.00423e-10
0.00840003
4.75393e-10
0.00840003
1.17388e-09
0.00840004
2.72782e-09
0.00840004
6.81052e-09
0.00840006
1.56581e-08
0.00840006
3.92676e-08
0.0084002
9.02407e-08
0.00840016
2.2504e-07
0.00840112
5.21541e-07
0.00840065
1.28534e-06
0.00840658
3.02254e-06
0.00840445
7.36334e-06
0.00843553
1.7666e-05
0.00844238
4.32439e-05
0.00858636
0.000108719
0.008863
0.000293426
0.000888768
0.00994176
0.00840003
4.98964e-14
0.00840003
3.14176e-13
0.00840003
1.08775e-12
0.00840003
3.05772e-12
0.00840003
7.93392e-12
0.00840003
1.97028e-11
0.00840003
4.84513e-11
0.00840003
1.16049e-10
0.00840003
2.83803e-10
0.00840003
6.70623e-10
0.00840003
1.63685e-09
0.00840004
3.86886e-09
0.00840004
9.40008e-09
0.00840008
2.22987e-08
0.00840005
5.38185e-08
0.0084003
1.28554e-07
0.00840017
3.0817e-07
0.00840153
7.41374e-07
0.00840107
1.7624e-06
0.00840793
4.28301e-06
0.00840774
1.01644e-05
0.00843978
2.50114e-05
0.00846618
6.08709e-05
0.00863
0.000157455
0.000441267
0.00905044
0.00840003
2.93309e-14
0.00840003
1.8187e-13
0.00840003
6.31801e-13
0.00840003
1.76715e-12
0.00840003
4.60882e-12
0.00840003
1.13515e-11
0.00840003
2.8082e-11
0.00840003
6.68197e-11
0.00840003
1.64235e-10
0.00840003
3.84569e-10
0.00840003
9.50332e-10
0.00840004
2.20652e-09
0.00840004
5.46206e-09
0.00840005
1.26854e-08
0.00840005
3.12942e-08
0.00840018
7.31237e-08
0.00840012
1.78627e-07
0.00840093
4.22402e-07
0.00840053
1.02058e-06
0.00840511
2.4444e-06
0.00840356
5.84725e-06
0.00842639
1.42566e-05
0.00843161
3.42715e-05
0.00853453
8.61588e-05
0.000224239
0.00871577
0.00840003
1.57719e-14
0.00840003
1.05113e-13
0.00840003
3.52097e-13
0.00840003
1.02205e-12
0.00840003
2.5759e-12
0.00840003
6.58022e-12
0.00840003
1.55778e-11
0.00840003
3.88965e-11
0.00840003
9.02307e-11
0.00840003
2.24364e-10
0.00840003
5.18735e-10
0.00840003
1.28244e-09
0.00840004
2.98012e-09
0.00840004
7.29201e-09
0.00840007
1.71378e-08
0.00840007
4.13587e-08
0.0084002
9.85899e-08
0.00840032
2.34059e-07
0.00840078
5.66807e-07
0.00840218
1.32646e-06
0.00840329
3.25249e-06
0.00841425
7.5646e-06
0.00841953
1.87721e-05
0.00848049
4.44436e-05
0.000113644
0.00856293
0.00840003
9.54599e-15
0.00840003
5.88976e-14
0.00840003
2.04801e-13
0.00840003
5.73217e-13
0.00840003
1.49167e-12
0.00840003
3.67165e-12
0.00840003
9.0808e-12
0.00840003
2.1456e-11
0.00840003
5.3006e-11
0.00840003
1.22688e-10
0.00840003
3.04551e-10
0.00840003
7.00776e-10
0.00840003
1.73794e-09
0.00840004
4.00854e-09
0.00840004
9.86592e-09
0.00840008
2.29948e-08
0.00840007
5.58896e-08
0.00840031
1.31839e-07
0.00840026
3.15957e-07
0.00840152
7.57904e-07
0.00840156
1.78599e-06
0.00840752
4.35543e-06
0.00841101
1.01806e-05
0.0084387
2.52301e-05
6.03415e-05
0.00847886
0.00840003
5.0665e-15
0.00840003
3.35583e-14
0.00840003
1.12854e-13
0.00840003
3.26291e-13
0.00840003
8.21142e-13
0.00840003
2.09274e-12
0.00840003
4.95981e-12
0.00840003
1.22822e-11
0.00840003
2.87162e-11
0.00840003
7.0452e-11
0.00840003
1.64782e-10
0.00840003
4.00111e-10
0.00840003
9.45927e-10
0.00840003
2.26739e-09
0.00840004
5.41737e-09
0.00840004
1.2849e-08
0.00840009
3.0977e-08
0.0084001
7.28706e-08
0.00840033
1.76936e-07
0.00840055
4.13399e-07
0.00840136
1.00988e-06
0.00840367
2.35502e-06
0.00840636
5.7707e-06
0.00842251
1.35573e-05
3.34422e-05
0.00844015
0.00840003
2.95345e-15
0.00840003
1.82726e-14
0.00840003
6.32995e-14
0.00840003
1.76629e-13
0.00840003
4.5948e-13
0.00840003
1.13438e-12
0.00840003
2.75463e-12
0.00840003
6.67813e-12
0.00840003
1.58238e-11
0.00840003
3.83678e-11
0.00840003
8.98711e-11
0.00840003
2.19181e-10
0.00840003
5.09413e-10
0.00840003
1.24527e-09
0.00840004
2.89264e-09
0.00840004
7.04887e-09
0.00840007
1.64717e-08
0.00840006
3.97274e-08
0.00840024
9.38324e-08
0.00840021
2.23741e-07
0.00840122
5.34424e-07
0.0084012
1.2602e-06
0.00840631
3.03695e-06
0.00840814
7.14e-06
1.73856e-05
0.0084321
0.00840003
1.45581e-15
0.00840003
9.82154e-15
0.00840003
3.44403e-14
0.00840003
9.47887e-14
0.00840003
2.50441e-13
0.00840003
6.08035e-13
0.00840003
1.50473e-12
0.00840003
3.5621e-12
0.00840003
8.62204e-12
0.00840003
2.03923e-11
0.00840003
4.88222e-11
0.00840003
1.15861e-10
0.00840003
2.75393e-10
0.00840003
6.56617e-10
0.00840003
1.55155e-09
0.00840004
3.71337e-09
0.00840004
8.73156e-09
0.00840006
2.10065e-08
0.00840012
4.91433e-08
0.00840016
1.18494e-07
0.00840061
2.77195e-07
0.00840064
6.65885e-07
0.00840364
1.56685e-06
0.00840331
3.74566e-06
8.87937e-06
0.00842067
0.00840003
8.63133e-16
0.00840003
5.0529e-15
0.00840003
1.80522e-14
0.00840003
5.01578e-14
0.00840003
1.31835e-13
0.00840003
3.18914e-13
0.00840003
7.97409e-13
0.00840003
1.84632e-12
0.00840003
4.5721e-12
0.00840003
1.04763e-11
0.00840003
2.57513e-11
0.00840003
5.92433e-11
0.00840003
1.43747e-10
0.00840003
3.35168e-10
0.00840003
7.98674e-10
0.00840004
1.89657e-09
0.00840004
4.42649e-09
0.00840005
1.06861e-08
0.00840007
2.45358e-08
0.00840013
5.99686e-08
0.0084003
1.36197e-07
0.00840044
3.3459e-07
0.00840184
7.58615e-07
0.00840205
1.8554e-06
4.25218e-06
0.00841102
0.00840003
4.66966e-16
0.00840003
2.7893e-15
0.00840003
8.94136e-15
0.00840003
2.65499e-14
0.00840003
6.45794e-14
0.00840003
1.67005e-13
0.00840003
3.82994e-13
0.00840003
9.61028e-13
0.00840003
2.17273e-12
0.00840003
5.37129e-12
0.00840003
1.21765e-11
0.00840003
2.96197e-11
0.00840003
6.8078e-11
0.00840003
1.61989e-10
0.00840003
3.7962e-10
0.00840003
8.8052e-10
0.00840004
2.1074e-09
0.00840004
4.76686e-09
0.00840005
1.16191e-08
0.00840011
2.57388e-08
0.0084001
6.32562e-08
0.00840052
1.38853e-07
0.00840038
3.40603e-07
0.00840279
7.4563e-07
1.81163e-06
0.00840231
0.00840003
1.01319e-16
0.00840003
1.09605e-15
0.00840003
4.48028e-15
0.00840003
1.18496e-14
0.00840003
3.15981e-14
0.00840003
7.747e-14
0.00840003
1.87912e-13
0.00840003
4.43264e-13
0.00840003
1.05504e-12
0.00840003
2.44851e-12
0.00840003
5.80736e-12
0.00840003
1.33409e-11
0.00840003
3.15602e-11
0.00840003
7.23086e-11
0.00840003
1.70272e-10
0.00840003
3.88704e-10
0.00840003
9.09159e-10
0.00840004
2.07475e-09
0.00840004
4.80838e-09
0.00840006
1.0933e-08
0.00840009
2.50709e-08
0.00840015
5.69281e-08
0.00840048
1.28367e-07
0.00840034
2.90134e-07
6.42794e-07
0.00840304
0.00840003
1.14898e-16
0.00840003
6.0737e-16
0.00840003
2.01811e-15
0.00840003
5.59516e-15
0.00840003
1.4463e-14
0.00840003
3.48534e-14
0.00840003
8.44507e-14
0.00840003
1.95955e-13
0.00840003
4.6545e-13
0.00840003
1.07193e-12
0.00840003
2.49269e-12
0.00840003
5.80073e-12
0.00840003
1.32134e-11
0.00840003
3.08996e-11
0.00840003
6.9022e-11
0.00840003
1.63923e-10
0.00840003
3.56656e-10
0.00840004
8.51278e-10
0.00840003
1.80897e-09
0.00840004
4.37979e-09
0.00840006
9.04969e-09
0.00840004
2.14695e-08
0.00840029
4.47042e-08
0.0083998
1.01382e-07
2.09682e-07
0.00840183
0.00840003
1.46665e-16
0.00840003
3.55591e-16
0.00840003
8.33887e-16
0.00840003
2.44734e-15
0.00840003
5.8583e-15
0.00840003
1.32982e-14
0.00840003
3.24891e-14
0.00840003
6.86927e-14
0.00840003
1.83748e-13
0.00840003
3.42785e-13
0.00840003
1.0249e-12
0.00840003
1.68256e-12
0.00840003
5.58274e-12
0.00840003
8.24692e-12
0.00840003
2.9651e-11
0.00840003
4.06467e-11
0.00840003
1.50122e-10
0.00840004
2.08526e-10
0.00840003
7.2671e-10
0.00840005
1.109e-09
0.00840002
3.19672e-09
0.00840006
6.24519e-09
0.00840006
1.28556e-08
0.00839987
3.31704e-08
4.31815e-08
0.00840059
0.00840003
0.00840003
0.00840003
0.00840003
0.00840003
0.00840003
0.00840003
0.00840003
0.00840003
0.00840003
0.00840003
0.00840003
0.00840003
0.00840003
0.00840003
0.00840003
0.00840003
0.00840003
0.00840004
0.00840002
0.00840008
0.00839991
0.00840033
0.00839931
0.0084016
0.0048285
0.0040555
0.00320937
0.00161917
0.00251636
0.000693187
0.00223981
0.000276745
0.00222297
1.66307e-05
0.00241372
-0.000190589
0.00263247
-0.000218519
0.00275471
-0.000122096
0.00279644
-4.15532e-05
0.00279094
5.69669e-06
0.00276772
2.34357e-05
0.00275412
1.36378e-05
0.00275066
3.47585e-06
0.00275823
-7.6255e-06
0.00277066
-1.26714e-05
0.00277919
-9.43244e-06
0.00277953
-2.503e-06
0.00276073
1.32981e-05
0.00271182
3.65336e-05
0.00260953
7.53407e-05
0.00239165
0.000159514
0.00185984
0.000386491
0.000910018
0.000805597
7.18421e-05
0.000812742
-0.000612182
0.000686803
-0.00120132
0.000609511
-0.00167356
0.000487865
-0.00204475
0.000377605
-0.0022978
0.000250756
-0.00242549
0.000130782
-0.00251352
9.08974e-05
-0.00256833
5.80643e-05
-0.0025847
1.87659e-05
-0.00256519
-1.95893e-05
-0.00249648
-7.09146e-05
-0.00235895
-0.000143591
-0.00214595
-0.000221334
-0.00186872
-0.000284614
-0.00154471
-0.00033165
-0.00119047
-0.000360638
-0.000830262
-0.000365362
-0.000469826
-0.000364923
-0.000104432
-0.000369448
0.000247229
-0.000355783
0.000566765
-0.000323874
0.000865991
-0.000303947
0.00114557
-0.000284956
0.00140666
-0.000267105
0.00164807
-0.000247653
0.00187273
-0.000231109
0.00208765
-0.00022161
0.00229422
-0.000212904
0.00248805
-0.000199953
0.00266804
-0.000185489
0.00283587
-0.000172808
0.00299246
-0.000160757
0.00313896
-0.000150157
0.00327576
-0.000139853
0.00340371
-0.000130743
0.00352295
-0.000121937
0.00363427
-0.000114167
0.00373766
-0.000106634
0.00383396
-9.99363e-05
0.00392315
-9.33647e-05
0.00400606
-8.745e-05
0.00408272
-8.15739e-05
0.00415396
-7.62417e-05
0.0042197