/*--------------------------------*- C++ -*----------------------------------*\
  =========                 |
  \\      /  F ield         | OpenFOAM: The Open Source CFD Toolbox
   \\    /   O peration     | Website:  https://openfoam.org
    \\  /    A nd           | Version:  13
     \\/     M anipulation  |
\*---------------------------------------------------------------------------*/
FoamFile
{
    format      ascii;
    class       volScalarField;
    location    "3.5";
    object      T;
}
// * * * * * * * * * * * * * * * * * * * * * * * * * * * * * * * * * * * * * //

dimensions      [0 0 0 1 0 0 0];

internalField   nonuniform List<scalar> 
5250
(
1
1.00002
1.00004
1.00011
1.00025
1.00066
1.00149
1.00407
1.00913
1.0246
1.05957
1.15998
1.42725
2.07942
2.6457
2.76294
2.74351
2.73664
2.74853
2.76431
2.77654
2.78484
2.7912
2.80106
2.80468
1
1.00001
1.00004
1.00009
1.00028
1.00057
1.00167
1.00355
1.00985
1.02276
1.06041
1.15542
1.42095
2.06461
2.64076
2.76261
2.74266
2.73547
2.74739
2.76314
2.77534
2.78363
2.79001
2.79984
2.80338
1
1.00002
1.00004
1.0001
1.00023
1.00064
1.00139
1.00391
1.0086
1.02346
1.05629
1.15145
1.40398
2.03238
2.62876
2.76105
2.74005
2.73206
2.74395
2.75975
2.772
2.78053
2.78646
2.79651
2.80028
1
1.00001
1.00004
1.00009
1.00023
1.00056
1.00146
1.00334
1.00896
1.02081
1.05497
1.14089
1.38149
1.98073
2.60958
2.7579
2.73547
2.72616
2.738
2.75381
2.76566
2.77468
2.78057
2.79068
2.79444
1
1.00001
1.00003
1.00009
1.0002
1.00057
1.00121
1.00348
1.00749
1.0207
1.04907
1.13176
1.34987
1.91252
2.58225
2.75182
2.72801
2.71742
2.73011
2.74507
2.75833
2.7661
2.77286
2.78175
2.78597
1
1.00001
1.00003
1.00008
1.0002
1.00048
1.00123
1.00288
1.00754
1.01771
1.04622
1.11755
1.31635
1.82744
2.54507
2.7403
2.71605
2.70445
2.71589
2.7346
2.74573
2.75566
2.76095
2.77117
2.77451
1
1.00001
1.00003
1.00008
1.00016
1.00049
1.00099
1.00292
1.00623
1.01717
1.04046
1.10772
1.28362
1.75062
2.50353
2.72775
2.70346
2.69134
2.70252
2.71784
2.73232
2.7394
2.74576
2.75326
2.75712
1
1.00001
1.00002
1.00007
1.00015
1.00043
1.00095
1.00256
1.00591
1.01529
1.03734
1.0973
1.25765
1.68582
2.45241
2.71064
2.69231
2.68185
2.68977
2.70198
2.71311
2.72093
2.72378
2.73096
2.72964
1
1.00001
1.00002
1.00007
1.00014
1.0004
1.00082
1.00243
1.00511
1.01429
1.03318
1.08857
1.23159
1.62099
2.38098
2.68302
2.68298
2.67525
2.67633
2.68541
2.69283
2.6964
2.69652
2.69501
2.68417
1
1.00001
1.00002
1.00006
1.00012
1.00035
1.00077
1.00208
1.00479
1.01246
1.03014
1.07839
1.20611
1.55275
2.28779
2.64606
2.67522
2.66717
2.6627
2.66718
2.66987
2.66881
2.66069
2.64073
2.58474
1
1.00001
1.00002
1.00005
1.00012
1.00029
1.00071
1.00178
1.00424
1.011
1.02628
1.06864
1.17881
1.48186
2.16967
2.5974
2.66607
2.65692
2.64832
2.64761
2.64553
2.63691
2.61497
2.56543
2.45525
1
1.00001
1.00001
1.00004
1.00009
1.00027
1.00056
1.00163
1.00346
1.00963
1.0221
1.05873
1.15036
1.40619
2.02334
2.53394
2.65224
2.64317
2.63189
2.62689
2.61986
2.60305
2.56716
2.4953
2.36722
1
1.00001
1.00001
1.00004
1.00008
1.00022
1.00048
1.00129
1.00301
1.00768
1.01872
1.04751
1.12257
1.32728
1.8486
2.45267
2.62729
2.62039
2.61128
2.60291
2.59192
2.56888
2.52646
2.44707
2.33048
1
1
1.00001
1.00003
1.00007
1.00016
1.00043
1.00096
1.00263
1.00579
1.01573
1.03674
1.0974
1.25321
1.66631
2.3534
2.58971
2.5915
2.58419
2.57503
2.56205
2.53535
2.49328
2.41933
2.31507
1
1
1.00001
1.00002
1.00006
1.00013
1.00036
1.00077
1.00217
1.00469
1.01288
1.02979
1.079
1.20431
1.5447
2.23806
2.54521
2.56777
2.55887
2.54678
2.53314
2.50559
2.46413
2.39936
2.30844
1
1
1.00001
1.00002
1.00004
1.00012
1.00025
1.00069
1.00159
1.00407
1.00987
1.02467
1.06234
1.16302
1.43497
2.06465
2.47262
2.54752
2.53997
2.52504
2.50656
2.4792
2.43964
2.38229
2.3039
1
1
1.00001
1.00001
1.00004
1.00008
1.00023
1.00049
1.00134
1.00303
1.00795
1.0189
1.04868
1.1244
1.33199
1.85293
2.37519
2.51897
2.51829
2.50471
2.48333
2.45542
2.41773
2.36669
2.29914
1
1
1
1.00001
1.00003
1.00007
1.00015
1.00042
1.0009
1.00254
1.00545
1.01493
1.03461
1.09138
1.23528
1.61716
2.24706
2.4722
2.48817
2.4784
2.45852
2.43157
2.39686
2.35126
2.29292
1
1
1
1.00001
1.00002
1.00005
1.00013
1.00028
1.00076
1.00176
1.00445
1.01087
1.02693
1.06817
1.1773
1.46884
2.09439
2.41533
2.46201
2.45366
2.4355
2.40892
2.3765
2.33582
2.28495
1
1
1
1.00001
1.00001
1.00004
1.00009
1.00023
1.00056
1.00133
1.00339
1.00792
1.02056
1.0498
1.13107
1.3444
1.87379
2.31634
2.43019
2.42978
2.41478
2.38935
2.35809
2.32066
2.27598
1
1
1
1
1.00001
1.00003
1.00007
1.00017
1.00038
1.00102
1.00221
1.00612
1.01352
1.03617
1.08778
1.23208
1.60123
2.17815
2.38043
2.39938
2.38976
2.3678
2.33839
2.3051
2.26529
1
1
1
1
1.00001
1.00002
1.00005
1.00012
1.00028
1.00073
1.00162
1.00441
1.00975
1.02617
1.0624
1.16557
1.4308
2.01025
2.31849
2.37127
2.36455
2.34597
2.31928
2.28904
2.25396
1
1
1
1
1.00001
1.00001
1.00004
1.00008
1.00022
1.00046
1.00131
1.00279
1.00759
1.01741
1.04537
1.11363
1.30036
1.76518
2.2088
2.33229
2.3377
2.32593
2.30232
2.27355
2.2414
1
1
1
1
1
1.00001
1.00002
1.00006
1.00014
1.00034
1.00084
1.00199
1.00505
1.01181
1.03031
1.07415
1.19325
1.50269
2.04816
2.27143
2.30662
2.3013
2.28377
2.25687
2.22786
1
1
1
1
1
1.00001
1.00001
1.00004
1.00009
1.00025
1.00053
1.00146
1.00325
1.00846
1.01998
1.05096
1.12886
1.33769
1.82792
2.17942
2.27127
2.276
2.26569
2.24363
2.21351
1
1
1
1
1
1
1.00001
1.00003
1.00006
1.00016
1.00035
1.00098
1.00205
1.00577
1.0124
1.03341
1.07963
1.20854
1.53648
2.03403
2.22003
2.24705
2.24281
2.2254
2.20156
1
1
1
1
1
1
1.00001
1.00002
1.00004
1.0001
1.00027
1.00056
1.0016
1.00331
1.00927
1.02055
1.05448
1.13457
1.35423
1.83935
2.14532
2.21609
2.21955
2.20918
2.18814
1
1
1
1
1
1
1
1.00001
1.00003
1.00006
1.00018
1.00036
1.00102
1.00218
1.00584
1.01331
1.03423
1.08369
1.21684
1.55647
2.00828
2.16965
2.19292
2.18861
2.17208
1
1
1
1
1
1
1
1.00001
1.00002
1.00004
1.00011
1.00025
1.00062
1.00149
1.00357
1.00892
1.02117
1.05364
1.13447
1.35074
1.81265
2.09289
2.16025
2.16549
2.15673
1
1
1
1
1
1
1
1
1.00001
1.00003
1.00007
1.00015
1.00041
1.00085
1.00243
1.00509
1.01387
1.03153
1.08216
1.20535
1.52927
1.95467
2.11295
2.13888
2.13679
1
1
1
1
1
1
1
1
1.00001
1.00002
1.00004
1.0001
1.00024
1.00059
1.00141
1.00335
1.00843
1.01973
1.05035
1.12441
1.3245
1.75335
2.03203
2.10583
2.11414
1
1
1
1
1
1
1
1
1
1.00001
1.00003
1.00006
1.00016
1.00033
1.0009
1.00194
1.0051
1.01165
1.0295
1.07141
1.1821
1.46421
1.88399
2.05535
2.0866
1
1
1
1
1
1
1
1
1
1.00001
1.00002
1.00004
1.00009
1.00021
1.00054
1.00119
1.00319
1.00692
1.01856
1.04243
1.11079
1.27923
1.67226
1.97051
2.05564
1
1
1
1
1
1
1
1
1
1
1.00001
1.00002
1.00005
1.00013
1.0003
1.00077
1.0017
1.00453
1.00991
1.02612
1.06099
1.15723
1.40016
1.8079
1.9963
1
1
1
1
1
1
1
1
1
1
1.00001
1.00001
1.00003
1.00008
1.00018
1.00045
1.00103
1.00266
1.00585
1.01552
1.03519
1.09148
1.2276
1.56306
1.88896
1
1
1
1
1
1
1
1
1
1
1
1.00001
1.00002
1.00004
1.00011
1.00025
1.00063
1.00141
1.00372
1.00815
1.02151
1.0496
1.12769
1.32352
1.70384
1
1
1
1
1
1
1
1
1
1
1
1
1.00001
1.00003
1.00006
1.00015
1.00034
1.00086
1.00191
1.00501
1.01095
1.02867
1.06646
1.17056
1.42333
1
1
1
1
1
1
1
1
1
1
1
1
1.00001
1.00001
1.00004
1.00008
1.00021
1.00045
1.00123
1.00253
1.00704
1.01505
1.03978
1.09392
1.24256
1
1
1
1
1
1
1
1
1
1
1
1
1
1.00001
1.00002
1.00005
1.00011
1.00026
1.00067
1.00144
1.00389
1.00828
1.02206
1.05034
1.12925
1
1
1
1
1
1
1
1
1
1
1
1
1
1
1.00001
1.00003
1.00006
1.00016
1.00033
1.00086
1.00196
1.00476
1.01143
1.02716
1.0669
1
1
1
1
1
1
1
1
1
1
1
1
1
1
1.00001
1.00001
1.00004
1.00008
1.00021
1.00043
1.00119
1.00245
1.00667
1.01451
1.03748
1
1
1
1
1
1
1
1
1
1
1
1
1
1
1
1.00001
1.00002
1.00005
1.0001
1.00027
1.00057
1.00148
1.00332
1.00821
1.01938
1
1
1
1
1
1
1
1
1
1
1
1
1
1
1
1
1.00001
1.00002
1.00005
1.00014
1.0003
1.00081
1.00166
1.00456
1.00964
1
1
1
1
1
1
1
1
1
1
1
1
1
1
1
1
1.00001
1.00001
1.00003
1.00007
1.00017
1.00041
1.00095
1.00238
1.00524
1
1
1
1
1
1
1
1
1
1
1
1
1
1
1
1
1
1.00001
1.00002
1.00004
1.0001
1.00022
1.00054
1.00129
1.00295
1
1
1
1
1
1
1
1
1
1
1
1
1
1
1
1
1
1
1.00001
1.00002
1.00006
1.00013
1.00034
1.00073
1.00199
1
1
1
1
1
1
1
1
1
1
1
1
1
1
1
1
1
1
1.00001
1.00002
1.00004
1.0001
1.00025
1.00059
1.00143
1
1
1
1
1
1
1
1
1
1
1
1
1
1
1
1
1
1
1.00001
1.00001
1.00004
1.00008
1.00022
1.00053
1.00128
1
1
1
1
1
1
1
1
1
1
1
1
1
1
1
1
1
1
1.00001
1.00001
1.00004
1.00008
1.00022
1.00049
1.00129
1
1
1
1
1
1
1
1
1
1
1
1
1
1
1
1
1
1
1.00001
1.00001
1.00003
1.00009
1.00019
1.00054
1.00115
2.23836
2.07265
2.02096
2.05118
2.1097
2.18132
2.24685
2.27915
2.28429
2.2821
2.28014
2.27994
2.28122
2.28385
2.28784
2.293
2.29958
2.31256
2.33991
2.39763
2.51673
2.70341
2.90411
2.96679
2.97937
3.0191
3.0431
3.03343
2.99091
2.97129
2.96031
2.95101
2.94724
2.94651
2.95039
2.96297
2.97344
2.98898
3.0025
3.0117
3.01746
3.02015
3.02015
3.02065
3.01536
3.01215
3.0046
3.00026
2.99067
2.98534
2.97364
2.96704
2.9537
2.94726
2.93421
2.92779
2.91485
2.90851
2.89572
2.88941
2.87666
2.87031
2.85746
2.85101
2.83801
2.83147
2.81834
2.81166
2.79864
2.79129
2.77865
2.77089
2.75825
2.75036
2.73792
2.72986
2.71775
2.70955
2.6977
2.68941
2.67776
2.66931
2.65774
2.6491
2.63754
2.62872
2.61716
2.60818
2.59663
2.58756
2.57603
2.56707
2.5555
2.54681
2.53552
2.52725
2.51682
2.50998
2.50261
2.4997
2.23232
2.13513
2.0809
2.04416
2.00728
1.97877
1.97151
1.97523
1.98854
2.00729
2.0215
2.02609
2.02596
2.02568
2.02598
2.0275
2.03198
2.0434
2.06837
2.12035
2.23409
2.40987
2.69065
2.82592
2.87329
2.93646
3.00176
3.03858
3.06216
3.07282
3.07139
3.06178
3.04945
3.04658
3.04759
3.04774
3.04079
3.02821
3.01414
2.99734
2.95777
2.94377
2.91479
2.90236
2.87939
2.86844
2.84815
2.83687
2.81897
2.80956
2.79299
2.78202
2.76549
2.75541
2.7398
2.73025
2.71485
2.70568
2.69073
2.68156
2.66729
2.65783
2.64417
2.63447
2.62114
2.6114
2.59826
2.58864
2.57567
2.56628
2.55343
2.54419
2.53151
2.52224
2.50978
2.50045
2.48826
2.47894
2.46704
2.45782
2.44612
2.43704
2.42548
2.4165
2.40502
2.39611
2.3847
2.37586
2.36455
2.35581
2.3446
2.33599
2.32485
2.31639
2.30553
2.29751
2.28753
2.28091
2.27373
2.27105
2.23073
2.1434
2.06412
1.989
1.92002
1.86601
1.84052
1.83826
1.84221
1.85374
1.86946
1.88208
1.88942
1.89245
1.89331
1.89439
1.89708
1.90368
1.91927
1.95421
2.02983
2.18727
2.46468
2.5961
2.67831
2.74946
2.79519
2.84291
2.90705
2.97125
3.01797
3.04786
3.05773
3.06576
3.05875
3.04085
3.00517
2.96915
2.93447
2.9012
2.87455
2.85486
2.83212
2.81733
2.79769
2.78553
2.76747
2.75597
2.73898
2.72858
2.71351
2.70186
2.68623
2.67459
2.66033
2.64933
2.63529
2.62458
2.61083
2.60041
2.58708
2.57662
2.5636
2.55294
2.54009
2.52938
2.51645
2.50597
2.49293
2.4828
2.46991
2.46004
2.44749
2.43766
2.42543
2.41549
2.40347
2.39346
2.38162
2.3717
2.36002
2.35035
2.33879
2.32939
2.31793
2.30864
2.29731
2.28799
2.27677
2.26741
2.2563
2.24702
2.23615
2.22711
2.21662
2.20808
2.19839
2.1912
2.1841
2.18081
2.22073
2.13572
2.05497
1.98115
1.91628
1.86281
1.82191
1.79237
1.77672
1.77279
1.77427
1.78014
1.78951
1.79841
1.80419
1.8072
1.80906
1.81278
1.82156
1.84237
1.88976
2.00895
2.18595
2.4005
2.54774
2.60297
2.61855
2.65956
2.73287
2.76535
2.81412
2.86664
2.90316
2.91499
2.90754
2.88299
2.84195
2.8066
2.77295
2.75194
2.73141
2.71814
2.70206
2.69012
2.67522
2.66428
2.65066
2.64038
2.62688
2.61715
2.60387
2.59494
2.58069
2.5711
2.55707
2.54765
2.53402
2.52454
2.51123
2.50209
2.48911
2.48043
2.46754
2.4589
2.44605
2.43717
2.42466
2.4155
2.40332
2.3939
2.38177
2.37216
2.36007
2.35046
2.33863
2.32911
2.31766
2.30811
2.29697
2.28734
2.2764
2.26683
2.25602
2.24667
2.23598
2.22679
2.21615
2.20695
2.19641
2.18713
2.1767
2.16736
2.15712
2.14789
2.13798
2.12919
2.11995
2.11235
2.10536
2.10154
2.21682
2.13366
2.05746
1.98718
1.92382
1.86721
1.81808
1.77714
1.74573
1.72559
1.71791
1.71791
1.71982
1.72518
1.7326
1.73906
1.74422
1.74866
1.75531
1.76905
1.79843
1.8622
1.99898
2.22345
2.37078
2.4341
2.49658
2.54776
2.57144
2.61378
2.66457
2.70642
2.74119
2.75481
2.74849
2.72508
2.69425
2.66381
2.64295
2.62866
2.61697
2.6103
2.60086
2.59504
2.58389
2.57744
2.5663
2.56004
2.54854
2.54116
2.52884
2.52015
2.50715
2.49833
2.48657
2.47875
2.46694
2.45794
2.44511
2.43545
2.42315
2.41421
2.40276
2.394
2.38213
2.37264
2.36002
2.35023
2.33774
2.32831
2.31639
2.30703
2.29528
2.2855
2.27365
2.26366
2.25197
2.24225
2.23092
2.22159
2.2105
2.20122
2.19016
2.18064
2.16964
2.15993
2.14922
2.13955
2.12912
2.11974
2.10952
2.10051
2.09042
2.08168
2.07179
2.06325
2.05389
2.04605
2.03881
2.03438
2.21928
2.13864
2.06479
1.99715
1.9354
1.87964
1.8301
1.78684
1.75068
1.72133
1.69915
1.68503
1.67949
1.67943
1.68089
1.68502
1.69151
1.69807
1.70495
1.71389
1.73183
1.77011
1.86193
1.99604
2.22943
2.34746
2.37407
2.41063
2.46056
2.51066
2.5448
2.5918
2.63908
2.65078
2.64261
2.61859
2.5847
2.55263
2.52912
2.51096
2.50339
2.50143
2.49979
2.49701
2.49112
2.48583
2.47745
2.47159
2.46238
2.45795
2.44999
2.4444
2.43411
2.42547
2.4139
2.40567
2.3958
2.38881
2.37869
2.37025
2.35831
2.34885
2.33723
2.32877
2.31853
2.3105
2.30008
2.29096
2.27946
2.26959
2.25803
2.24866
2.23783
2.22907
2.21841
2.20948
2.19835
2.18896
2.1776
2.1681
2.15697
2.14762
2.13694
2.12768
2.11724
2.10792
2.09754
2.08824
2.07787
2.06873
2.05845
2.04945
2.03943
2.03052
2.02094
2.01231
2.00339
1.99569
1.98864
1.98453
2.22308
2.1478
2.07659
2.01112
1.95065
1.8957
1.84562
1.80094
1.7612
1.72691
1.69833
1.67517
1.65885
1.6494
1.64646
1.64673
1.64839
1.65255
1.65811
1.6657
1.67776
1.70195
1.75146
1.8666
2.03069
2.20144
2.28958
2.337
2.36242
2.40547
2.46499
2.52642
2.57137
2.57847
2.56757
2.54114
2.50399
2.46589
2.44084
2.42305
2.41181
2.41037
2.41416
2.41747
2.41805
2.4168
2.41344
2.41084
2.40596
2.40304
2.39732
2.39306
2.38439
2.37719
2.36677
2.35896
2.34901
2.34177
2.3323
2.3248
2.31446
2.30564
2.29411
2.28455
2.27305
2.26402
2.25333
2.24476
2.23409
2.22495
2.21355
2.20366
2.19208
2.1823
2.17142
2.1622
2.15193
2.14284
2.1324
2.12302
2.11222
2.10279
2.09195
2.08279
2.07227
2.06338
2.05322
2.04435
2.0344
2.02546
2.01566
2.00686
1.99725
1.98884
1.97952
1.9716
1.96276
1.95561
1.94845
1.94459
2.226
2.15676
2.09
2.02675
1.96834
1.91402
1.86466
1.81917
1.77873
1.74197
1.71041
1.683
1.66098
1.64319
1.63122
1.62422
1.62235
1.62282
1.62479
1.62933
1.63754
1.65234
1.68225
1.74414
1.8697
2.07444
2.18028
2.24383
2.3019
2.35184
2.41877
2.48552
2.53368
2.53611
2.52249
2.49046
2.44616
2.4041
2.3738
2.35606
2.34533
2.34095
2.34306
2.34931
2.35572
2.35713
2.35769
2.35655
2.35359
2.35098
2.34569
2.34238
2.33552
2.32903
2.31925
2.31133
2.3012
2.29367
2.28403
2.27668
2.26663
2.25844
2.24755
2.23861
2.22742
2.21839
2.2075
2.19878
2.18832
2.17975
2.16932
2.16044
2.14969
2.14034
2.12946
2.12
2.10944
2.10026
2.09029
2.08145
2.07174
2.06293
2.05309
2.04416
2.03417
2.02531
2.01548
2.007
1.99761
1.98955
1.98056
1.97267
1.96376
1.95588
1.94684
1.93913
1.93023
1.92329
1.91592
1.91236
2.2261
2.16395
2.10164
2.04216
1.98567
1.9332
1.88443
1.83948
1.7984
1.76091
1.72738
1.69726
1.67132
1.64881
1.63098
1.61664
1.60764
1.60286
1.60249
1.60353
1.60683
1.61458
1.63162
1.66802
1.74909
1.88167
2.0886
2.18192
2.23856
2.30918
2.40528
2.4859
2.51789
2.51605
2.49678
2.45616
2.40701
2.36292
2.33137
2.30973
2.2992
2.29499
2.29226
2.29449
2.29969
2.30558
2.30703
2.31013
2.30934
2.30742
2.30313
2.29995
2.29351
2.28773
2.27838
2.27041
2.26009
2.25197
2.24189
2.2342
2.22432
2.21643
2.20606
2.19748
2.18663
2.17761
2.16665
2.15761
2.14686
2.13815
2.12786
2.11959
2.10967
2.10145
2.09144
2.08271
2.07239
2.06322
2.05281
2.04366
2.0336
2.02495
2.01545
2.00738
1.99825
1.99047
1.98141
1.97364
1.96459
1.95684
1.94802
1.94043
1.93208
1.92473
1.91687
1.90971
1.90224
1.89548
1.88906
1.88521
2.22418
2.16829
2.11162
2.05536
2.00227
1.95107
1.90417
1.85949
1.81911
1.78095
1.74691
1.71523
1.68733
1.6623
1.64052
1.62267
1.60758
1.59695
1.58939
1.58747
1.5882
1.59131
1.59953
1.6189
1.66161
1.7647
1.90504
2.09893
2.21097
2.30694
2.42553
2.50462
2.51819
2.51002
2.48195
2.43491
2.38487
2.34299
2.31101
2.28743
2.27352
2.26348
2.26008
2.25561
2.25329
2.2557
2.25963
2.26329
2.26479
2.26301
2.25879
2.25462
2.24799
2.243
2.23458
2.22724
2.21728
2.20919
2.19886
2.19073
2.18074
2.17304
2.16345
2.15578
2.14611
2.1381
2.1282
2.11985
2.10973
2.10116
2.09101
2.08248
2.07262
2.06433
2.05492
2.047
2.03795
2.03012
2.02105
2.01306
2.00382
1.99571
1.98647
1.97846
1.96946
1.96173
1.95304
1.94562
1.93719
1.92999
1.92171
1.91463
1.90641
1.8994
1.89124
1.88432
1.87638
1.86989
1.86312
1.85952
2.21995
2.16988
2.11843
2.06666
2.01634
1.96816
1.92221
1.87939
1.8389
1.80179
1.76674
1.73524
1.70547
1.67949
1.65499
1.63452
1.61569
1.60082
1.58865
1.57954
1.57621
1.5768
1.57999
1.5894
1.61243
1.66448
1.78798
1.95873
2.1491
2.33579
2.47622
2.53574
2.53466
2.51927
2.48098
2.43032
2.38333
2.34293
2.30932
2.28396
2.26177
2.24579
2.23328
2.22437
2.21707
2.21028
2.20982
2.21118
2.21315
2.21261
2.21
2.20689
2.20056
2.19648
2.18988
2.18428
2.17556
2.16843
2.15894
2.15142
2.14206
2.13498
2.12613
2.11917
2.11039
2.10321
2.09442
2.08704
2.0781
2.07039
2.06121
2.05322
2.0439
2.03588
2.02673
2.01887
2.00997
2.00233
1.99369
1.98623
1.97777
1.97039
1.962
1.95462
1.94625
1.9389
1.93054
1.92328
1.91499
1.90786
1.89969
1.89269
1.88472
1.87788
1.87015
1.86352
1.8561
1.84995
1.84352
1.84018
2.21331
2.16896
2.12206
2.07478
2.02791
1.98239
1.93874
1.89706
1.85784
1.8208
1.78636
1.75402
1.7244
1.69657
1.67177
1.64841
1.62842
1.61001
1.59476
1.58239
1.57241
1.56905
1.56997
1.57427
1.58672
1.61726
1.68695
1.82635
2.07617
2.36105
2.54647
2.57268
2.56433
2.53741
2.49296
2.44422
2.39621
2.35352
2.31646
2.28415
2.25476
2.22773
2.20557
2.18921
2.17735
2.16795
2.16047
2.15586
2.15592
2.15644
2.1578
2.15665
2.154
2.15142
2.14665
2.14336
2.1368
2.13138
2.12339
2.11704
2.10871
2.10234
2.09419
2.08787
2.07967
2.0731
2.06484
2.05798
2.04966
2.04249
2.03404
2.02668
2.01829
2.01101
2.00268
1.9954
1.98701
1.97962
1.97113
1.96365
1.95516
1.94771
1.93935
1.9321
1.92393
1.91692
1.90895
1.90212
1.89427
1.88753
1.87977
1.87308
1.86544
1.85886
1.8514
1.84499
1.83778
1.83182
1.82551
1.82226
2.20547
2.16566
2.12395
2.08017
2.0371
1.99426
1.95307
1.91306
1.87539
1.83892
1.80531
1.77264
1.74331
1.71448
1.68935
1.66443
1.64342
1.62255
1.60586
1.58939
1.57766
1.56782
1.56645
1.56895
1.57755
1.60001
1.65279
1.76883
2.04004
2.34553
2.59553
2.62742
2.61359
2.57711
2.51679
2.45431
2.39504
2.34718
2.30631
2.26962
2.23233
2.19739
2.16778
2.14711
2.13277
2.12148
2.11412
2.10675
2.10363
2.1041
2.10687
2.10888
2.11114
2.11009
2.10759
2.10547
2.10109
2.0976
2.09098
2.08545
2.07778
2.07178
2.0642
2.05822
2.05071
2.04463
2.03697
2.03067
2.0228
2.01618
2.00815
2.00131
1.99331
1.98632
1.97832
1.97126
1.9633
1.95629
1.94842
1.9415
1.93367
1.92681
1.91894
1.91214
1.90425
1.89757
1.8897
1.88313
1.87533
1.86884
1.86115
1.85472
1.84719
1.84082
1.83351
1.82725
1.82021
1.81434
1.80813
1.80487
2.19605
2.16074
2.12311
2.08407
2.04343
2.00382
1.96456
1.92659
1.89007
1.85522
1.82186
1.79039
1.76053
1.73232
1.70632
1.68119
1.65913
1.63717
1.61904
1.60074
1.58701
1.57431
1.57066
1.57271
1.58001
1.5996
1.64615
1.74813
1.98421
2.22909
2.5601
2.60321
2.58025
2.532
2.4624
2.40663
2.35338
2.30179
2.26161
2.22824
2.19803
2.16684
2.14108
2.11789
2.10122
2.08811
2.07803
2.07098
2.06648
2.06373
2.06299
2.06475
2.06697
2.0688
2.0689
2.06768
2.06501
2.0629
2.0585
2.05437
2.04761
2.04229
2.03528
2.02988
2.02302
2.01758
2.01068
2.00503
1.99794
1.99201
1.98471
1.97852
1.97095
1.96444
1.95672
1.95001
1.94231
1.93556
1.92791
1.9212
1.91353
1.90685
1.89908
1.89248
1.88469
1.87821
1.8705
1.86416
1.85659
1.85033
1.84291
1.8367
1.82939
1.82321
1.81603
1.80994
1.80298
1.79727
1.79112
1.78796
2.1857
2.15442
2.12049
2.0847
2.04845
2.01039
1.97425
1.93783
1.9026
1.86931
1.83627
1.80607
1.7763
1.74857
1.72248
1.69719
1.67469
1.65218
1.63311
1.61393
1.59901
1.58565
1.58226
1.58497
1.59357
1.61581
1.66639
1.77346
1.93879
2.1414
2.36674
2.48288
2.48705
2.46464
2.42955
2.38194
2.32947
2.27803
2.23944
2.2091
2.18017
2.15124
2.12388
2.1011
2.08053
2.06462
2.0508
2.04077
2.03131
2.02639
2.02331
2.0231
2.02458
2.02802
2.02971
2.03172
2.03109
2.02995
2.02771
2.02552
2.02094
2.01659
2.01002
2.0048
1.99811
1.99287
1.98615
1.98061
1.97364
1.96781
1.96074
1.95468
1.94748
1.94125
1.93394
1.92766
1.92028
1.91401
1.90658
1.90031
1.89287
1.88658
1.87916
1.87291
1.86556
1.85939
1.85214
1.84602
1.83885
1.83277
1.82563
1.81957
1.81246
1.80643
1.79942
1.79346
1.78668
1.78107
1.77506
1.77191
2.17319
2.14604
2.11546
2.083
2.04949
2.01561
1.97975
1.94751
1.91233
1.88134
1.84913
1.81921
1.79083
1.76264
1.73769
1.71171
1.68984
1.66645
1.64749
1.62774
1.61275
1.60135
1.60133
1.60629
1.62033
1.65465
1.73409
1.85212
1.97085
2.06215
2.18142
2.33794
2.41131
2.41328
2.39482
2.36742
2.32558
2.27456
2.23288
2.20103
2.16956
2.14046
2.11266
2.08888
2.06633
2.04748
2.03072
2.01797
2.00721
1.99887
1.99313
1.98982
1.98875
1.98908
1.991
1.99434
1.99602
1.99711
1.99599
1.99474
1.99211
1.98943
1.984
1.97917
1.9727
1.96748
1.96111
1.95576
1.94937
1.944
1.93752
1.93203
1.92527
1.91952
1.91251
1.90657
1.89948
1.89343
1.88634
1.88026
1.8732
1.86716
1.8601
1.85412
1.84705
1.84113
1.83409
1.82824
1.82128
1.81547
1.80863
1.80282
1.79609
1.79025
1.78362
1.77779
1.77129
1.76571
1.75986
1.75658
2.16252
2.13433
2.10819
2.07869
2.04767
2.01756
1.9843
1.9526
1.92158
1.88943
1.86097
1.83012
1.80362
1.77537
1.75071
1.72562
1.70262
1.68116
1.66006
1.64299
1.62739
1.62308
1.62652
1.63677
1.66246
1.72446
1.82755
1.9363
1.99194
2.0294
2.07557
2.15793
2.26797
2.33074
2.34693
2.33647
2.31789
2.2782
2.23509
2.19928
2.1648
2.13426
2.10652
2.08073
2.05691
2.03548
2.01714
2.00067
1.98779
1.97597
1.96762
1.96004
1.95721
1.95509
1.95517
1.95649
1.95952
1.96118
1.96326
1.96281
1.96156
1.9602
1.9573
1.95394
1.94815
1.94327
1.93705
1.93204
1.92593
1.92084
1.9147
1.90938
1.90307
1.89748
1.89091
1.88518
1.87847
1.87277
1.86604
1.86038
1.85364
1.84796
1.84119
1.83547
1.82867
1.82299
1.8162
1.8106
1.80391
1.79838
1.79183
1.78626
1.77981
1.77413
1.76773
1.762
1.75569
1.75026
1.74456
1.74142
2.1486
2.12501
2.09747
2.07318
2.04348
2.01576
1.98679
1.95629
1.92698
1.89778
1.86851
1.84151
1.81314
1.78836
1.76164
1.739
1.71487
1.69431
1.67425
1.6575
1.64887
1.64987
1.65821
1.67909
1.7287
1.82669
1.93172
1.98754
2.00415
2.0104
2.0227
2.05238
2.111
2.18367
2.25305
2.29149
2.28625
2.26975
2.2408
2.20561
2.1681
2.13417
2.10398
2.07565
2.0508
2.02684
2.00713
1.98796
1.97237
1.95795
1.94679
1.93709
1.92967
1.9253
1.92315
1.92252
1.92277
1.92437
1.92749
1.92873
1.92972
1.92889
1.92751
1.92592
1.9226
1.91878
1.91306
1.90842
1.90252
1.89784
1.89187
1.88703
1.88095
1.87585
1.86963
1.86426
1.85797
1.8524
1.84608
1.84042
1.83406
1.82844
1.82197
1.81648
1.80992
1.80456
1.79801
1.79271
1.78627
1.78097
1.77466
1.76934
1.76313
1.75779
1.75163
1.74627
1.74017
1.73501
1.72946
1.72639
2.13732
2.11277
2.08857
2.06347
2.03913
2.0114
1.98527
1.95806
1.93004
1.9025
1.87556
1.8485
1.82302
1.79712
1.77366
1.749
1.72795
1.70606
1.68924
1.67598
1.67591
1.68273
1.70084
1.74183
1.83062
1.93811
1.99767
2.01193
2.00834
2.00027
1.99654
1.99916
2.01564
2.05634
2.11231
2.19183
2.23257
2.23513
2.22339
2.20645
2.17386
2.13939
2.10565
2.07432
2.04636
2.02131
1.99835
1.97826
1.95932
1.94352
1.92908
1.91803
1.90754
1.89999
1.89374
1.89153
1.88978
1.88982
1.89084
1.89353
1.89471
1.89682
1.89658
1.89584
1.89483
1.89303
1.88916
1.88506
1.8796
1.87503
1.86936
1.86468
1.8589
1.8541
1.84816
1.84317
1.83707
1.83195
1.82578
1.8206
1.8144
1.80922
1.80303
1.79783
1.79163
1.78639
1.78021
1.77496
1.76886
1.76366
1.75771
1.75257
1.74674
1.74161
1.73581
1.73071
1.72493
1.72006
1.71476
1.71192
2.12202
2.10153
2.07795
2.05563
2.03145
2.00793
1.98182
1.9568
1.93154
1.90537
1.87949
1.85462
1.82924
1.80559
1.78152
1.76011
1.73769
1.72003
1.7048
1.70246
1.70841
1.72402
1.76028
1.83952
1.94918
2.01482
2.02912
2.02197
2.01076
1.99235
1.97566
1.97021
1.97121
1.98176
2.00901
2.0571
2.12169
2.16314
2.18425
2.17895
2.16552
2.14092
2.11072
2.07852
2.04671
2.01839
1.99362
1.97126
1.94996
1.93197
1.91561
1.90153
1.88928
1.87878
1.86997
1.86336
1.85989
1.85805
1.85792
1.85824
1.8598
1.86302
1.86398
1.86583
1.86538
1.86484
1.86352
1.86129
1.85675
1.8525
1.84709
1.84253
1.83706
1.83248
1.82693
1.82219
1.81647
1.81162
1.80584
1.80096
1.79513
1.79023
1.78431
1.77942
1.77343
1.76859
1.76263
1.75782
1.75201
1.74714
1.74151
1.73653
1.73101
1.72596
1.72043
1.71543
1.70988
1.70517
1.70006
1.69736
2.10756
2.0905
2.0678
2.04534
2.0241
2.00091
1.97873
1.95372
1.93046
1.90638
1.88239
1.85793
1.83478
1.81136
1.78917
1.76783
1.74951
1.7329
1.72926
1.7346
1.7485
1.78162
1.85028
1.96164
2.03395
2.05004
2.04296
2.02917
2.00797
1.98514
1.96415
1.95272
1.94628
1.94656
1.95109
1.9672
2.00146
2.04546
2.09942
2.12651
2.12992
2.12116
2.10768
2.08082
2.05022
2.021
1.99347
1.96733
1.94458
1.92381
1.90523
1.88836
1.87399
1.86118
1.85061
1.84129
1.83447
1.82973
1.82787
1.82702
1.82718
1.82832
1.83047
1.83322
1.83481
1.83561
1.83529
1.83452
1.83261
1.82979
1.82503
1.82078
1.8155
1.81109
1.80579
1.80133
1.79595
1.79142
1.786
1.78146
1.776
1.77143
1.76588
1.76128
1.75566
1.75105
1.74545
1.74075
1.73522
1.73042
1.72496
1.72017
1.71473
1.71007
1.70461
1.70009
1.69468
1.69036
1.68544
1.68291
2.08761
2.07662
2.05792
2.03573
2.01451
1.99404
1.97228
1.95097
1.92762
1.90544
1.88286
1.86062
1.83784
1.81657
1.79504
1.77647
1.76039
1.75481
1.75938
1.77285
1.80328
1.86599
1.98048
2.05749
2.07464
2.06703
2.0518
2.02988
2.00277
1.97944
1.9589
1.94217
1.92945
1.92273
1.91923
1.92006
1.92796
1.94795
1.98378
2.02629
2.06001
2.0801
2.07655
2.06619
2.05034
2.02485
1.99623
1.9682
1.94294
1.91952
1.89837
1.87927
1.8622
1.84746
1.83445
1.82355
1.81407
1.80652
1.80099
1.79829
1.79705
1.79717
1.79776
1.79949
1.80289
1.80419
1.80617
1.80604
1.8056
1.80454
1.80198
1.79864
1.79381
1.78976
1.78471
1.78062
1.77564
1.77152
1.7665
1.76224
1.75711
1.75272
1.74749
1.74306
1.73777
1.73333
1.72803
1.72358
1.71829
1.71385
1.70856
1.70414
1.69886
1.69448
1.68922
1.68492
1.67976
1.67575
1.67117
1.66897
2.06703
2.06183
2.04654
2.02629
2.00585
1.98579
1.96616
1.9453
1.92508
1.90302
1.8822
1.86077
1.84047
1.82
1.80174
1.7855
1.77931
1.78326
1.79639
1.82574
1.88635
1.9967
2.07693
2.09636
2.08939
2.07459
2.05102
2.02377
1.99882
1.97652
1.95656
1.93748
1.92121
1.90682
1.89784
1.8907
1.88949
1.8909
1.9012
1.92392
1.95611
1.99628
2.01777
2.02915
2.02481
2.01551
1.99617
1.97177
1.9459
1.91933
1.89547
1.87411
1.85471
1.83722
1.82203
1.80868
1.79758
1.78745
1.77954
1.77328
1.76968
1.76796
1.76794
1.76821
1.76972
1.77181
1.7752
1.77655
1.77803
1.77776
1.77707
1.77553
1.77214
1.76873
1.76394
1.76014
1.75541
1.75159
1.74693
1.74297
1.73826
1.73418
1.72934
1.7252
1.7202
1.71604
1.71092
1.70674
1.70159
1.69739
1.69228
1.68811
1.68304
1.67896
1.67395
1.67007
1.66524
1.66177
1.65768
1.65596
2.03674
2.04102
2.03372
2.01752
1.99705
1.97743
1.95837
1.93954
1.91998
1.90056
1.88042
1.86062
1.8413
1.8239
1.80865
1.80228
1.80606
1.81932
1.84834
1.90825
2.01492
2.09849
2.11913
2.11228
2.09748
2.07305
2.04552
2.019
1.99671
1.97446
1.95492
1.93483
1.91615
1.89884
1.88318
1.8717
1.86311
1.85596
1.85628
1.85909
1.8707
1.8937
1.92244
1.95654
1.97459
1.97984
1.97443
1.96523
1.94668
1.92139
1.89745
1.87293
1.851
1.83094
1.81347
1.7974
1.78389
1.77205
1.76204
1.75356
1.74669
1.74242
1.73974
1.73941
1.73965
1.74055
1.74326
1.74579
1.74829
1.74968
1.74991
1.74967
1.74872
1.74683
1.74301
1.73967
1.73526
1.73157
1.72714
1.72345
1.71901
1.7153
1.71076
1.70703
1.70236
1.69856
1.69381
1.6899
1.68511
1.68114
1.67631
1.67246
1.6676
1.66403
1.65923
1.65603
1.65163
1.64896
1.64574
1.64467
2
2.01925
2.01803
2.00685
1.98924
1.96955
1.9508
1.93287
1.91474
1.89643
1.87821
1.86006
1.84304
1.82881
1.82309
1.82731
1.8412
1.87091
1.9314
2.03599
2.12201
2.1433
2.13649
2.1224
2.09583
2.06613
2.03959
2.01582
1.99373
1.9732
1.95235
1.93293
1.91234
1.89368
1.87502
1.85875
1.84564
1.8343
1.82685
1.82018
1.82059
1.82439
1.83685
1.86024
1.88637
1.91343
1.92956
1.93154
1.9266
1.91693
1.89906
1.87456
1.85089
1.82889
1.80816
1.79015
1.77368
1.75994
1.74742
1.73737
1.72808
1.72114
1.71582
1.71256
1.7116
1.71178
1.71231
1.71428
1.71665
1.71991
1.7214
1.72294
1.72293
1.72248
1.72103
1.71893
1.71505
1.71171
1.70742
1.70389
1.69971
1.69623
1.69207
1.68863
1.68437
1.68099
1.67657
1.67321
1.66862
1.66522
1.66059
1.65723
1.65279
1.64968
1.64567
1.64311
1.63982
1.63827
1.63572
1.63518
1.92473
1.98661
1.99704
1.99329
1.98028
1.96226
1.94381
1.92644
1.90923
1.89229
1.8754
1.85996
1.84649
1.84148
1.84654
1.86127
1.8931
1.95352
2.06085
2.14565
2.16566
2.15754
2.1435
2.1168
2.08618
2.0589
2.03475
2.01285
1.99152
1.97115
1.95025
1.92983
1.90918
1.88896
1.86971
1.85065
1.83425
1.81848
1.80673
1.79542
1.78794
1.78333
1.78399
1.78845
1.80133
1.82474
1.84907
1.87086
1.88544
1.8847
1.8801
1.87123
1.85336
1.83043
1.80685
1.78632
1.76789
1.75115
1.73637
1.72337
1.713
1.7035
1.69621
1.69025
1.68695
1.68479
1.68487
1.68525
1.68648
1.68923
1.69173
1.69459
1.69559
1.69681
1.69671
1.69603
1.69419
1.6918
1.68811
1.68505
1.68106
1.67803
1.67407
1.67108
1.66705
1.66399
1.65987
1.6568
1.65266
1.64969
1.64558
1.64288
1.63899
1.63679
1.63368
1.63244
1.62991
1.62927
1.6284
1.62859
1.78375
1.93907
1.97066
1.97463
1.96892
1.95513
1.93728
1.92004
1.90369
1.88782
1.87346
1.86143
1.85802
1.86431
1.88022
1.91512
1.97693
2.08471
2.1683
2.18706
2.17884
2.16187
2.13538
2.10552
2.07799
2.05371
2.03144
2.01022
1.98942
1.96841
1.9475
1.92622
1.90547
1.88442
1.8644
1.84451
1.82587
1.80835
1.79241
1.77918
1.76711
1.75687
1.75004
1.74679
1.7475
1.75215
1.76448
1.78726
1.80984
1.82846
1.84164
1.84027
1.83545
1.82685
1.81066
1.78875
1.76709
1.74682
1.72931
1.71396
1.70081
1.68943
1.67985
1.67205
1.66558
1.66163
1.65861
1.65849
1.65874
1.65978
1.66183
1.66521
1.66731
1.66989
1.67066
1.67154
1.67128
1.67032
1.66809
1.66566
1.66218
1.65939
1.65574
1.65319
1.64943
1.64708
1.64323
1.64098
1.63714
1.63494
1.6314
1.62947
1.6269
1.62575
1.62407
1.62315
1.62324
1.62393
1.62655
1.62711
1.57024
1.85217
1.94077
1.95638
1.95592
1.94701
1.93168
1.91428
1.89834
1.88435
1.87336
1.87169
1.8798
1.89752
1.93544
2.0035
2.10981
2.19141
2.20877
2.20032
2.18125
2.15282
2.12323
2.0964
2.0724
2.04996
2.02845
2.00713
1.9858
1.96446
1.94303
1.92162
1.90035
1.87929
1.85873
1.83879
1.81931