/*--------------------------------*- C++ -*----------------------------------*\
  =========                 |
  \\      /  F ield         | OpenFOAM: The Open Source CFD Toolbox
   \\    /   O peration     | Website:  https://openfoam.org
    \\  /    A nd           | Version:  13
     \\/     M anipulation  |
\*---------------------------------------------------------------------------*/
FoamFile
{
    format      ascii;
    class       volVectorField;
    location    "3.5";
    object      U;
}
// * * * * * * * * * * * * * * * * * * * * * * * * * * * * * * * * * * * * * //

dimensions      [0 1 -1 0 0 0 0];

internalField   nonuniform List<vector> 
5250
(
(3 8.45972e-09 0)
(2.99999 1.06262e-07 0)
(2.99997 1.48525e-07 0)
(2.99991 1.09442e-06 0)
(2.99978 1.36376e-06 0)
(2.99947 6.24957e-06 0)
(2.99869 1.18928e-05 0)
(2.99678 3.11778e-05 0)
(2.992 8.40468e-05 0)
(2.98008 0.00017431 0)
(2.94909 0.00049654 0)
(2.86444 0.00121035 0)
(2.61927 0.0034282 0)
(1.89794 0.00967295 0)
(0.881516 0.0265644 0)
(0.432877 0.0243555 0)
(0.533161 0.0243766 0)
(0.561045 0.0262034 0)
(0.506102 0.0280577 0)
(0.415034 0.029957 0)
(0.33024 0.0321891 0)
(0.261701 0.0348142 0)
(0.193323 0.0375877 0)
(0.115757 0.0408178 0)
(0.0487884 0.0445984 0)
(3 3.3296e-08 0)
(2.99999 2.39985e-07 0)
(2.99997 7.58014e-07 0)
(2.99992 2.33296e-06 0)
(2.99979 5.76318e-06 0)
(2.99948 1.53938e-05 0)
(2.99871 3.68821e-05 0)
(2.99684 9.57022e-05 0)
(2.99212 0.000226558 0)
(2.98041 0.000586221 0)
(2.94998 0.00144413 0)
(2.8668 0.00381487 0)
(2.62647 0.0104633 0)
(1.9164 0.0301003 0)
(0.892401 0.0809404 0)
(0.429759 0.0703814 0)
(0.533428 0.0671891 0)
(0.562486 0.0701464 0)
(0.507232 0.073205 0)
(0.416149 0.0764456 0)
(0.33127 0.0800123 0)
(0.262076 0.0839427 0)
(0.192624 0.0875706 0)
(0.113809 0.0910758 0)
(0.0464539 0.0936102 0)
(3 4.80734e-08 0)
(2.99999 4.27413e-07 0)
(2.99997 1.17962e-06 0)
(2.99992 4.17318e-06 0)
(2.9998 8.84691e-06 0)
(2.9995 2.72945e-05 0)
(2.99875 5.59079e-05 0)
(2.99694 0.000169927 0)
(2.9924 0.000350996 0)
(2.98109 0.00102506 0)
(2.95177 0.0023518 0)
(2.87197 0.00646354 0)
(2.64124 0.0175426 0)
(1.95834 0.0508775 0)
(0.918211 0.138582 0)
(0.427854 0.119676 0)
(0.537858 0.11299 0)
(0.569596 0.118081 0)
(0.514166 0.123872 0)
(0.423298 0.130621 0)
(0.338294 0.137408 0)
(0.268201 0.14454 0)
(0.197284 0.151385 0)
(0.116489 0.157552 0)
(0.0468636 0.16085 0)
(3 8.08201e-08 0)
(2.99999 5.31729e-07 0)
(2.99997 1.77983e-06 0)
(2.99992 5.22939e-06 0)
(2.99981 1.33085e-05 0)
(2.99952 3.46171e-05 0)
(2.99883 8.38265e-05 0)
(2.99708 0.000214862 0)
(2.99283 0.000516808 0)
(2.98208 0.00132254 0)
(2.95451 0.00327147 0)
(2.87949 0.00864375 0)
(2.66372 0.0237501 0)
(2.02184 0.0687931 0)
(0.960143 0.191272 0)
(0.42991 0.16825 0)
(0.547735 0.158365 0)
(0.58351 0.165358 0)
(0.528116 0.173996 0)
(0.437497 0.184868 0)
(0.351838 0.195377 0)
(0.280449 0.206291 0)
(0.207478 0.217122 0)
(0.123413 0.226805 0)
(0.0494845 0.231432 0)
(3 9.70893e-08 0)
(2.99999 6.00553e-07 0)
(2.99997 2.10984e-06 0)
(2.99993 5.88929e-06 0)
(2.99982 1.57849e-05 0)
(2.99956 3.97481e-05 0)
(2.9989 9.98167e-05 0)
(2.9973 0.000249424 0)
(2.99333 0.00061733 0)
(2.98339 0.00155047 0)
(2.95788 0.00390769 0)
(2.88908 0.0102244 0)
(2.69182 0.0282056 0)
(2.10487 0.0818524 0)
(1.0194 0.23463 0)
(0.442564 0.218269 0)
(0.565125 0.206885 0)
(0.605125 0.214266 0)
(0.549986 0.224606 0)
(0.459579 0.239213 0)
(0.372537 0.253652 0)
(0.299228 0.268825 0)
(0.223416 0.284355 0)
(0.134604 0.298585 0)
(0.054237 0.305573 0)
(3 9.58896e-08 0)
(2.99999 6.5506e-07 0)
(2.99997 2.12634e-06 0)
(2.99993 6.42101e-06 0)
(2.99984 1.60004e-05 0)
(2.99959 4.25172e-05 0)
(2.999 0.000102496 0)
(2.99751 0.000262469 0)
(2.99391 0.000635752 0)
(2.98482 0.00161678 0)
(2.96174 0.00401308 0)
(2.89981 0.0105185 0)
(2.72401 0.0287146 0)
(2.20283 0.0830354 0)
(1.1047 0.243793 0)
(0.483221 0.260037 0)
(0.596645 0.257364 0)
(0.63728 0.265303 0)
(0.582153 0.276877 0)
(0.491906 0.295118 0)
(0.402643 0.314187 0)
(0.326352 0.334521 0)
(0.246709 0.356073 0)
(0.151441 0.376886 0)
(0.0619624 0.388598 0)
(3 9.81907e-08 0)
(2.99999 6.00327e-07 0)
(2.99998 2.14087e-06 0)
(2.99994 5.82758e-06 0)
(2.99985 1.58927e-05 0)
(2.99963 3.89012e-05 0)
(2.99909 9.89179e-05 0)
(2.99774 0.000241893 0)
(2.99446 0.000598706 0)
(2.9862 0.00148609 0)
(2.96531 0.00369756 0)
(2.90971 0.00952334 0)
(2.75269 0.0256448 0)
(2.2897 0.0728808 0)
(1.19907 0.21554 0)
(0.526233 0.294205 0)
(0.62271 0.312152 0)
(0.664363 0.318151 0)
(0.614457 0.329987 0)
(0.528942 0.352438 0)
(0.439878 0.377382 0)
(0.36178 0.404307 0)
(0.278791 0.433843 0)
(0.176397 0.46465 0)
(0.0744999 0.486192 0)
(3 9.21123e-08 0)
(2.99999 5.67123e-07 0)
(2.99998 1.9882e-06 0)
(2.99994 5.5316e-06 0)
(2.99986 1.46668e-05 0)
(2.99966 3.66054e-05 0)
(2.99917 9.24181e-05 0)
(2.99793 0.000224753 0)
(2.99495 0.000562461 0)
(2.98741 0.00137108 0)
(2.96844 0.00343339 0)
(2.91812 0.00870911 0)
(2.77661 0.023235 0)
(2.35952 0.0650663 0)
(1.30459 0.192028 0)
(0.579041 0.33728 0)
(0.635516 0.371386 0)
(0.673888 0.369196 0)
(0.638469 0.381703 0)
(0.564764 0.408418 0)
(0.480705 0.441433 0)
(0.404225 0.47739 0)
(0.32095 0.518209 0)
(0.213314 0.564437 0)
(0.0957067 0.607196 0)
(3 9.24997e-08 0)
(2.99999 5.52627e-07 0)
(2.99998 1.99372e-06 0)
(2.99995 5.38769e-06 0)
(2.99988 1.46244e-05 0)
(2.99969 3.58461e-05 0)
(2.99925 9.14049e-05 0)
(2.99813 0.000221893 0)
(2.99541 0.000555755 0)
(2.98859 0.00136043 0)
(2.97143 0.00339492 0)
(2.92618 0.00861329 0)
(2.79944 0.022842 0)
(2.42771 0.0638861 0)
(1.43506 0.18817 0)
(0.661998 0.385794 0)
(0.643319 0.416042 0)
(0.672843 0.413537 0)
(0.657615 0.431076 0)
(0.599742 0.461125 0)
(0.525409 0.503571 0)
(0.454555 0.551218 0)
(0.376195 0.606713 0)
(0.27087 0.678574 0)
(0.13416 0.766605 0)
(3 9.87372e-08 0)
(2.99999 5.6072e-07 0)
(2.99998 2.04888e-06 0)
(2.99995 5.46203e-06 0)
(2.99989 1.51153e-05 0)
(2.99972 3.59886e-05 0)
(2.99933 9.56049e-05 0)
(2.99832 0.000221083 0)
(2.9959 0.000588173 0)
(2.98977 0.00135583 0)
(2.97448 0.00356485 0)
(2.9343 0.00874591 0)
(2.82261 0.0234487 0)
(2.49656 0.0651107 0)
(1.5888 0.190532 0)
(0.764013 0.434343 0)
(0.650842 0.448929 0)
(0.678989 0.451454 0)
(0.677861 0.475416 0)
(0.635241 0.509964 0)
(0.57541 0.560781 0)
(0.514578 0.620684 0)
(0.451101 0.697753 0)
(0.3664 0.814894 0)
(0.206803 1.02638 0)
(3 9.77615e-08 0)
(2.99999 5.85769e-07 0)
(2.99998 2.10117e-06 0)
(2.99996 5.72072e-06 0)
(2.9999 1.56607e-05 0)
(2.99976 3.7923e-05 0)
(2.9994 9.92766e-05 0)
(2.99854 0.000234266 0)
(2.99636 0.000603701 0)
(2.99107 0.00144673 0)
(2.97759 0.00366072 0)
(2.94273 0.00918706 0)
(2.84646 0.0242022 0)
(2.56691 0.0672499 0)
(1.76386 0.195248 0)
(0.884618 0.483075 0)
(0.66086 0.48402 0)
(0.692432 0.486454 0)
(0.703997 0.511893 0)
(0.674704 0.552406 0)
(0.630857 0.608875 0)
(0.58893 0.680214 0)
(0.560032 0.777854 0)
(0.560567 0.926808 0)
(0.603008 1.17841 0)
(3 8.72197e-08 0)
(2.99999 6.37892e-07 0)
(2.99999 1.98233e-06 0)
(2.99997 6.24084e-06 0)
(2.99992 1.4911e-05 0)
(2.99979 4.13881e-05 0)
(2.99949 9.42343e-05 0)
(2.99874 0.000255807 0)
(2.99691 0.000580609 0)
(2.99232 0.00155804 0)
(2.98093 0.00365276 0)
(2.95142 0.00959921 0)
(2.87104 0.0246498 0)
(2.63965 0.0686879 0)
(1.95997 0.198699 0)
(1.02789 0.525901 0)
(0.682706 0.52358 0)
(0.715282 0.5241 0)
(0.737676 0.543663 0)
(0.720543 0.587333 0)
(0.692406 0.647209 0)
(0.673255 0.726178 0)
(0.680712 0.832731 0)
(0.744257 0.979374 0)
(0.900395 1.17207 0)
(3 9.15587e-08 0)
(3 5.99708e-07 0)
(2.99999 1.98288e-06 0)
(2.99997 5.8737e-06 0)
(2.99993 1.48337e-05 0)
(2.99983 3.87646e-05 0)
(2.99958 9.48693e-05 0)
(2.99895 0.000238852 0)
(2.99744 0.000590544 0)
(2.99363 0.00146032 0)
(2.9843 0.00367035 0)
(2.96022 0.00920681 0)
(2.89583 0.0240512 0)
(2.71289 0.0659759 0)
(2.17228 0.191127 0)
(1.20436 0.537799 0)
(0.73847 0.565371 0)
(0.755879 0.57196 0)
(0.781779 0.578495 0)
(0.775848 0.618156 0)
(0.760189 0.678176 0)
(0.760842 0.756978 0)
(0.79409 0.858266 0)
(0.884442 0.981284 0)
(1.06343 1.10298 0)
(3 8.37072e-08 0)
(3 5.09141e-07 0)
(2.99999 1.78597e-06 0)
(2.99998 4.98776e-06 0)
(2.99994 1.32216e-05 0)
(2.99986 3.30538e-05 0)
(2.99966 8.39218e-05 0)
(2.99915 0.000203128 0)
(2.99793 0.000516429 0)
(2.99488 0.00123919 0)
(2.9874 0.00315658 0)
(2.9684 0.00774591 0)
(2.91854 0.0200884 0)
(2.7797 0.0538782 0)
(2.37627 0.153792 0)
(1.42337 0.455497 0)
(0.840213 0.589537 0)
(0.814958 0.61547 0)
(0.831859 0.621578 0)
(0.838754 0.650739 0)
(0.832581 0.704402 0)
(0.844744 0.775535 0)
(0.891602 0.861799 0)
(0.988078 0.957319 0)
(1.15738 1.03527 0)
(3 6.92037e-08 0)
(3 4.26836e-07 0)
(2.99999 1.50517e-06 0)
(2.99998 4.15699e-06 0)
(2.99995 1.10994e-05 0)
(2.99989 2.7618e-05 0)
(2.99972 6.8903e-05 0)
(2.99931 0.000170078 0)
(2.99831 0.000414868 0)
(2.99583 0.00103169 0)
(2.98972 0.0024977 0)
(2.97433 0.00625551 0)
(2.93425 0.015642 0)
(2.82349 0.0412343 0)
(2.50337 0.114 0)
(1.64092 0.339087 0)
(0.941384 0.62481 0)
(0.855039 0.65648 0)
(0.87075 0.66878 0)
(0.89089 0.685205 0)
(0.899077 0.727714 0)
(0.920009 0.7872 0)
(0.972489 0.856558 0)
(1.06658 0.928284 0)
(1.21776 0.981784 0)
(3 6.1129e-08 0)
(3 3.67668e-07 0)
(2.99999 1.31289e-06 0)
(2.99998 3.58179e-06 0)
(2.99996 9.72424e-06 0)
(2.99991 2.36216e-05 0)
(2.99978 6.11122e-05 0)
(2.99944 0.000145043 0)
(2.99865 0.000370851 0)
(2.99662 0.000882869 0)
(2.99175 0.00223543 0)
(2.97935 0.00541391 0)
(2.94756 0.013813 0)
(2.86065 0.0357149 0)
(2.6108 0.0985961 0)
(1.89553 0.28705 0)
(1.0937 0.665348 0)
(0.885955 0.691786 0)
(0.898218 0.704718 0)
(0.928956 0.712875 0)
(0.954724 0.745737 0)
(0.984458 0.794407 0)
(1.03907 0.849462 0)
(1.12781 0.903136 0)
(1.26041 0.941334 0)
(3 5.37698e-08 0)
(3 3.19941e-07 0)
(3 1.15059e-06 0)
(2.99999 3.12838e-06 0)
(2.99997 8.5532e-06 0)
(2.99993 2.07361e-05 0)
(2.99982 5.41133e-05 0)
(2.99957 0.000127751 0)
(2.99892 0.000330584 0)
(2.99739 0.000783096 0)
(2.99349 0.00200936 0)
(2.98398 0.00486998 0)
(2.95946 0.012442 0)
(2.89391 0.0320706 0)
(2.70814 0.0879914 0)
(2.16073 0.254418 0)
(1.29264 0.674861 0)
(0.939908 0.723087 0)
(0.934282 0.732828 0)
(0.965727 0.736857 0)
(1.00444 0.758345 0)
(1.04088 0.797558 0)
(1.09521 0.841953 0)
(1.1773 0.882966 0)
(1.29315 0.910895 0)
(3 4.27746e-08 0)
(3 2.70845e-07 0)
(3 9.33632e-07 0)
(2.99999 2.64045e-06 0)
(2.99998 6.93126e-06 0)
(2.99995 1.75275e-05 0)
(2.99986 4.34866e-05 0)
(2.99967 0.000108353 0)
(2.99919 0.000264488 0)
(2.99802 0.000658683 0)
(2.99515 0.0016091 0)
(2.98805 0.00400852 0)
(2.97021 0.00997088 0)
(2.92365 0.0255475 0)
(2.79543 0.0685937 0)
(2.42442 0.195441 0)
(1.56298 0.567619 0)
(1.05167 0.730892 0)
(0.994495 0.755657 0)
(1.01148 0.765102 0)
(1.05279 0.774292 0)
(1.09423 0.801955 0)
(1.14598 0.836426 0)
(1.22003 0.867815 0)
(1.32089 0.888341 0)
(3 3.27887e-08 0)
(3 2.18571e-07 0)
(3 7.16716e-07 0)
(2.99999 2.12724e-06 0)
(2.99998 5.30214e-06 0)
(2.99996 1.39313e-05 0)
(2.9999 3.32075e-05 0)
(2.99975 8.46856e-05 0)
(2.99938 0.000201866 0)
(2.99851 0.000505555 0)
(2.99628 0.00121797 0)
(2.99094 0.00302066 0)
(2.9774 0.00738105 0)
(2.94265 0.0186288 0)
(2.84787 0.0483199 0)
(2.57671 0.133029 0)
(1.83596 0.395193 0)
(1.17517 0.737352 0)
(1.04291 0.776618 0)
(1.0498 0.793842 0)
(1.09066 0.796073 0)
(1.13912 0.810648 0)
(1.19045 0.834976 0)
(1.25757 0.858176 0)
(1.34577 0.872788 0)
(3 2.70079e-08 0)
(3 1.70987e-07 0)
(3 5.9251e-07 0)
(2.99999 1.66611e-06 0)
(2.99999 4.38167e-06 0)
(2.99997 1.10565e-05 0)
(2.99992 2.72528e-05 0)
(2.99981 6.81912e-05 0)
(2.99954 0.000164276 0)
(2.99887 0.000413786 0)
(2.99725 0.00099079 0)
(2.99318 0.00250272 0)
(2.98321 0.00606817 0)
(2.95758 0.0153927 0)
(2.88906 0.0395676 0)
(2.69506 0.108032 0)
(2.12914 0.314323 0)
(1.35921 0.756272 0)
(1.09349 0.808791 0)
(1.08568 0.820433 0)
(1.12055 0.819065 0)
(1.17472 0.82095 0)
(1.22872 0.836039 0)
(1.29085 0.852595 0)
(1.36866 0.86261 0)
(3 2.22109e-08 0)
(3 1.30347e-07 0)
(3 4.72572e-07 0)
(3 1.26993e-06 0)
(2.99999 3.48687e-06 0)
(2.99998 8.39118e-06 0)
(2.99994 2.18499e-05 0)
(2.99987 5.14732e-05 0)
(2.99967 0.000132032 0)
(2.99919 0.000312108 0)
(2.99802 0.000793638 0)
(2.99518 0.00189928 0)
(2.98814 0.00479316 0)
(2.97055 0.0117646 0)
(2.92471 0.0303238 0)
(2.7997 0.0809223 0)
(2.43671 0.231695 0)
(1.64166 0.64469 0)
(1.20194 0.808793 0)
(1.14336 0.834517 0)
(1.15933 0.841179 0)
(1.20933 0.835979 0)
(1.26515 0.841055 0)
(1.32271 0.850805 0)
(1.39133 0.856678 0)
(3 1.52934e-08 0)
(3 1.02105e-07 0)
(3 3.34616e-07 0)
(3 9.92084e-07 0)
(2.99999 2.47458e-06 0)
(2.99998 6.47645e-06 0)
(2.99996 1.55071e-05 0)
(2.9999 3.91261e-05 0)
(2.99976 9.38446e-05 0)
(2.99942 0.000232575 0)
(2.99857 0.00056367 0)
(2.99652 0.00137881 0)
(2.99143 0.00339035 0)
(2.97884 0.00828941 0)
(2.94644 0.0208329 0)
(2.85925 0.0538275 0)
(2.61141 0.147792 0)
(1.93959 0.43503 0)
(1.33279 0.794919 0)
(1.19557 0.845361 0)
(1.19597 0.864425 0)
(1.2375 0.859448 0)
(1.29519 0.852337 0)
(1.35143 0.85343 0)
(1.41346 0.8549 0)
(3 1.14498e-08 0)
(3 7.69926e-08 0)
(3 2.53157e-07 0)
(3 7.49456e-07 0)
(3 1.87567e-06 0)
(2.99999 4.92047e-06 0)
(2.99997 1.17061e-05 0)
(2.99993 2.99208e-05 0)
(2.99983 7.07237e-05 0)
(2.99959 0.000178801 0)
(2.99898 0.000425451 0)
(2.99753 0.00106686 0)
(2.9939 0.00256832 0)
(2.98505 0.00641817 0)
(2.96247 0.0158194 0)
(2.90284 0.040832 0)
(2.73661 0.109657 0)
(2.25187 0.318083 0)
(1.53969 0.766096 0)
(1.26309 0.862521 0)
(1.23768 0.883074 0)
(1.26158 0.882849 0)
(1.31584 0.869147 0)
(1.37503 0.861511 0)
(1.43424 0.857885 0)
(3 8.93229e-09 0)
(3 5.45643e-08 0)
(3 1.93617e-07 0)
(3 5.31107e-07 0)
(3 1.42546e-06 0)
(2.99999 3.51785e-06 0)
(2.99998 8.82624e-06 0)
(2.99995 2.16092e-05 0)
(2.99988 5.28278e-05 0)
(2.99971 0.000130625 0)
(2.99931 0.000314196 0)
(2.9983 0.000788177 0)
(2.99589 0.00187964 0)
(2.98987 0.00474489 0)
(2.97508 0.0115102 0)
(2.93679 0.0295023 0)
(2.83384 0.0774276 0)
(2.53734 0.218983 0)
(1.83966 0.612353 0)
(1.38336 0.854517 0)
(1.29517 0.88863 0)
(1.2975 0.90008 0)
(1.33899 0.888276 0)
(1.39666 0.872648 0)
(1.45388 0.86403 0)
(3 6.54692e-09 0)
(3 3.90871e-08 0)
(3 1.39509e-07 0)
(3 3.80118e-07 0)
(3 1.02503e-06 0)
(2.99999 2.49523e-06 0)
(2.99999 6.38082e-06 0)
(2.99997 1.51493e-05 0)
(2.99992 3.83287e-05 0)
(2.9998 9.06281e-05 0)
(2.99953 0.000227939 0)
(2.99884 0.000541838 0)
(2.99719 0.00135365 0)
(2.99307 0.00325816 0)
(2.98306 0.0081029 0)
(2.95747 0.0200252 0)
(2.88982 0.0516357 0)
(2.70062 0.1396 0)
(2.16636 0.407782 0)
(1.5513 0.835156 0)
(1.35265 0.902497 0)
(1.33494 0.915475 0)
(1.35917 0.907952 0)
(1.41309 0.887419 0)
(1.47161 0.872449 0)
(3 4.3593e-09 0)
(3 2.84568e-08 0)
(3 9.475e-08 0)
(3 2.76457e-07 0)
(3 7.00425e-07 0)
(3 1.80157e-06 0)
(2.99999 4.38023e-06 0)
(2.99998 1.08541e-05 0)
(2.99995 2.64301e-05 0)
(2.99987 6.42849e-05 0)
(2.99969 0.000158591 0)
(2.99924 0.000380172 0)
(2.99815 0.000948298 0)
(2.9955 0.00226678 0)
(2.98903 0.00567785 0)
(2.97291 0.0138138 0)
(2.93151 0.0353027 0)
(2.82043 0.0929458 0)
(2.49871 0.266074 0)
(1.83161 0.690117 0)
(1.45727 0.881384 0)
(1.38968 0.912978 0)
(1.3922 0.920663 0)
(1.43293 0.904778 0)
(1.48903 0.881929 0)
(3 2.94205e-09 0)
(3 1.95647e-08 0)
(3 6.44496e-08 0)
(3 1.89734e-07 0)
(3 4.75163e-07 0)
(3 1.23501e-06 0)
(2.99999 2.95007e-06 0)
(2.99999 7.42689e-06 0)
(2.99996 1.77e-05 0)
(2.99991 4.38376e-05 0)
(2.99979 0.000105367 0)
(2.99949 0.000257536 0)
(2.99877 0.000626931 0)
(2.99701 0.00151318 0)
(2.99268 0.00373145 0)
(2.98208 0.00902252 0)
(2.95516 0.0225814 0)
(2.884 0.0576085 0)
(2.68506 0.156354 0)
(2.1448 0.447366 0)
(1.59994 0.845462 0)
(1.44363 0.914174 0)
(1.42752 0.929674 0)
(1.4501 0.922444 0)
(1.50095 0.897297 0)
(3 2.12838e-09 0)
(3 1.28692e-08 0)
(3 4.55634e-08 0)
(3 1.24748e-07 0)
(3 3.34315e-07 0)
(3 8.15999e-07 0)
(3 2.06777e-06 0)
(2.99999 4.93562e-06 0)
(2.99998 1.23204e-05 0)
(2.99994 2.93593e-05 0)
(2.99986 7.27125e-05 0)
(2.99967 0.000174302 0)
(2.9992 0.000428274 0)
(2.99808 0.00103512 0)
(2.99528 0.00253322 0)
(2.98859 0.00618222 0)
(2.97174 0.0152681 0)
(2.92857 0.03852 0)
(2.81228 0.101722 0)
(2.47623 0.289711 0)
(1.85511 0.719873 0)
(1.53255 0.896342 0)
(1.47422 0.928362 0)
(1.477 0.93545 0)
(1.51532 0.918062 0)
(3 1.39929e-09 0)
(3 8.71797e-09 0)
(3 3.02805e-08 0)
(3 8.44836e-08 0)
(3 2.21968e-07 0)
(3 5.52144e-07 0)
(3 1.36647e-06 0)
(2.99999 3.33647e-06 0)
(2.99999 8.10301e-06 0)
(2.99996 1.98215e-05 0)
(2.99991 4.76575e-05 0)
(2.99979 0.000117169 0)
(2.99948 0.000279863 0)
(2.99877 0.000692638 0)
(2.99697 0.00164958 0)
(2.99269 0.00409319 0)
(2.982 0.00989241 0)
(2.95523 0.0247243 0)
(2.88459 0.0633195 0)
(2.68688 0.172325 0)
(2.16768 0.486181 0)
(1.67242 0.859714 0)
(1.52792 0.929766 0)
(1.50979 0.944929 0)
(1.52861 0.93775 0)
(3 9.16439e-10 0)
(3 5.78846e-09 0)
(3 2.00032e-08 0)
(3 5.60176e-08 0)
(3 1.46524e-07 0)
(3 3.65829e-07 0)
(3 8.99503e-07 0)
(3 2.21369e-06 0)
(2.99999 5.31062e-06 0)
(2.99998 1.31724e-05 0)
(2.99995 3.11218e-05 0)
(2.99987 7.77915e-05 0)
(2.99968 0.000182774 0)
(2.99922 0.000458035 0)
(2.99812 0.00107705 0)
(2.99546 0.00269619 0)
(2.9889 0.00642341 0)
(2.97279 0.016058 0)
(2.93144 0.0400126 0)
(2.82073 0.105822 0)
(2.50343 0.300229 0)
(1.92438 0.723055 0)
(1.61678 0.906449 0)
(1.55536 0.941384 0)
(1.55406 0.949021 0)
(3 6.06101e-10 0)
(3 3.7254e-09 0)
(3 1.30088e-08 0)
(3 3.60734e-08 0)
(3 9.52434e-08 0)
(3 2.34479e-07 0)
(3 5.87109e-07 0)
(3 1.40746e-06 0)
(2.99999 3.47851e-06 0)
(2.99999 8.30951e-06 0)
(2.99997 2.0422e-05 0)
(2.99992 4.8879e-05 0)
(2.9998 0.000119488 0)
(2.99951 0.000287409 0)
(2.99883 0.000699767 0)
(2.99715 0.00169224 0)
(2.99313 0.0041185 0)
(2.98313 0.0100529 0)
(2.95823 0.0248722 0)
(2.89297 0.0634691 0)
(2.71154 0.171794 0)
(2.23667 0.477829 0)
(1.76123 0.859316 0)
(1.60967 0.938235 0)
(1.5865 0.954992 0)
(3 3.77114e-10 0)
(3 2.42323e-09 0)
(3 8.167e-09 0)
(3 2.34281e-08 0)
(3 6.0003e-08 0)
(3 1.51556e-07 0)
(3 3.70131e-07 0)
(3 9.05618e-07 0)
(3 2.19674e-06 0)
(2.99999 5.30933e-06 0)
(2.99998 1.29403e-05 0)
(2.99995 3.09945e-05 0)
(2.99988 7.59657e-05 0)
(2.99971 0.000181198 0)
(2.99929 0.000445277 0)
(2.9983 0.00106245 0)
(2.99586 0.00261289 0)
(2.99005 0.00628975 0)
(2.97559 0.0155328 0)
(2.93917 0.0387136 0)
(2.84291 0.101295 0)
(2.56831 0.285251 0)
(2.02495 0.693022 0)
(1.70587 0.901915 0)
(1.63492 0.945645 0)
(3 2.45189e-10 0)
(3 1.48999e-09 0)
(3 5.25121e-09 0)
(3 1.44069e-08 0)
(3 3.83069e-08 0)
(3 9.36181e-08 0)
(3 2.34424e-07 0)
(3 5.59746e-07 0)
(3 1.37901e-06 0)
(2.99999 3.28951e-06 0)
(2.99999 8.02236e-06 0)
(2.99997 1.92453e-05 0)
(2.99993 4.65354e-05 0)
(2.99982 0.000112504 0)
(2.99957 0.000269231 0)
(2.99895 0.000657487 0)
(2.99748 0.00156252 0)
(2.99388 0.00383707 0)
(2.98514 0.00919689 0)
(2.9633 0.0227397 0)
(2.9069 0.0571575 0)
(2.75206 0.152538 0)
(2.33784 0.421494 0)
(1.86322 0.82156 0)
(1.69104 0.928793 0)
(3 1.50202e-10 0)
(3 9.38637e-10 0)
(3 3.21954e-09 0)
(3 9.07754e-09 0)
(3 2.35014e-08 0)
(3 5.8628e-08 0)
(3 1.44797e-07 0)
(3 3.47783e-07 0)
(3 8.58123e-07 0)
(3 2.02672e-06 0)
(2.99999 5.02692e-06 0)
(2.99998 1.17952e-05 0)
(2.99996 2.92871e-05 0)
(2.99989 6.87903e-05 0)
(2.99974 0.000170201 0)
(2.99938 0.000402112 0)
(2.9985 0.000989273 0)
(2.99641 0.00236031 0)
(2.9913 0.00578412 0)
(2.97886 0.0140331 0)
(2.94748 0.0349979 0)
(2.86553 0.090185 0)
(2.63339 0.249589 0)
(2.13572 0.632167 0)
(1.79681 0.888879 0)
(3 9.03872e-11 0)
(3 5.75836e-10 0)
(3 1.97424e-09 0)
(3 5.55006e-09 0)
(3 1.44032e-08 0)
(3 3.60227e-08 0)
(3 8.76254e-08 0)
(3 2.15573e-07 0)
(3 5.12365e-07 0)
(3 1.26328e-06 0)
(3 2.97395e-06 0)
(2.99999 7.35482e-06 0)
(2.99997 1.72448e-05 0)
(2.99994 4.26334e-05 0)
(2.99985 0.000100273 0)
(2.99963 0.00024647 0)
(2.99911 0.000583321 0)
(2.99788 0.00142692 0)
(2.99485 0.00340478 0)
(2.98758 0.00831891 0)
(2.96951 0.0202088 0)
(2.92354 0.0507844 0)
(2.79952 0.13336 0)
(2.46003 0.370671 0)
(1.98949 0.772215 0)
(3 5.5943e-11 0)
(3 3.48987e-10 0)
(3 1.20857e-09 0)
(3 3.36758e-09 0)
(3 8.80826e-09 0)
(3 2.18264e-08 0)
(3 5.3651e-08 0)
(3 1.30262e-07 0)
(3 3.13963e-07 0)
(3 7.62166e-07 0)
(3 1.82091e-06 0)
(2.99999 4.43611e-06 0)
(2.99998 1.05455e-05 0)
(2.99996 2.57659e-05 0)
(2.99991 6.11549e-05 0)
(2.99979 0.000149223 0)
(2.99949 0.000355426 0)
(2.99876 0.000864942 0)
(2.99704 0.00207063 0)
(2.99283 0.00503924 0)
(2.98267 0.0122089 0)
(2.95722 0.0301625 0)
(2.89157 0.0767627 0)
(2.70849 0.208411 0)
(2.27702 0.54488 0)
(3 3.31749e-11 0)
(3 2.10767e-10 0)
(3 7.15565e-10 0)
(3 2.03296e-09 0)
(3 5.22329e-09 0)
(3 1.30753e-08 0)
(3 3.19212e-08 0)
(3 7.73911e-08 0)
(3 1.8739e-07 0)
(3 4.48874e-07 0)
(3 1.09018e-06 0)
(3 2.59102e-06 0)
(2.99999 6.3158e-06 0)
(2.99998 1.49626e-05 0)
(2.99995 3.65121e-05 0)
(2.99988 8.64737e-05 0)
(2.99971 0.000210674 0)
(2.99931 0.000500302 0)
(2.99833 0.00121745 0)
(2.99602 0.00290308 0)
(2.99039 0.00707968 0)
(2.97678 0.0171035 0)
(2.94261 0.042692 0)
(2.85333 0.110331 0)
(2.60506 0.305818 0)
(3 1.97623e-11 0)
(3 1.22773e-10 0)
(3 4.27754e-10 0)
(3 1.18309e-09 0)
(3 3.10713e-09 0)
(3 7.65187e-09 0)
(3 1.87952e-08 0)
(3 4.54586e-08 0)
(3 1.09063e-07 0)
(3 2.64752e-07 0)
(3 6.26234e-07 0)
(3 1.53194e-06 0)
(2.99999 3.59083e-06 0)
(2.99999 8.82301e-06 0)
(2.99997 2.06126e-05 0)
(2.99993 5.05962e-05 0)
(2.99983 0.000118504 0)
(2.9996 0.000289271 0)
(2.99904 0.00068128 0)
(2.99772 0.00165337 0)
(2.99448 0.00392866 0)
(2.98674 0.00951754 0)
(2.96756 0.0230306 0)
(2.91888 0.0575041 0)
(2.78766 0.151015 0)
(3 1.1662e-11 0)
(3 7.22433e-11 0)
(3 2.48899e-10 0)
(3 6.96208e-10 0)
(3 1.80537e-09 0)
(3 4.46893e-09 0)
(3 1.10034e-08 0)
(3 2.62953e-08 0)
(3 6.44123e-08 0)
(3 1.51681e-07 0)
(3 3.71972e-07 0)
(3 8.73141e-07 0)
(3 2.13736e-06 0)
(2.99999 5.02805e-06 0)
(2.99998 1.22432e-05 0)
(2.99996 2.89934e-05 0)
(2.99991 7.00537e-05 0)
(2.99978 0.000167371 0)
(2.99947 0.000400524 0)
(2.99872 0.000967168 0)
(2.99694 0.0022994 0)
(2.99266 0.00560805 0)
(2.98226 0.0134267 0)
(2.95648 0.0332634 0)
(2.8902 0.0839684 0)
(3 6.59442e-12 0)
(3 4.17019e-11 0)
(3 1.41854e-10 0)
(3 4.00832e-10 0)
(3 1.03061e-09 0)
(3 2.57035e-09 0)
(3 6.25443e-09 0)
(3 1.51402e-08 0)
(3 3.64327e-08 0)
(3 8.71586e-08 0)
(3 2.10289e-07 0)
(3 4.99185e-07 0)
(3 1.208e-06 0)
(3 2.85699e-06 0)
(2.99999 6.92841e-06 0)
(2.99998 1.6364e-05 0)
(2.99995 3.96347e-05 0)
(2.99988 9.37801e-05 0)
(2.99971 0.000226792 0)
(2.9993 0.000538012 0)
(2.99835 0.00129681 0)
(2.99601 0.00309842 0)
(2.99052 0.00747339 0)
(2.977 0.0180683 0)
(2.94369 0.0447394 0)
(3 3.68566e-12 0)
(3 2.37824e-11 0)
(3 8.00496e-11 0)
(3 2.28717e-10 0)
(3 5.81973e-10 0)
(3 1.4659e-09 0)
(3 3.52285e-09 0)
(3 8.62187e-09 0)
(3 2.04504e-08 0)
(3 4.95525e-08 0)
(3 1.17479e-07 0)
(3 2.8295e-07 0)
(3 6.72801e-07 0)
(3 1.61074e-06 0)
(2.99999 3.84718e-06 0)
(2.99999 9.16131e-06 0)
(2.99997 2.19832e-05 0)
(2.99993 5.20049e-05 0)
(2.99984 0.000125427 0)
(2.99961 0.000295635 0)
(2.99907 0.000713868 0)
(2.9978 0.00168301 0)
(2.99471 0.00406811 0)
(2.98737 0.00967539 0)
(2.96925 0.0235234 0)
(3 2.13959e-12 0)
(3 1.34112e-11 0)
(3 4.57777e-11 0)
(3 1.292e-10 0)
(3 3.31328e-10 0)
(3 8.25723e-10 0)
(3 2.00898e-09 0)
(3 4.82777e-09 0)
(3 1.16914e-08 0)
(3 2.76193e-08 0)
(3 6.71447e-08 0)
(3 1.57358e-07 0)
(3 3.84001e-07 0)
(3 8.96807e-07 0)
(3 2.18659e-06 0)
(2.99999 5.12184e-06 0)
(2.99998 1.24286e-05 0)
(2.99996 2.9256e-05 0)
(2.99991 7.05211e-05 0)
(2.99979 0.000167457 0)
(2.9995 0.000399926 0)
(2.9988 0.000959066 0)
(2.99718 0.00227593 0)
(2.99318 0.00550883 0)
(2.98373 0.0131519 0)
(3 1.1697e-12 0)
(3 7.51425e-12 0)
(3 2.52941e-11 0)
(3 7.19697e-11 0)
(3 1.82831e-10 0)
(3 4.60375e-10 0)
(3 1.09938e-09 0)
(3 2.70243e-09 0)
(3 6.34278e-09 0)
(3 1.55025e-08 0)
(3 3.62446e-08 0)
(3 8.81995e-08 0)
(3 2.07071e-07 0)
(3 5.00089e-07 0)
(3 1.18212e-06 0)
(3 2.83167e-06 0)
(2.99999 6.74872e-06 0)
(2.99998 1.6017e-05 0)
(2.99995 3.85071e-05 0)
(2.99989 9.05751e-05 0)
(2.99973 0.000219547 0)
(2.99937 0.000513353 0)
(2.9985 0.00124965 0)
(2.99642 0.00292634 0)
(2.99151 0.00713751 0)
(3 6.43952e-13 0)
(3 4.06921e-12 0)
(3 1.40313e-11 0)
(3 3.87613e-11 0)
(3 1.01252e-10 0)
(3 2.48004e-10 0)
(3 6.06059e-10 0)
(3 1.45604e-09 0)
(3 3.4743e-09 0)
(3 8.34998e-09 0)
(3 1.96958e-08 0)
(3 4.7584e-08 0)
(3 1.11354e-07 0)
(3 2.69935e-07 0)
(3 6.30083e-07 0)
(3 1.52621e-06 0)
(3 3.57023e-06 0)
(2.99999 8.60425e-06 0)
(2.99997 2.02358e-05 0)
(2.99994 4.84247e-05 0)
(2.99986 0.000114739 0)
(2.99966 0.000272001 0)
(2.99919 0.000649357 0)
(2.99808 0.00153094 0)
(2.99542 0.00367689 0)
(3 3.34439e-13 0)
(3 2.13056e-12 0)
(3 7.49451e-12 0)
(3 2.06107e-11 0)
(3 5.43121e-11 0)
(3 1.31519e-10 0)
(3 3.26739e-10 0)
(3 7.66604e-10 0)
(3 1.87123e-09 0)
(3 4.3734e-09 0)
(3 1.05695e-08 0)
(3 2.47961e-08 0)
(3 5.93604e-08 0)
(3 1.40393e-07 0)
(3 3.32586e-07 0)
(3 7.93711e-07 0)
(3 1.86041e-06 0)
(2.99999 4.48242e-06 0)
(2.99999 1.04101e-05 0)
(2.99997 2.52291e-05 0)
(2.99992 5.83737e-05 0)
(2.99981 0.000141365 0)
(2.99955 0.000328182 0)
(2.99894 0.000790182 0)
(2.99747 0.00184812 0)
(3 1.94259e-13 0)
(3 1.12595e-12 0)
(3 3.84443e-12 0)
(3 1.08781e-11 0)
(3 2.77575e-11 0)
(3 6.85683e-11 0)
(3 1.66391e-10 0)
(3 3.95335e-10 0)
(3 9.49539e-10 0)
(3 2.22805e-09 0)
(3 5.33166e-09 0)
(3 1.24727e-08 0)
(3 2.97236e-08 0)
(3 6.96383e-08 0)
(3 1.64984e-07 0)
(3 3.88213e-07 0)
(3 9.12589e-07 0)
(3 2.15478e-06 0)
(2.99999 5.03543e-06 0)
(2.99998 1.19196e-05 0)
(2.99995 2.76772e-05 0)
(2.99989 6.56138e-05 0)
(2.99973 0.000151817 0)
(2.99935 0.00035865 0)
(2.99845 0.000831646 0)
(3 7.67125e-14 0)
(3 5.52987e-13 0)
(3 1.89983e-12 0)
(3 5.39376e-12 0)
(3 1.34621e-11 0)
(3 3.41807e-11 0)
(3 7.95203e-11 0)
(3 1.95667e-10 0)
(3 4.48214e-10 0)
(3 1.08574e-09 0)
(3 2.48883e-09 0)
(3 5.9392e-09 0)
(3 1.37386e-08 0)
(3 3.22184e-08 0)
(3 7.54729e-08 0)
(3 1.73408e-07 0)
(3 4.11711e-07 0)
(3 9.27834e-07 0)
(2.99999 2.22606e-06 0)
(2.99999 4.92799e-06 0)
(2.99996 1.18547e-05 0)
(2.99992 2.60229e-05 0)
(2.99979 6.21075e-05 0)
(2.99951 0.000135588 0)
(2.9988 0.00031857 0)
(3 2.34631e-14 0)
(3 2.23044e-13 0)
(3 8.89578e-13 0)
(3 2.38877e-12 0)
(3 6.34809e-12 0)
(3 1.54972e-11 0)
(3 3.7616e-11 0)
(3 8.81627e-11 0)
(3 2.0951e-10 0)
(3 4.8403e-10 0)
(3 1.13925e-09 0)
(3 2.62039e-09 0)
(3 6.11327e-09 0)
(3 1.40564e-08 0)
(3 3.24706e-08 0)
(3 7.47709e-08 0)
(3 1.70488e-07 0)
(3 3.9272e-07 0)
(2.99999 8.82835e-07 0)
(2.99999 2.03356e-06 0)
(2.99997 4.49999e-06 0)
(2.99993 1.02574e-05 0)
(2.99982 2.24697e-05 0)
(2.99956 5.01061e-05 0)
(2.99892 0.000108088 0)
(3 4.14017e-14 0)
(3 1.4623e-13 0)
(3 4.10699e-13 0)
(3 1.13227e-12 0)
(3 2.81628e-12 0)
(3 6.59922e-12 0)
(3 1.59613e-11 0)
(3 3.57863e-11 0)
(3 8.80156e-11 0)
(3 1.89506e-10 0)
(3 4.73759e-10 0)
(3 9.93272e-10 0)
(3 2.51359e-09 0)
(3 5.15057e-09 0)
(3 1.30658e-08 0)
(3 2.66774e-08 0)
(3 6.62153e-08 0)
(3 1.36624e-07 0)
(3 3.24485e-07 0)
(2.99999 6.97774e-07 0)
(2.99997 1.51542e-06 0)
(2.99993 3.44567e-06 0)
(2.99983 6.70483e-06 0)
(2.99958 1.62083e-05 0)
(2.99895 2.65799e-05 0)
(3 2.44251e-14 0)
(3 6.15542e-14 0)
(3 1.3327e-13 0)
(3 3.64173e-13 0)
(3 8.43404e-13 0)
(3 1.84917e-12 0)
(3 4.45103e-12 0)
(3 9.06418e-12 0)
(3 2.45656e-11 0)
(3 4.35045e-11 0)
(3 1.3547e-10 0)
(3 2.05991e-10 0)
(3 7.29449e-10 0)
(3 9.8374e-10 0)
(3 3.82168e-09 0)
(3 4.70914e-09 0)
(3 1.88222e-08 0)
(3 2.3802e-08 0)
(3 8.6681e-08 0)
(2.99999 1.23949e-07 0)
(2.99997 3.42257e-07 0)
(2.99993 6.97027e-07 0)
(2.99983 1.01899e-06 0)
(2.99958 3.70847e-06 0)
(2.99896 8.33909e-07 0)
(1.2787 1.08331 0)
(1.69057 0.883002 0)
(1.87447 0.618763 0)
(1.90184 0.355128 0)
(1.85232 0.135485 0)
(1.75834 -0.00902601 0)
(1.66233 -0.0452341 0)
(1.61398 -0.01475 0)
(1.60596 0.0256901 0)
(1.60889 0.0456736 0)
(1.61194 0.0437469 0)
(1.61246 0.032653 0)
(1.61062 0.0222156 0)
(1.60672 0.0141426 0)
(1.60031 0.010271 0)
(1.59263 0.0114626 0)
(1.5827 0.0154446 0)
(1.56407 0.0205474 0)
(1.52428 0.0270992 0)
(1.43723 0.0369568 0)
(1.24441 0.0558094 0)
(0.851693 0.0967485 0)
(0.403587 0.157904 0)
(0.100851 0.167584 0)
(-0.0769955 0.12906 0)
(-0.281948 0.0907807 0)
(-0.450507 0.0442081 0)
(-0.598139 0.0118605 0)
(-0.703513 -0.00526961 0)
(-0.764843 -0.00252304 0)
(-0.79713 0.00992311 0)
(-0.813808 0.0152595 0)
(-0.820326 0.0142029 0)
(-0.811548 0.00789398 0)
(-0.779914 -0.00275432 0)
(-0.723127 -0.0140587 0)
(-0.644234 -0.0239507 0)
(-0.551019 -0.0325602 0)
(-0.450092 -0.0401106 0)
(-0.346591 -0.0466923 0)
(-0.24819 -0.0491143 0)
(-0.154116 -0.0502916 0)
(-0.069142 -0.0527814 0)
(0.0239854 -0.0505835 0)
(0.101598 -0.0430721 0)
(0.173191 -0.0397234 0)
(0.238954 -0.0367949 0)
(0.300059 -0.0343192 0)
(0.355041 -0.0315377 0)
(0.406064 -0.0294286 0)
(0.458217 -0.0286223 0)
(0.510209 -0.0279533 0)
(0.558893 -0.0263388 0)
(0.604539 -0.0244921 0)
(0.647979 -0.022902 0)
(0.689541 -0.021499 0)
(0.729506 -0.0202554 0)
(0.767947 -0.0190793 0)
(0.805034 -0.0180066 0)
(0.840807 -0.0169958 0)
(0.875397 -0.0160751 0)
(0.908831 -0.0152043 0)
(0.941219 -0.0144017 0)
(0.972593 -0.0136319 0)
(1.00305 -0.0129121 0)
(1.03262 -0.0122126 0)
(1.0614 -0.0115527 0)
(1.08942 -0.0109083 0)
(1.11677 -0.0103029 0)
(1.14346 -0.00971307 0)
(1.16957 -0.00915673 0)
(1.19512 -0.00861772 0)
(1.22015 -0.00810825 0)
(1.2447 -0.007614 0)
(1.26879 -0.00714467 0)
(1.29244 -0.00668805 0)
(1.31568 -0.00625255 0)
(1.33852 -0.00582918 0)
(1.36095 -0.00542558 0)
(1.38299 -0.00503511 0)
(1.40464 -0.00466452 0)
(1.42588 -0.00430777 0)
(1.44674 -0.00396984 0)
(1.46719 -0.00364362 0)
(1.48725 -0.00333371 0)
(1.50693 -0.00303237 0)
(1.52624 -0.00274086 0)
(1.54519 -0.00245444 0)
(1.56381 -0.00217579 0)
(1.58211 -0.00189514 0)
(1.60009 -0.00162865 0)
(1.61775 -0.00137832 0)
(1.6351 -0.00115289 0)
(1.65205 -0.000958936 0)
(1.66856 -0.000739204 0)
(1.68446 -0.000470646 0)
(1.69942 -0.000140427 0)
(1.71285 0.000281231 0)
(1.7233 0.00087606 0)
(1.73079 0.00156519 0)
(1.37232 0.994221 0)
(1.68609 0.711172 0)
(1.85993 0.398131 0)
(1.94441 0.130182 0)
(1.99465 -0.0613454 0)
(2.02447 -0.162376 0)
(2.03353 -0.168569 0)
(2.03201 -0.128234 0)
(2.01831 -0.0800589 0)
(1.99618 -0.0416098 0)
(1.9786 -0.0201743 0)
(1.97291 -0.0134036 0)
(1.97307 -0.0153084 0)
(1.97347 -0.0200628 0)
(1.97311 -0.0229432 0)
(1.97132 -0.0220772 0)
(1.96602 -0.0184641 0)
(1.9524 -0.012067 0)
(1.92234 -0.000885464 0)
(1.85859 0.019377 0)
(1.72094 0.0585404 0)