/*--------------------------------*- C++ -*----------------------------------*\
  =========                 |
  \\      /  F ield         | OpenFOAM: The Open Source CFD Toolbox
   \\    /   O peration     | Website:  https://openfoam.org
    \\  /    A nd           | Version:  13
     \\/     M anipulation  |
\*---------------------------------------------------------------------------*/
FoamFile
{
    format      ascii;
    class       surfaceScalarField;
    location    "24";
    object      phi;
}
// * * * * * * * * * * * * * * * * * * * * * * * * * * * * * * * * * * * * * //

dimensions      [0 3 -1 0 0 0 0];

internalField   nonuniform List<scalar> 
1300
(
3.75095
5.62643
-5.78492
3.75095
-5.71633
5.62643
-4.51063
4.51063
-1.16478
1.16478
1.87649
1.87446
-2.94187
2.94187
-2.46376
2.46376
-2.57994
2.57994
-5.24645
5.24645
-5.06793
5.06793
4.68074
-4.68074
-4.51558
4.51558
-1.59844
1.59844
-3.92578
3.92578
3.17038
-3.17038
-4.15445
4.15445
-0.369057
0.369057
-0.553522
4.30447
3.19743
3.19743
-2.25572
2.25572
-4.8578
4.8578
6.21826
-6.21826
8.73913
-8.73913
-2.9542
-3.40904
1.35536
-8.50366
-4.36098
-4.36098
-8.44042
8.44042
-2.81399
2.81244
2.94213
-2.94213
-1.77498
1.77498
-4.43677
-0.0738635
-4.43677
4.51867
-0.00803405
4.51867
-1.30045
0.135668
-1.30045
3.98619
-3.98619
0.992477
0.172301
0.992477
3.06435
-3.06435
-1.87712
3.75361
1.87384
-1.87176
6.17623
-1.87919
3.75365
-5.86438
5.86438
-3.17229
0.230417
-3.17229
2.6846
0.257268
2.6846
-6.09286
6.09286
-2.24556
-0.218208
-2.24556
2.81121
-0.34745
2.81121
2.84754
-2.84754
-2.65587
0.0759311
-2.65587
2.51562
0.064319
2.51562
0.35357
5.27286
-5.98
8.79244
-5.27286
0.0264128
5.20851
0.0379403
5.20851
-5.10594
0.0380105
-5.10594
5.01068
0.0572493
5.01068
4.776
-0.0952635
4.776
-4.79258
0.11184
-4.79258
-3.24259
-3.71943
-4.52097
0.00538474
-4.52097
-1.61367
0.0152288
-1.61367
1.56966
0.0287825
1.56966
-3.51584
3.51584
-4.31047
0.384687
-4.31047
3.12491
0.0454691
3.12491
1.86849
1.88246
5.61944
-5.61944
2.44907
-3.88707
-0.267387
-3.88707
-4.39435
-4.34478
4.39435
-0.239897
-0.641523
0.272466
-0.641523
3.15923
0.0381985
3.15923
2.4262
0.0894188
-2.4262
0.170489
3.28113
-3.28113
1.63271
0.623002
1.63271
-5.56944
5.56944
4.95097
0.0597144
-4.95097
0.0931659
6.15682
0.0614469
6.15682
-6.19955
-0.0187123
-6.19955
3.18497
-6.59401
-3.55223
4.44594
0.0696365
-4.44594
0.084966
2.91255
0.0295745
2.91255
-2.92385
2.92385
-2.98225
0.0401212
-2.98225
-2.18608
0.411092
-2.18608
1.46159
0.313397
1.46159
-4.30072
-0.136044
-4.30072
-4.45146
0.140994
4.45146
0.067203
0.993264
-0.993264
-1.4417
0.141255
-1.4417
-4.13066
-0.170068
4.13066
-0.14447
-3.8768
-0.109386
-3.8768
-3.02282
0.0405724
3.02282
0.0415323
3.11233
0.0469034
-3.11233
0.0479747
-1.87084
3.75331
-1.88011
3.75394
-5.47796
-0.38642
-5.47796
6.16813
-0.303745
6.16813
3.54507
0.380706
-3.54507
0.372787
2.50862
0.175984
2.50862
-6.36836
0.275498
-6.36836
5.5843
0.508564
5.5843
2.32379
0.184831
-2.32379
0.0782304
3.1533
-0.342087
3.1533
2.87186
-0.0243166
2.87186
-2.85073
0.00319195
-2.85073
2.80369
-2.80369
2.73317
0.0705226
-2.73317
0.0772921
-11.1328
11.1141
-0.0351174
-11.0977
5.17339
5.17339
4.20655
0.569455
4.20655
-5.00388
0.211302
-5.00388
3.14055
-6.69279
3.65431
-6.8969
3.6742
-12.1779
3.33225
-7.05168
4.75812
-4.75812
4.55595
0.202174
-4.55595
0.0349809
-1.63185
0.0181766
-1.63185
-2.89819
-0.617651
-2.89819
4.17231
-0.656475
4.17231
-3.03028
3.03028
-3.07856
0.0482779
3.07856
0.0463489
3.56159
-0.408288
-3.56159
-0.325475
0.819863
0.172614
-0.819863
0.17834
3.49828
-0.217153
3.49828
-3.08058
-0.200552
-3.08058
-1.63755
0.0057003
1.63755
-0.00483643
-5.8175
0.248066
-5.8175
-11.1907
0.093018
-11.1527
-6.10653
-6.10653
2.33388
11.1263
-2.88133
0.0305962
2.88133
0.0312241
2.97834
0.051946
-2.97834
0.0544918
-2.86645
0.062767
2.86645
0.0573912
-2.56994
0.383862
-2.56994
-1.04254
1.04254
-1.23493
0.192393
1.23493
0.226657
1.23253
-0.239268
1.23253
1.53475
0.0349069
-1.53475
0.0930542
-3.7817
-0.095095
-3.7817
6.42005
-0.25192
6.42005
-2.94865
-0.131931
2.94865
-0.0767881
-0.0333008
11.1474
-5.14009
0.0341477
5.14009
-11.2088
11.243
-3.24884
0.6789
3.24884
0.95771
5.29204
0.277398
-5.29204
0.288159
5.1247
0.459594
-5.1247
0.366582
-2.39953
-0.498661
-2.39953
-4.89962
-0.578343
4.89962
-0.727306
-11.4759
-0.201615
11.6775
-11.4187
6.01912
0.137699
-6.01912
11.3807
-0.942725
-0.0505391
0.942725
0.0998115
1.54176
-0.309233
1.54176
3.68319
-0.18491
-3.68319
-0.0985107
-6.51453
0.146172
6.51453
-0.0944845
-1.95261
-0.446911
1.95261
-0.41085
-4.26662
4.30482
1.90961
-2.98927
-3.60474
-7.33405
1.85202
1.90128
4.30109
-7.66317
-4.51469
-7.57821
7.27007
-6.98191
-9.29499
9.19973
7.54052
-7.6499
-5.78473
5.83107
6.48191
-6.44038
1.87886
1.87475
7.93785
-7.70743
-15.6195
15.2331
5.75968
-5.97789
16.3345
-16.059
-17.6425
18.1021
-5.75401
5.82994
-6.66603
6.66922
-6.85813
6.78134
-2.81347
-4.08343
10.5357
-10.5303
10.122
-10.3894
-8.49558
8.88027
3.38274
0.92208
3.42964
-1.88239
3.76124
-1.87127
3.78088
3.70741
-6.52088
2.98538
-6.59012
5.64378
4.47822
-5.40388
-1.93017
-5.91786
5.94743
-5.82192
5.87931
8.9003
-8.97416
-1.88526
3.76002
-1.86868
3.76996
-3.4254
-2.35933
3.37993
0.921157
6.28459
4.25108
-6.35423
-1.22398
-7.75771
7.5728
-8.0399
7.83935
-0.448563
5.82253
-5.37397
4.40924
-1.55343
7.37596
5.71664
5.92794
5.86756
-5.59016
1.11436
-6.48832
-6.39516
-2.54724
2.6885
2.52654
-2.35423
5.92349
1.61703
5.77902
-5.52866
-2.12124
-5.62376
3.82145
2.00962
3.86973
4.07624
2.40568
4.11681
3.03108
-3.03512
0.00404255
-3.05669
6.08777
0.7249
-5.41602
-4.49486
4.83757
3.10028
5.09484
-5.49382
-2.21361
-5.12104
-9.5141
-6.10545
-10.0924
10.0791
5.15397
9.7754
-11.9257
11.8313
4.02649
1.73319
3.67904
-3.80173
-2.17616
-3.7235
13.2844
-3.2832
-10.0012
-10.6238
-7.01878
10.1152
6.21934
10.3445
7.75763
10.7111
4.48503
8.79933
-10.7044
3.68559
-3.87341
-1.8806
-3.79612
3.732
2.09795
3.79631
-4.19536
-2.47066
-4.16477
-4.22672
-2.63141
4.25104
2.41818
-4.31283
-3.72707
4.44476
2.33658
3.55318
-8.06787
3.4985
-7.58193
-7.74192
-2.78837
-7.70694
4.77332
1.81039
-6.5837
-1.74756
10.2678
-5.78962
8.33768
-5.59815
-4.79124
-5.92362
-6.81369
-1.68189
-6.6727
-8.83707
8.33841
-9.15407
8.49759
12.739
-5.72783
-7.01122
-3.96817
-2.47221
3.9202
-0.490556
-3.71203
3.71607
0.0492115
3.83009
4.75217
4.26162
-3.88555
-1.93637
-3.83106
3.83325
2.04606
3.89602
6.74058
2.15972
6.73255
-6.39992
-2.57424
-6.53596
9.10366
-8.69257
2.96363
-2.95793
5.23983
2.59952
-5.02267
-2.73503
6.08433
-3.04407
-3.04026
-12.2144
10.5807
1.63371
-4.83846
-0.429224
-0.0601672
-5.50877
-3.78622
5.39693
0.531012
11.1117
7.3255
-5.51329
5.76136
6.16424
6.22396
-0.171198
5.85808
-5.17918
5.34269
-2.43631
-2.90638
5.27438
-5.44445
-1.26158
-5.25627
3.99469
0.334568
1.80498
-1.53251
-2.04526
-0.501985
-1.9522
1.51544
1.0111
1.68805
0.991598
1.6969
-2.92221
0.521666
2.40054
-1.93061
-1.83257
-3.64971
-1.0316
4.68131
5.52294
2.04986
-5.42443
-0.19933
2.7352
-2.70642
-0.779043
-2.87067
2.11733
-2.89638
-3.52682
-1.91067
5.43749
-3.36996
-0.461091
3.31802
0.55171
-3.8243
-2.09356
3.78418
0.332629
-3.12376
6.18917
-3.0654
-5.06014
2.52953
3.55824
4.53916
-4.78985
2.44559
2.34426
-1.23162
3.82714
1.26769
4.00313
-6.84136
4.62775
5.71097
3.16929
-6.09168
0.970645
-5.87072
8.44446
-7.26075
-1.18371
4.1131
4.33135
7.18522
5.55383
-5.73337
12.9186
-1.07642
-6.18433
6.94714
-3.77785
4.78713
-8.56497
-10.341
4.15663
-9.17218
11.2132
-2.04104
-3.60577
-8.31997
12.778
-1.20352
-11.5744
8.57189
-4.42672
-4.15143
8.57815
-7.70992
6.32759
-1.38311
-4.94448
-10.3212
-5.73782
10.175
1.65621
-10.2988
13.9843
-1.49943
3.7835
-0.104461
3.44141
3.29411
-6.16365
2.86954
4.41581
-5.79892
1.45899
-7.62264
-6.31279
10.8123
-4.49952
-9.10116
-9.3224
0.221239
1.56559
12.4187
-9.32322
6.11608
3.20714
3.30902
0.586996
-3.37954
-0.416572
0.330278
4.53287
-4.86315
4.12659
4.21601
3.41018
1.1227
3.83123
2.1162
-3.86245
-0.302313
-4.12697
1.49557
-1.70879
-3.65564
5.1512
-4.08724
0.431607
-2.73114
-3.5538
6.28495
-4.61175
3.04148
3.14769
5.08754
-4.93764
1.38383
-2.43562
-2.50202
2.70341
-4.4122
1.96345
3.18775
4.30003
0.572959
5.88244
4.92988
-7.69283
0.110896
9.18096
-7.95697
3.03397
7.67711
-9.15005
-0.172348
-7.87928
0.214051
-6.00367
-6.36965
5.08964
-6.77153
-3.47533
6.15366
0.578886
-6.22086
-0.451836
-5.98362
-2.85345
-6.43053
-3.06653
-6.08753
-8.7999
-1.63323
-7.16667
6.70519
-6.64933
-3.44311
7.37663
1.12096
-7.37883
7.32829
-7.44874
7.1395
0.0945155
3.62156
4.35613
1.88392
-2.38994
4.27386
-5.0633
7.22301
-8.45774
3.39444
3.9424
-6.51664
-4.51534
5.04105
4.06261
5.35445
8.98407
-10.561
1.57695
-10.8838
12.1603
-1.2765
-16.669
5.78524
-7.68496
2.70281
0.260822
2.72098
0.676189
2.41284
-3.08903
-2.28174
-2.28658
-2.29174
-3.35135
5.64309
1.12654
-3.34499
2.21845
-3.46485
4.5914
-0.0721929
-3.2728
5.24027
-2.82743
5.50109
-3.53705
1.96405
3.2569
5.56454
-2.30763
4.28495
-1.68543
1.80144
-4.10907
-1.54991
-3.016
5.11395
-3.26894
3.70055
-0.250796
3.95135
-4.03098
0.986912
-0.620806
3.59521
3.7657
4.23361
-3.11091
2.91572
-4.60115
-1.19335
-4.02819
-0.840434
-0.32397
-3.75317
4.07714
6.07996
-6.40393
-5.29208
9.60893
-4.31685
7.74271
-5.42602
-2.31669
-4.28854
-4.40403
3.90468
1.9534
9.69611
0.207782
-5.6338
-4.9714
-4.01369
3.23812
2.10457
-2.02294
3.65665
2.08311
-0.278133
0.564219
1.12383
1.87925
-1.31504
0.230339
1.64892
-1.30217
2.01666
0.71854
-2.05157
0.0993606
-1.37307
3.4904
1.02748
-2.03857
0.723537
1.01544
-3.45175
4.74056
-2.45805
-2.28251
5.756
1.14373
-3.60178
4.11254
-3.77797
2.30046
-3.33206
-1.30132
-5.07929
-3.46226
-2.46876
4.68721
-3.17433
5.22419
1.16039
-5.02486
6.18524
-3.54763
1.63696
-3.03761
3.75615
-1.04376
-1.99384
2.75085
2.68664
-2.91435
0.0436763
-0.163495
2.2937
-2.4572
-0.602672
-2.53328
-4.5728
4.90542
-2.10675
4.55234
2.16712
-1.9139
6.46624
1.8117
-3.72561
-3.24843
-3.70952
-1.38134
3.15781
-0.142335
-3.58116
-5.08682
3.39633
0.606796
-7.02683
7.55226
-0.525435
-3.92654
-0.701209
4.81431
-5.71766
-0.0812651
-4.25867
3.29359
4.56129
5.16808
-11.3799
-0.194544
-6.22592
1.23799
-7.46391
5.56935
-3.60295
7.75958
-10.4366
6.99349
-9.31564
6.57587
-0.888041
6.97541
-4.10587
3.02574
-8.76356
-7.10735
4.88849
-3.15529
4.78402
-3.92344
8.70746
-5.42286
5.9744
2.73306
-1.97117
-3.95245
-5.05506
3.0839
0.919333
4.36074
4.96431
-2.8481
4.66199
2.22087
-4.65649
-2.19133
-6.51229
1.85581
-3.3646
-1.91052
3.76633
3.17702
3.76401
1.2643
-3.34744
8.44451
-8.22327
-3.94498
-2.42467
5.81738
-2.73349
4.97753
-7.4022
-1.02614
4.88328
-0.852585
-4.03069
0.844552
-4.31988
1.65363
-5.97351
5.1179
-5.56973
2.18669
-9.87164
-5.19214
-5.09233
-2.23294
-5.21579
-7.65846
5.42552
-1.87323
5.45506
-8.67459
7.82201
-3.4857
8.91122
-5.39278
-1.03775
5.80363
1.33587
10.2471
0.114005
-4.62935
-1.84282
3.97366
-2.13084
1.3953
-3.63917
0.33449
2.41886
3.33713
-6.41355
-0.103088
-4.73243
-3.9215
7.98411
5.68743
11.7674
1.20636
9.19487
-1.21076
10.4012
4.14369
4.37035
-3.01172
4.58868
1.06542
4.45986
-0.855406
2.81945
1.86558
1.88081
0.825609
2.2999
1.4658
3.28681
0.197776
-2.0888
4.65462
-8.66831
-0.979178
-8.09885
1.10088
5.74062
-4.63974
3.18833
-1.08376
1.05749
0.087064
-1.71246
1.62539
-2.81932
-1.99059
-0.341675
-1.6311
2.35464
1.8593
-2.01296
-0.806354
0.315908
-3.77817
3.01615
-2.97247
-0.285834
5.89941
-2.70633
0.249132
-1.06937
-2.28415
-2.78614
2.68677
6.17348
0.292759
3.10808
5.19818
3.10463
0.256522
3.74012
-5.78117
-3.88251
-5.97571
-0.406362
4.40795
3.78765
8.6311
6.52071
3.78722
-3.61498
-11.8382
6.53331
-1.94463
5.25681
-1.22612
-4.74739
4.97304
2.24997
-5.55193
-0.0178041
-4.7652
-6.70983
-0.551671
8.37368
-9.69542
8.65767
5.80422
1.36246
-4.39623
-0.696097
4.20384
0.166505
10.5677
-1.12567
-6.88405
8.00972
-4.61495
3.63577
0.872752
2.7839
2.49814
1.41439
-5.46966
-10.1094
-1.91693
-1.53482
-4.19944
0.481874
-2.34118
6.27832
-2.64255
3.96163
5.36717
6.42466
-2.18654
-4.21739
6.5034
-2.54176
3.8829
)
;

boundaryField
{
    wall-4
    {
        type            calculated;
        value           uniform 0;
    }
    velocity-inlet-5
    {
        type            calculated;
        value           uniform -3.75095;
    }
    velocity-inlet-6
    {
        type            calculated;
        value           uniform -5.62643;
    }
    pressure-outlet-7
    {
        type            calculated;
        value           nonuniform List<scalar> 8(5.78492 5.71633 6.36325 7.14831 6.96202 6.7372 6.79486 7.00645);
    }
    wall-8
    {
        type            calculated;
        value           uniform 0;
    }
    frontAndBackPlanes
    {
        type            empty;
    }
}


// ************************************************************************* //
