/*--------------------------------*- C++ -*----------------------------------*\
  =========                 |
  \\      /  F ield         | OpenFOAM: The Open Source CFD Toolbox
   \\    /   O peration     | Website:  https://openfoam.org
    \\  /    A nd           | Version:  13
     \\/     M anipulation  |
\*---------------------------------------------------------------------------*/
FoamFile
{
    format      ascii;
    class       volVectorField;
    location    "24";
    object      U;
}
// * * * * * * * * * * * * * * * * * * * * * * * * * * * * * * * * * * * * * //

dimensions      [0 1 -1 0 0 0 0];

internalField   nonuniform List<vector> 
918
(
(0.985161 -0.000514265 0)
(0.00500506 2.96625 0)
(-0.0145283 1.54113 0)
(0.979702 0.00215443 0)
(-0.002883 1.52349 2.08669e-20)
(-0.00703426 2.94878 -1.8555e-18)
(0.84904 1.19051 7.31514e-19)
(0.389785 0.176471 -8.95317e-21)
(0.999907 -0.000291298 0)
(0.0524606 0.849662 0)
(-0.0463981 0.701555 0)
(0.739253 -0.0109196 0)
(0.0110991 2.93035 0)
(0.00200275 2.79451 0)
(-0.0175118 3.16554 1.08299e-18)
(0.0175831 1.37191 8.99185e-20)
(0.496881 0.0759345 5.59722e-19)
(0.192243 1.21586 6.35962e-19)
(0.963011 0.00504095 0)
(-0.00994649 1.18911 0)
(0.118416 0.227025 -4.64174e-19)
(1.00204 -0.00498553 0)
(1.00021 -0.00978975 0)
(0.975717 -0.00645485 0)
(0.645722 -0.0408457 0)
(0.0167149 2.63459 0)
(-0.0150339 2.91012 6.39955e-19)
(-0.0263983 1.54745 0)
(-0.0380544 1.69621 0)
(-0.023039 1.53906 0)
(-0.0092998 1.90613 0)
(0.0105603 1.55031 -1.64986e-20)
(0.00727042 1.39953 0)
(-0.0206261 2.98759 -6.48383e-23)
(-0.0167016 3.00531 1.4423e-18)
(0.00210615 3.00021 0)
(0.870099 -0.00956713 0)
(0.399109 0.9372 -3.38073e-20)
(0.824736 1.20998 -1.02364e-18)
(0.972623 1.04268 9.60451e-19)
(0.69327 1.30682 -1.69699e-19)
(0.691993 1.29701 9.49356e-19)
(0.429168 0.270261 8.73529e-21)
(0.422324 0.162094 0)
(1.15935 0.560116 0)
(0.391172 0.277232 4.06604e-20)
(0.342186 0.174756 -4.21981e-20)
(0.919574 -0.0074571 0)
(1.00028 0.000145472 0)
(0.999908 0.00034564 0)
(1.00362 -0.00779884 0)
(1.00096 -0.00098477 0)
(1.00017 1.36268e-05 0)
(0.085471 1.78133 -2.08476e-19)
(0.0236014 0.982472 0)
(0.104227 0.931382 0)
(0.0319095 0.92095 0)
(0.0313738 0.769743 0)
(-0.0992501 1.79633 0)
(-0.0336255 0.778874 0)
(-0.00527232 0.626077 0)
(-0.0491124 0.860425 0)
(-0.0467313 0.817436 0)
(0.831042 -0.0107101 0)
(0.853542 0.0189662 0)
(0.765682 0.00196909 0)
(0.837608 0.0210981 0)
(0.724315 -0.0169785 0)
(0.0147018 3.00039 6.79016e-19)
(0.0115281 3.00789 0)
(0.00613866 3.00284 0)
(0.0135416 2.99732 7.56711e-24)
(0.00799815 2.95847 -1.00919e-18)
(0.0144801 2.98207 0)
(0.0107775 2.90366 0)
(0.0251591 2.93045 1.3493e-24)
(0.00421044 2.82483 0)
(0.0312491 2.91564 0)
(-0.00641721 2.7446 0)
(0.311579 3.56616 0)
(-0.132321 3.64847 0)
(0.141407 3.25636 -1.00787e-18)
(-0.0112279 2.98855 0)
(-0.05987 1.85622 0)
(0.0545061 1.54268 -8.87128e-20)
(0.0150886 1.3352 1.34073e-19)
(0.564079 0.157087 -1.92888e-19)
(0.500247 0.0454762 -1.87057e-19)
(0.545154 0.177701 -5.80923e-19)
(0.487598 0.0981768 -3.91749e-19)
(0.219364 0.906581 0)
(0.271752 1.36053 -6.63223e-19)
(0.392096 1.31452 1.08916e-18)
(0.987693 0.00860471 0)
(0.942153 0.00596075 0)
(1.0003 0.000580742 0)
(1.00286 0.00930509 0)
(1.003 0.00845261 -1.08381e-18)
(0.991929 0.00968624 8.18371e-19)
(-0.0332821 1.31925 0)
(-0.0337611 1.12842 0)
(-0.0414679 1.54726 0)
(-0.0298084 1.41017 0)
(-0.00657751 1.26344 0)
(0.174735 0.235997 1.4306e-19)
(0.222669 0.212452 0)
(0.993524 -0.0083506 0)
(0.954368 -0.00641522 0)
(0.804338 0.0274634 0)
(0.769636 0.0386218 0)
(0.69961 -0.0317465 0)
(0.975272 -0.00372467 0)
(0.708439 0.0554113 0)
(0.551375 -0.0197394 7.46055e-19)
(-0.0360264 2.86542 3.25426e-19)
(0.043159 2.90831 0)
(0.0559664 2.88365 0)
(-0.00513479 2.69745 0)
(-0.0132304 2.98522 5.87498e-19)
(-0.0182129 2.8954 0)
(-0.0153742 2.98814 -1.86018e-18)
(-0.0134203 2.92522 6.42632e-19)
(-0.0527227 1.77797 0)
(-0.0504537 1.79594 0)
(0.0318103 1.54261 1.91488e-21)
(0.0194573 1.52806 0)
(0.00112697 1.3873 0)
(0.93722 -0.00707406 0)
(0.855572 -0.00918448 0)
(0.864848 0.00790822 0)
(0.948637 -0.00769495 0)
(0.883262 -0.00872879 0)
(0.512932 1.13249 3.13032e-20)
(0.564191 1.1864 0)
(0.359395 0.877124 4.08903e-21)
(0.302162 0.738519 0)
(0.932453 1.08097 -2.77832e-19)
(1.04581 0.879658 5.68887e-19)
(0.386202 1.40262 0)
(0.547033 1.37418 0)
(0.549043 1.33408 0)
(0.100196 0.16166 -1.29589e-19)
(0.472514 0.254947 0)
(0.456499 0.152139 1.12599e-19)
(1.01588 0.933875 0)
(1.08349 0.779042 0)
(1.10865 0.721497 -4.9886e-19)
(1.13951 0.619378 0)
(1.19067 0.403798 5.78066e-20)
(0.957287 -0.00872609 0)
(0.962181 -0.0101092 0)
(0.901176 -0.00808969 0)
(0.984159 -0.00914929 0)
(0.974527 -0.0094469 0)
(0.936961 -0.00627541 0)
(1.00018 0.00234457 0)
(1.00086 0.0013841 0)
(0.999918 0.000855936 0)
(0.0377794 2.02661 1.38106e-19)
(0.123296 1.70708 0)
(0.0169922 2.12665 1.01109e-19)
(0.0447921 1.85938 -1.96991e-20)
(0.136429 1.20584 -5.26956e-19)
(0.0494803 1.06995 0)
(0.0968932 1.07194 0)
(-0.00211201 0.852947 0)
(-0.00621139 0.709277 0)
(-0.0689962 2.05652 3.28169e-21)
(-0.0374552 1.90155 0)
(-0.0863628 1.91963 2.05314e-19)
(-0.101358 1.62561 -4.21885e-19)
(0.0208373 0.807657 0)
(0.0110933 0.76849 0)
(0.000150688 0.649041 0)
(-0.0598566 0.968693 0)
(-0.0484954 0.915647 0)
(0.926308 0.0114314 0)
(0.844277 -0.00586116 0)
(0.917745 0.000693279 0)
(0.835077 -0.0118944 0)
(0.813422 0.00557892 0)
(0.903947 0.0166496 0)
(0.881646 0.0195976 0)
(0.788506 0.00378213 0)
(0.00591293 3.06493 -5.95641e-21)
(0.0164662 3.0579 0)
(0.0147015 2.96914 0)
(0.00859728 2.87636 0)
(0.930184 3.98662 0)
(1.24621 3.31715 1.01574e-18)
(0.0714475 3.08056 0)
(-0.026723 2.90936 0)
(-0.0748353 1.78427 0)
(-0.0814446 1.83916 0)
(-0.0633097 1.81143 0)
(-0.0317499 1.90156 2.00509e-21)
(-0.0717625 1.87681 0)
(-0.0449464 1.86818 0)
(-0.00923152 1.37484 -2.38167e-20)
(0.0487509 1.56964 -2.19469e-19)
(0.0633371 1.54272 -1.36886e-19)
(0.00254922 1.31904 0)
(0.59488 0.12449 2.8351e-19)
(0.515929 0.0173494 -2.76722e-19)
(0.259951 1.535 0)
(0.260053 0.676162 -2.08085e-19)
(0.171956 1.6241 -6.9732e-19)
(0.230629 1.15646 6.99189e-19)
(0.902936 0.00663034 0)
(0.967683 0.0108434 0)
(0.974779 0.0108098 0)
(0.923824 0.00668207 0)
(-0.0640769 1.0935 0)
(-0.0472621 1.2179 0)
(-0.0517711 1.03284 0)
(0.340283 0.271077 3.72382e-19)
(0.284182 0.250466 -4.52802e-19)
(0.29208 0.192672 0)
(1.10156 0.0863582 -3.9043e-21)
(1.08604 0.0402402 0)
(1.01373 0.0402139 0)
(0.912416 0.00378845 0)
(0.617536 0.0953054 0)
(0.648871 0.0689598 -1.2011e-18)
(0.531678 0.00262399 4.58941e-19)
(0.00963789 2.9822 4.15331e-19)
(-0.0319735 2.86756 4.90054e-20)
(0.00372216 3.05023 -1.28792e-20)
(0.0200232 3.04346 4.62985e-19)
(-0.0150093 2.99655 2.1377e-20)
(-0.0129655 2.94942 -8.65617e-23)
(-0.0172781 3.01201 -4.05707e-19)
(0.0147926 3.02406 2.93503e-19)
(0.00730595 3.03677 -4.58122e-19)
(0.928769 -0.00149332 0)
(0.936792 -0.00325583 0)
(0.843097 -0.00740747 0)
(0.957072 0.0113555 0)
(0.943774 0.0126641 0)
(0.883007 0.00644783 0)
(0.919715 0.0153429 0)
(0.927851 0.0144821 0)
(0.840364 0.00681937 0)
(0.720155 1.41578 3.31131e-19)
(0.755075 1.52641 0)
(0.218626 0.353578 2.46868e-20)
(0.17845 0.609782 2.12962e-19)
(0.265277 0.69873 -1.18798e-19)
(0.246413 0.57429 2.20572e-19)
(0.302819 0.717585 7.41328e-19)
(0.111025 0.192355 2.14794e-19)
(0.528393 0.205119 4.19998e-19)
(0.505424 0.235341 1.06079e-19)
(0.480779 0.130609 2.12216e-19)
(1.17961 0.460719 2.98818e-19)
(1.19554 0.256194 3.11159e-19)
(0.0151263 2.14288 -7.34363e-21)
(0.0270887 1.93588 0)
(0.96507 0.0312701 0)
(0.932982 0.0187643 0)
(0.868597 -0.00498166 0)
(0.0111048 3.07451 0)
(0.019965 2.94423 7.93093e-19)
(0.0165002 2.95643 0)
(0.00617587 2.85065 -7.86584e-19)
(0.0062418 3.09205 1.87788e-19)
(0.00717812 3.08237 0)
(0.788879 1.83115 -2.40443e-19)
(1.25362 2.51366 6.62628e-19)
(0.771494 1.97204 -1.4972e-18)
(0.0207568 2.98345 -3.0219e-19)
(0.036862 3.00541 0)
(-0.0328745 2.88087 0)
(-0.0582751 1.75338 -1.83413e-20)
(0.0137637 1.65552 5.02047e-19)
(-0.01796 1.4878 -1.96735e-20)
(0.276115 1.34412 6.77145e-19)
(0.210797 0.452341 -4.66873e-19)
(0.0621249 1.95371 4.51561e-19)
(0.135747 1.84586 -5.69382e-19)
(0.180223 1.44645 8.56566e-20)
(0.00586619 3.11797 -9.86551e-19)
(0.0139801 3.11852 1.06842e-18)
(-0.0089289 2.98065 5.10783e-19)
(-0.00330066 2.97752 -4.52074e-19)
(-0.0216657 2.88174 -5.20221e-19)
(0.00860449 3.09871 -1.37273e-18)
(0.00187823 3.10638 1.36366e-18)
(0.242019 0.632728 0)
(0.197245 0.622957 -3.95e-19)
(0.109 0.208741 1.7929e-19)
(0.325805 0.838615 6.43338e-19)
(0.172436 0.231997 -9.84213e-19)
(1.18778 0.172943 -5.82351e-20)
(1.19481 0.309117 0)
(1.17656 0.120796 1.2178e-19)
(-0.0664875 2.12377 2.49778e-21)
(-0.0265976 2.16654 0)
(-0.0188014 1.9576 0)
(0.335795 1.23677 -2.46011e-19)
(0.351898 1.05188 -5.2162e-19)
(0.186194 0.325905 8.96102e-19)
(1.00583 -0.0109544 0)
(1.00762 -0.00764864 1.97603e-19)
(-0.0647288 1.73952 0)
(-0.0716355 1.73869 0)
(1.00224 0.0035213 1.82879e-21)
(1.00357 0.00930265 4.06865e-19)
(-0.030192 1.9221 -2.57827e-21)
(-0.0183264 1.93747 0)
(0.0385669 3.18218 1.12685e-19)
(0.400254 3.50081 0)
(1.12246 0.643368 6.63925e-20)
(1.01308 0.0129891 -2.01481e-21)
(1.02098 -0.0106808 0)
(1.00174 6.19152e-05 8.88772e-23)
(0.117302 1.35723 0)
(0.136161 2.57176 0)
(-0.0934803 1.02958 0)
(-0.0923147 2.68396 -2.78629e-19)
(-0.235308 2.57381 -1.9908e-19)
(1.00793 0.0238603 2.87863e-21)
(1.05411 -0.00316363 0)
(1.07821 0.0269897 0)
(-0.0949467 1.83579 0)
(-0.0390043 2.07656 0)
(-0.161507 1.5685 0)
(0.284946 1.46622 -4.37587e-19)
(1.01123 -0.00965153 0)
(1.00942 -0.0150924 0)
(1.00252 0.00058412 2.52308e-19)
(1.00547 -0.00495875 -2.96938e-19)
(1.00122 -0.00103962 0)
(-0.124188 1.79787 0)
(-0.0912809 1.73909 0)
(-0.0950897 1.77915 0)
(-0.140409 1.58146 0)
(-0.0918504 1.66426 0)
(-0.101414 1.64298 0)
(1.03449 -0.00757165 0)
(1.02063 0.0149953 -1.14103e-21)
(0.780424 1.25868 5.20171e-19)
(1.00218 0.000339982 -2.50069e-19)
(1.00408 0.00525622 2.96621e-19)
(1.00119 0.00207373 0)
(1.01293 0.0102575 2.45215e-19)
(1.00801 0.00815735 -3.04458e-19)
(1.00876 0.0145558 0)
(-0.0326792 2.06521 0)
(-0.0295325 1.99107 -4.02919e-20)
(-0.0187127 2.00503 3.41612e-20)
(1.19471 0.259505 -7.50628e-20)
(1.13271 0.0884819 0)
(0.0498484 3.07764 -5.11525e-19)
(0.0676138 2.85181 -4.08565e-20)
(0.146787 3.19595 8.17365e-19)
(0.141278 3.22513 -6.89335e-22)
(0.139323 3.24034 0)
(0.0206111 3.13813 1.11049e-19)
(0.0794728 3.16171 4.98339e-19)
(0.0722041 3.18858 -2.14619e-19)
(0.0240723 3.12904 0)
(0.659696 0.324219 0)
(0.581663 0.372707 0)
(1.09458 0.673186 -2.54145e-19)
(1.09314 0.809034 3.92737e-19)
(1.15227 0.561771 0)
(1.18384 0.506933 0)
(1.01616 0.013107 -4.53608e-19)
(1.01499 0.014023 5.66383e-19)
(1.02505 -0.0105575 0)
(1.02317 -0.0122213 0)
(1.0068 0.00244624 0)
(1.01058 0.00355568 0)
(1.00449 0.00166255 0)
(1.00992 0.00625844 0)
(1.0079 0.00603548 0)
(1.00436 0.00435906 0)
(0.109637 1.35271 0)
(0.10531 1.29171 0)
(0.119586 1.38898 0)
(0.141803 1.39963 0)
(0.140656 2.59386 0)
(0.184766 2.65191 -2.00343e-19)
(0.106004 2.64693 0)
(0.0801619 2.65285 -1.94266e-20)
(0.0343077 2.66545 2.18029e-19)
(-0.102155 1.02831 0)
(-0.138008 1.00941 0)
(0.0142352 1.04104 0)
(0.0318689 0.956216 0)
(-0.00815636 2.26874 4.53413e-19)
(-0.228262 2.63144 -3.36736e-19)
(-0.158073 2.7118 -3.9997e-19)
(-0.190301 2.67692 0)
(-0.225472 2.57111 4.83842e-19)
(-0.204818 2.50005 3.59377e-19)
(-0.0267496 2.30468 -3.32747e-19)
(-0.229977 2.59104 4.74113e-19)
(-0.188923 2.58286 5.0887e-19)
(1.01642 0.0328696 4.48125e-19)
(1.00907 0.0206759 -5.53545e-19)
(1.00849 0.0328507 -4.61781e-19)
(0.990616 0.0137676 5.96772e-19)
(1.05472 0.000694525 0)
(1.04221 -0.0149283 0)
(1.07598 0.0327946 0)
(1.05988 0.00825549 0)
(1.05681 0.00146619 0)
(1.1168 0.0793285 0)
(1.089 0.0477374 0)
(1.09078 0.0404097 0)
(-0.0782022 1.91679 -1.05492e-22)
(-0.117873 1.882 0)
(-0.0870131 1.88593 0)
(-0.0703744 2.15931 -3.67298e-20)
(-0.0565104 2.18309 3.59098e-21)
(-0.218627 1.83979 -8.36004e-21)
(-0.15159 1.79605 8.47113e-21)
(-0.197144 1.66621 0)
(-0.153895 1.71474 0)
(-0.131989 1.72713 0)
(-0.202588 1.49995 0)
(-0.132376 1.39476 0)
(0.375595 1.4793 8.3028e-19)
(0.404177 1.49314 3.27736e-19)
(0.591955 2.43506 -1.5387e-19)
(0.409753 2.52886 4.2199e-19)
(0.357108 2.08723 -4.99329e-20)
(1.02097 -0.00866856 0)
(1.01543 -0.0100744 0)
(1.01476 -0.0155972 0)
(1.00784 -0.00138306 0)
(1.00482 -0.00128015 0)
(1.00767 -0.00479443 0)
(1.00916 -0.00368738 0)
(1.0141 -0.00461045 0)
(1.02158 0.0155898 4.31283e-19)
(1.01764 0.0156168 -5.5527e-19)
(1.02251 0.0179591 -4.31283e-19)
(1.01921 0.0171396 5.40033e-19)
(0.752428 1.30917 0)
(0.686867 1.36444 6.13268e-19)
(0.858023 1.20054 3.58115e-19)
(0.903568 1.15712 -4.76665e-19)
(1.15445 2.61802 -5.52522e-19)
(0.834585 0.102329 2.91741e-19)
(1.13337 0.102384 0)
(1.17672 0.183069 6.47507e-20)
(1.16206 0.157853 2.87021e-21)
(0.989654 0.124559 0)
(0.144388 2.96469 1.39142e-19)
(0.12229 2.8705 -6.66422e-19)
(0.0332555 2.36156 4.77286e-19)
(0.0988406 0.066367 -2.00829e-19)
(0.345018 3.42913 -4.40101e-19)
(0.199126 3.31975 0)
(0.24068 3.36385 5.73151e-19)
(0.253158 3.03842 -7.70527e-19)
(0.347647 3.19821 0)
(0.00665662 3.12071 2.61666e-20)
(0.0179771 3.12943 -3.31924e-19)
(0.0155448 3.12542 4.88543e-19)
(0.0369003 3.1399 0)
(0.0353213 3.15137 0)
(1.2188 2.6192 0)
(0.535793 0.847513 -2.3983e-19)
(1.02393 0.983816 -2.03989e-19)
(0.961958 1.05032 0)
(0.804506 0.948833 5.4423e-20)
(1.0463 0.864785 2.98777e-20)
(0.396153 0.432437 -5.34059e-19)
(0.699242 0.340903 -2.42753e-20)
(0.684517 0.27095 2.27624e-19)
(0.595385 0.403379 1.76885e-20)
(0.528723 0.378985 -7.24371e-19)
(0.669638 0.357722 0)
(0.693416 0.430163 3.72851e-19)
(0.695235 0.428599 0)
(0.628277 0.392246 0)
(0.616304 0.325997 0)
(0.776 0.598694 1.31065e-19)
(1.19273 0.277006 4.75507e-20)
(1.18937 0.411237 0)
(1.20105 0.36131 0)
(0.77042 0.200787 3.34436e-19)
(0.823804 0.53903 -1.85289e-19)
(0.733522 0.507703 3.02135e-19)
(0.916117 0.419079 -2.82458e-19)
(1.01964 0.0144756 2.98794e-19)
(1.0179 0.014026 -3.05494e-19)
(1.01585 0.015386 0)
(1.0352 -0.00644549 0)
(1.02934 -0.00918539 -2.7464e-19)
(1.02709 -0.0131146 2.71814e-19)
(1.02522 0.00911424 0)
(1.02413 0.012701 0)
(1.01137 0.00378373 0)
(1.01429 0.00860408 0)
(1.01514 0.00325907 0)
(1.01421 0.00238641 0)
(0.105041 1.30384 0)
(0.102331 1.15758 0)
(0.133626 1.36765 3.36689e-19)
(0.266897 1.46129 2.5044e-19)
(0.17121 1.43455 5.34538e-19)
(0.195936 1.43937 -8.69848e-19)
(0.168606 1.38006 0)
(0.115723 1.5945 2.71601e-19)
(0.0728817 1.56208 0)
(0.353344 2.04241 7.25752e-20)
(0.352048 2.36548 2.31368e-19)
(0.159519 1.45657 -2.37298e-19)
(0.267928 1.36015 1.90418e-19)
(0.189679 1.36299 -1.52812e-19)
(0.280616 1.30461 3.18362e-19)
(0.254344 1.58166 0)
(0.253942 1.62732 -2.11049e-19)
(0.0539069 2.29841 1.07466e-19)
(0.0391976 2.66866 0)
(0.0604827 2.39517 -1.65158e-19)
(0.0440255 2.41926 0)
(0.0794624 2.65374 2.02233e-20)
(0.0551762 2.68989 0)
(-0.0130863 1.46034 5.33271e-19)
(0.141292 1.63261 0)
(0.142003 1.33939 0)
(0.0185025 1.27096 -6.01092e-19)
(-0.0822689 2.702 -3.8838e-20)
(0.0225605 2.70345 -3.16944e-19)
(-0.052771 2.73066 -1.98875e-21)
(-0.378661 2.2059 -2.64342e-19)
(-0.19634 2.09971 -2.07493e-19)
(-0.147702 1.08918 0)
(-0.113306 1.08777 0)
(0.167771 1.74282 -5.80127e-19)
(0.188254 1.4964 -5.97876e-19)
(0.156008 1.68037 7.52218e-19)
(0.151516 1.73856 0)
(-0.205099 2.04149 1.34371e-19)
(-0.166186 2.16468 -6.01483e-20)
(-0.204212 2.22666 2.37481e-20)
(-0.383497 2.10252 3.1986e-19)
(-0.258554 2.3936 7.33477e-20)
(-0.26774 2.45424 -3.79389e-19)
(1.02131 0.0219758 -2.93786e-19)
(1.01793 0.0274251 2.95521e-19)
(1.01408 0.020122 0)
(1.01252 0.050377 4.25571e-19)
(0.995635 0.0391348 -5.00083e-19)
(0.96334 0.0228669 5.7975e-19)
(1.01218 0.0858302 -5.5038e-20)
(1.04096 -0.00706411 0)
(1.04563 -0.00690119 2.45414e-19)
(1.03624 -0.013237 -2.45429e-19)
(1.06337 0.0387898 -1.34552e-20)
(1.05663 0.0178787 1.20017e-19)
(1.06075 0.0495734 0)
(1.05604 0.0409212 -4.49411e-20)
(1.03966 0.0320713 0)
(1.03485 0.0288868 0)
(1.02714 0.0123255 0)
(1.02507 0.0150663 0)
(1.04695 0.0263004 9.36251e-20)
(1.0433 0.0178306 -2.12938e-19)
(1.05339 0.0224547 -9.39652e-20)
(1.05207 0.0244485 -1.09691e-19)
(1.06539 0.0581988 1.95027e-19)
(1.08032 0.0517796 0)
(1.08698 0.0948761 0)
(-0.196313 2.02078 4.70541e-20)
(-0.144367 1.89893 8.60338e-22)
(-0.159027 1.92919 0)
(-0.110064 2.02206 -4.70879e-20)
(-0.0773943 1.94289 -7.48584e-22)
(-0.0940807 1.97766 6.19352e-21)
(-0.178375 2.46899 -3.51507e-19)
(-0.195498 2.30475 1.16773e-20)
(-0.249427 2.37223 -7.0346e-20)
(-0.113786 2.31905 1.42704e-19)
(-0.125962 2.33804 -1.62457e-19)
(-0.288237 1.75377 -3.05656e-21)
(-0.257295 1.85624 -2.86603e-20)
(0.370343 1.40274 -4.11203e-19)
(0.368538 1.35278 -3.92627e-19)
(0.637608 1.41293 -5.92261e-19)
(0.508157 1.47735 -3.17586e-19)
(0.555848 1.4514 0)
(0.589526 2.40778 1.2288e-19)
(0.656268 2.39485 2.22511e-19)
(0.414004 2.50502 7.98003e-20)
(0.408548 2.55068 -1.65728e-19)
(0.517235 2.50728 2.6899e-19)
(0.546651 2.44786 0)
(0.490557 2.49509 -3.53229e-19)
(0.246211 2.58133 5.81376e-19)
(0.354545 2.55588 -8.14487e-20)
(0.284508 2.6386 -8.86547e-19)
(0.925504 2.37943 2.24633e-19)
(0.824809 2.37344 0)
(1.01038 0.000156409 9.94194e-21)
(1.01479 -0.00568747 -8.10687e-21)
(1.01787 -0.00386269 -1.46715e-19)
(1.01487 -0.000692385 1.46933e-19)
(1.01214 0.00100056 0)
(0.622237 1.2763 0)
(0.633064 1.16157 0)
(0.732912 1.07328 0)
(0.627467 1.12261 0)
(1.18401 2.63425 5.72136e-20)
(1.0703 2.37119 0)
(0.844286 2.23046 -1.8041e-21)
(0.823756 2.48017 0)
(0.918865 2.56664 2.36275e-20)
(0.955316 2.52041 -1.57712e-20)
(0.842823 0.146618 0)
(0.812842 0.140214 8.41412e-20)
(0.927518 0.124541 4.30847e-19)
(0.863916 0.116427 -1.7215e-19)
(0.846796 0.0649997 -5.18815e-19)
(1.04329 0.21735 -2.45197e-19)
(0.959639 0.272703 -1.57123e-20)
(0.904563 0.27285 3.9258e-19)
(0.976192 0.199424 2.9002e-19)
(0.938484 0.159605 -5.42602e-19)
(0.911877 0.169141 7.03373e-20)
(0.939549 0.233009 -1.36439e-19)
(0.915942 0.192699 0)
(0.974744 0.157297 2.59929e-19)
(1.02013 0.165189 0)
(1.01314 0.191465 0)
(1.07976 0.110309 8.24913e-20)
(1.04433 0.158116 -1.3068e-20)
(1.03758 0.220122 -4.62972e-20)
(1.07331 0.192384 0)
(1.02756 0.032638 2.22424e-19)
(1.04643 0.047708 2.63923e-19)
(1.0418 0.0328524 -2.19707e-19)
(1.04521 0.0535096 -1.77966e-19)
(1.02369 0.056155 -2.99294e-19)
(0.976026 0.126717 0)
(0.992724 0.0794842 0)
(0.969167 0.0426705 -2.09664e-19)
(0.931724 0.0588499 8.71975e-20)
(1.03244 0.0861019 2.50114e-19)
(1.04939 0.111203 -2.53138e-19)
(1.05462 0.138385 2.31701e-19)
(1.02043 0.125607 0)
(1.05899 0.0989965 0)
(1.04705 0.0809477 -1.05277e-19)
(1.04237 0.0826318 -2.00486e-19)
(0.579267 1.08457 -9.5305e-20)
(0.618426 1.4373 1.96752e-19)
(1.15782 2.75754 1.02576e-19)
(1.2253 3.09553 -7.10622e-20)
(1.24864 2.73472 5.64133e-19)
(1.28119 2.71867 -3.4089e-19)
(1.2083 2.35551 -8.57074e-21)
(1.21145 2.99936 1.95496e-19)
(1.2295 2.96438 -2.16608e-19)
(1.21762 3.24924 -2.69028e-19)
(1.38 2.98112 3.72493e-19)
(1.37285 2.89853 0)
(0.53079 0.857395 -1.31814e-20)
(0.157597 1.27847 3.76502e-19)
(0.52671 0.502345 3.50735e-19)
(0.365393 0.270548 3.83785e-19)
(0.545226 0.404326 4.06871e-19)
(0.553671 0.486857 -6.31104e-19)
(0.555438 0.489184 5.18186e-19)
(0.512238 0.435808 -2.10852e-19)
(0.452354 0.371926 4.83991e-19)
(0.776229 0.251226 -1.87143e-19)
(0.733515 0.291944 0)
(0.728126 0.227435 1.07077e-20)
(0.720688 0.516663 1.90908e-19)
(0.687385 0.486542 -7.05504e-19)
(0.6148 0.478303 1.79961e-20)
(0.62493 0.46638 0)
(0.666076 0.72067 1.51496e-19)
(0.801927 0.752364 6.00615e-20)
(0.725045 0.831115 -7.79715e-20)
(0.843814 0.788942 -1.74284e-20)
(0.875307 0.83252 1.38926e-20)
(0.884074 0.832729 -1.42282e-20)
(0.817336 0.634548 -2.24571e-19)
(0.89306 0.688652 1.62082e-20)
(0.946824 0.700901 0)
(0.936877 0.678182 -1.51642e-20)
(0.986023 0.312342 6.22837e-20)
(1.10355 0.285821 3.72941e-21)
(1.02738 0.252038 1.00105e-19)
(0.968237 0.344514 -1.43462e-19)
(1.01543 0.406096 0)
(1.06585 0.395618 0)
(0.890707 0.35287 4.9302e-21)
(0.834448 0.283083 0)
(0.85272 0.27619 2.01944e-19)
(0.886773 0.279327 -5.86183e-21)
(0.907654 0.42283 7.73187e-19)
(0.869041 0.485479 1.95526e-19)
(0.870392 0.450766 -2.52234e-19)
(0.800424 0.43828 2.70643e-19)
(0.785417 0.438838 1.84419e-19)
(0.752415 0.421831 -1.8097e-19)
(1.02678 -0.000736359 2.35204e-19)
(1.01993 -0.000135192 0)
(1.01839 0.000898605 1.56864e-19)
(1.02215 -0.00156041 -3.53054e-19)
(1.02211 0.00407325 1.71253e-19)
(1.02047 0.0107087 -3.5953e-19)
(1.02138 0.0102559 0)
(1.02087 0.0107292 -7.59722e-20)
(1.01584 0.0075198 1.90324e-19)
(1.01669 0.0101748 -9.57862e-20)
(1.01772 0.00933355 7.07783e-20)
(0.073581 1.0821 0)
(0.179224 1.23815 0)
(0.0971695 1.16095 0)
(0.0792565 1.0246 0)
(0.130024 1.37835 -6.95535e-19)
(0.120971 1.35179 2.15296e-19)
(0.123932 1.48117 1.56486e-19)
(0.0970148 1.38676 -1.84672e-19)
(0.184722 1.51444 5.04229e-19)
(0.187176 1.48624 -3.87935e-19)
(0.170143 1.36307 -3.00557e-20)
(0.207804 1.35279 4.85902e-19)
(0.195822 1.27696 7.27796e-20)
(0.208184 1.27742 6.80857e-20)
(0.0916943 2.36588 1.8815e-19)
(0.0891358 2.42335 0)
(0.151309 2.06806 -4.90378e-20)
(0.0745465 1.71857 -1.1736e-19)
(0.232567 2.05499 2.96059e-20)
(0.213331 2.45637 0)
(0.268693 2.40813 -1.14996e-19)
(0.30371 2.40778 8.19392e-20)
(0.241911 2.01102 9.52653e-20)
(0.147504 2.1896 -3.62429e-21)
(0.138156 2.31626 0)
(0.12285 2.01123 5.49589e-19)
(-0.0318083 2.53764 6.32083e-19)
(0.0317753 2.3602 0)
(0.0293645 2.51439 -2.68182e-20)
(0.0202742 2.35554 -2.50866e-19)
(-0.169711 1.28149 -8.07411e-20)
(-0.214107 1.27903 1.23027e-18)
(-0.254476 1.34966 -2.78808e-19)
(-0.234457 1.43623 -4.94229e-19)
(-0.058582 1.43952 0)
(-0.28422 1.29831 0)
(-0.216011 1.34013 -1.51015e-19)
(-0.307019 1.37039 4.77969e-20)
(-0.284759 1.30648 0)
(-0.19849 1.19084 -1.41297e-19)
(-0.146559 1.23643 2.5124e-19)
(1.04121 0.00478763 0)
(1.04305 0.00185104 -2.28966e-20)
(1.04335 0.0143204 -1.69311e-19)
(1.05049 0.0104793 0)
(1.04983 0.00842656 0)
(1.03669 0.00604886 -6.44401e-21)
(1.0323 0.00793193 2.78857e-19)
(1.03262 0.0121611 3.36836e-19)
(1.02691 0.018691 0)
(1.02526 0.0198741 0)
(1.0383 0.0202069 1.70325e-19)
(1.03061 0.0245099 0)
(1.02803 0.0233498 0)
(-0.373569 2.07196 0)
(-0.308128 1.87929 -1.66276e-20)
(-0.325478 2.01483 -3.55687e-20)
(-0.310029 1.48902 0)
(-0.381621 1.81837 -7.49597e-20)
(-0.31927 1.70937 8.63607e-21)
(-0.306992 1.5682 0)
(0.387313 1.68748 0)
(0.367771 1.28293 6.45802e-19)
(0.30357 1.33722 0)
(0.415591 1.27609 -8.40886e-19)
(0.459698 1.44264 0)
(0.438741 1.39129 3.94897e-19)
(1.02767 2.70526 -4.13144e-21)
(0.950155 2.41464 -2.83745e-19)
(0.88893 2.1705 3.21406e-19)
(0.838265 2.36708 1.18336e-19)
(0.843101 2.51975 0)
(0.908669 2.51474 0)
(0.904089 2.37323 0)
(0.894521 2.34741 -4.45684e-19)
(0.689476 2.49482 -1.69061e-20)
(0.79958 2.48753 -1.35236e-20)
(0.808477 2.45985 1.03609e-20)
(0.68779 2.3748 0)
(0.789318 2.37448 0)
(0.751379 2.38316 -2.26985e-19)
(0.766539 2.50535 0)
(0.586892 1.09003 0)
(0.483519 0.942342 -5.60554e-22)
(0.535082 0.971396 -1.34377e-21)
(0.514142 1.06379 0)
(0.51497 1.02048 3.48791e-21)
(0.747158 0.854538 1.3111e-20)
(0.760363 0.99802 0)
(0.733944 0.95388 -6.22346e-20)
(0.610485 1.02121 0)
(0.619449 0.936753 0)
(1.16248 2.77737 5.6672e-20)
(1.14053 2.84175 1.24172e-19)
(0.934847 2.36926 -2.83834e-19)
(0.901894 2.34366 3.57889e-20)
(1.12589 2.74855 0)
(1.077 2.71912 -4.28093e-20)
(1.0828 2.49514 -7.55936e-20)
(0.978669 2.23211 -2.97633e-20)
(0.492559 1.37066 0)
(0.502209 1.07288 8.40044e-20)
(0.54141 1.14999 0)
(0.857783 0.218853 0)
(0.819916 0.17383 0)
(0.777834 0.163105 0)
(0.849752 0.2243 -3.17604e-19)
(0.79619 0.222928 1.95724e-19)
(0.93968 0.0505651 -1.79093e-19)
(0.952986 0.0994078 0)
(0.925453 0.10468 8.04643e-20)
(0.887576 0.081077 3.29742e-19)
(0.875618 0.046332 -2.02376e-19)
(1.16768 3.37462 -9.82965e-19)
(1.21375 3.29404 0)
(1.16733 3.40118 -1.93288e-18)
(0.653881 3.56126 1.65989e-18)
(0.881757 3.12636 3.76797e-19)
(0.510688 0.885069 2.31654e-19)
(0.435931 0.876359 0)
(0.360336 0.535604 -8.52288e-20)
(0.457991 0.691474 3.88972e-19)
(0.534183 0.501587 -1.12572e-19)
(0.516319 0.530966 1.31751e-19)
(0.659491 0.530622 2.68901e-19)
(0.686814 0.549635 0)
(0.646361 0.615834 0)
(0.597069 0.551166 0)
(0.945041 0.585127 -5.24459e-20)
(0.873092 0.5306 -1.89003e-19)
(0.898248 0.563901 8.84881e-20)
(0.925818 0.501788 -1.39059e-19)
(1.03003 0.463085 0)
(1.04102 0.55455 -5.66611e-21)
(0.824679 0.39063 -4.07817e-19)
(0.829274 0.373646 -4.70854e-19)
(0.780688 0.390162 3.19894e-19)
(0.774071 0.35628 -3.61763e-19)
(0.828817 0.306158 -2.67797e-19)
(0.782374 0.310051 3.29401e-19)
(1.02595 0.00555405 -1.81703e-19)
(1.0258 0.00564411 3.72581e-19)
(1.03058 -0.000806003 2.22756e-19)
(1.03272 0.000701483 -2.70894e-19)
(1.03372 0.00458803 0)
(1.03031 0.00552504 -4.35809e-19)
(0.10971 1.70221 -6.61103e-20)
(0.120984 1.63852 0)
(0.0979592 1.72078 -5.14781e-19)
(0.0906357 1.69587 4.71924e-19)
(0.117191 1.52802 -2.87179e-19)
(0.176305 1.54314 0)
(-0.465555 2.07437 0)
(-0.427775 1.71439 6.78468e-20)
(-0.450307 1.6752 -6.14223e-20)
(-0.385399 1.83934 -2.60534e-20)
(-0.378906 2.09735 8.75132e-20)
(-0.41522 2.11996 -6.32401e-20)
(0.486565 1.38243 4.20232e-19)
(0.47735 1.38707 -4.51409e-19)
(0.431362 1.27494 4.1889e-19)
(0.421185 1.29661 -2.56807e-20)
(0.612053 1.27632 0)
(0.532344 1.37336 5.37357e-19)
(0.552851 1.3935 -5.2254e-19)
(0.440683 1.25949 -4.04904e-19)
(0.489032 1.21538 0)
(0.544826 1.17814 0)
(0.656869 2.45347 2.48218e-20)
(0.668877 2.47476 5.3574e-19)
(0.716026 2.49132 -3.68604e-19)
(0.626434 2.47393 -1.19633e-19)
(0.562891 2.57024 9.96823e-20)
(0.514637 2.54097 -3.0168e-19)
(0.962705 2.37577 -1.73285e-19)
(1.00698 2.39729 0)
(0.903485 2.14716 -2.46316e-19)
(1.04555 2.69967 0)
(1.04745 2.68691 0)
(0.626642 2.29265 2.39999e-19)
(1.04744 3.17536 4.82576e-19)
(0.918453 3.04433 -4.28233e-19)
(0.294196 0.960907 0)
(0.348497 0.83337 -1.57049e-19)
(0.498962 0.787012 -7.26771e-20)
(0.407227 2.04048 0)
(0.47334 2.79158 -2.62284e-19)
(0.434078 2.55632 0)
(0.679546 0.663112 -3.14265e-19)
(0.749288 0.658615 3.98966e-19)
(0.773929 0.610949 -3.89675e-19)
(0.672046 0.636217 -4.66231e-20)
(0.719834 0.590056 -1.89895e-19)
(1.00757 2.78232 -3.66865e-19)
(1.0406 2.8375 2.87614e-19)
(0.652057 2.18873 5.41902e-20)
(0.608631 1.73914 -6.9399e-20)
(0.703758 1.92746 1.10405e-19)
(0.991787 2.46528 -6.85143e-20)
(0.994445 2.46338 -1.63041e-19)
(0.673911 1.87583 -5.16659e-21)
(0.458858 1.35338 -7.85984e-20)
)
;

boundaryField
{
    wall-4
    {
        type            noSlip;
    }
    velocity-inlet-5
    {
        type            fixedValue;
        value           uniform (1 0 0);
    }
    velocity-inlet-6
    {
        type            fixedValue;
        value           uniform (0 3 0);
    }
    pressure-outlet-7
    {
        type            zeroGradient;
    }
    wall-8
    {
        type            noSlip;
    }
    frontAndBackPlanes
    {
        type            empty;
    }
}


// ************************************************************************* //
