/*--------------------------------*- C++ -*----------------------------------*\
  =========                 |
  \\      /  F ield         | OpenFOAM: The Open Source CFD Toolbox
   \\    /   O peration     | Website:  https://openfoam.org
    \\  /    A nd           | Version:  13
     \\/     M anipulation  |
\*---------------------------------------------------------------------------*/
FoamFile
{
    format      ascii;
    class       volScalarField;
    location    "0.004";
    object      mag(U);
}
// * * * * * * * * * * * * * * * * * * * * * * * * * * * * * * * * * * * * * //

dimensions      [0 1 -1 0 0 0 0];

internalField   nonuniform List<scalar> 
1000
(
2.53673e-12
6.92897e-13
7.07484e-13
2.15892e-13
1.838e-13
7.90631e-13
1.95178e-12
7.16236e-13
2.13412e-12
5.83492e-14
1.29389e-12
1.16698e-14
1.75048e-14
1.2443e-12
9.40881e-13
1.29973e-12
1.31286e-13
6.37465e-13
1.18741e-12
1.06196e-12
2.04514e-12
1.96053e-12
1.85405e-12
1.1276e-12
1.45435e-12
7.0019e-13
5.83492e-14
2.77159e-14
7.29365e-15
2.58341e-12
3.20921e-13
1.21512e-12
1.03278e-12
1.57105e-12
1.22533e-13
2.81827e-12
1.6119e-12
9.0733e-13
5.86409e-13
1.01965e-12
2.66948e-13
8.08136e-13
1.25159e-12
1.14073e-12
4.08444e-14
2.47546e-12
1.91094e-13
2.71324e-13
1.28806e-12
1.37266e-12
6.89979e-13
1.21075e-13
9.20458e-13
2.00429e-12
1.64545e-12
2.27562e-13
2.18809e-13
7.74585e-13
1.9722e-12
1.23992e-12
6.56428e-14
1.83071e-12
7.86255e-13
7.07484e-13
5.71822e-13
1.13781e-13
1.62357e-12
3.23838e-13
8.13971e-13
5.10555e-14
3.57389e-13
1.25159e-12
2.08598e-13
1.71984e-12
4.18655e-13
1.11447e-12
2.78617e-13
5.83492e-15
1.30702e-12
1.57251e-12
8.00843e-13
1.67754e-13
1.13052e-12
1.39017e-12
4.94509e-13
1.53458e-12
3.18003e-13
1.36099e-12
1.02257e-12
1.83216e-12
2.31938e-13
3.19316e-12
1.1203e-12
1.16844e-12
2.36898e-12
2.7993e-12
3.10709e-12
2.35585e-12
1.88176e-12
9.61303e-13
2.37044e-12
3.21942e-12
2.01451e-12
2.19685e-12
1.71547e-12
3.42656e-12
3.62203e-12
2.47546e-12
2.05827e-12
2.49589e-12
7.61457e-13
1.13927e-12
6.5497e-13
1.64836e-13
6.8852e-13
7.73127e-13
5.54317e-13
2.69865e-13
1.8803e-12
1.78111e-12
1.838e-12
9.30669e-13
1.32307e-12
1.21366e-12
1.42664e-12
4.98886e-13
8.1543e-13
8.75238e-14
2.08307e-12
4.95968e-13
8.0376e-13
4.63876e-13
2.01305e-13
1.2618e-12
1.7709e-12
8.02301e-13
2.72782e-13
6.02455e-13
2.65489e-13
4.20114e-13
1.40184e-12
1.71838e-12
1.48061e-12
2.12829e-12
2.52798e-12
2.25665e-12
1.01965e-12
2.66948e-12
2.54694e-12
2.37773e-12
1.51708e-13
9.55468e-13
7.95008e-13
6.28712e-13
8.75238e-13
4.78463e-13
7.03108e-13
4.60959e-13
1.72859e-12
1.99846e-13
4.66793e-14
3.50095e-14
1.9547e-13
3.49074e-12
3.60744e-12
2.88099e-12
2.27708e-12
1.10134e-12
9.04412e-14
1.51854e-12
9.80266e-13
7.99384e-13
7.61457e-13
8.97119e-13
4.31784e-13
5.70363e-13
4.21573e-13
1.83946e-12
1.91677e-12
2.74387e-12
2.91454e-12
3.12752e-12
3.69642e-12
2.81681e-12
2.60675e-12
4.26387e-12
4.71316e-12
4.21427e-12
3.21066e-12
3.04291e-12
3.38863e-12
2.63592e-12
2.85619e-12
2.03201e-12
2.71907e-12
1.838e-12
1.68192e-12
6.18501e-13
3.88022e-13
1.11009e-12
2.47984e-14
3.04874e-13
2.66948e-13
9.83184e-13
1.98387e-13
1.19616e-12
9.80266e-13
5.52859e-13
2.84452e-13
9.91936e-14
1.52e-12
5.44106e-13
2.95247e-12
1.93573e-12
2.22019e-12
8.1543e-13
8.7232e-13
1.06503e-25
1.43685e-12
8.48981e-13
3.9094e-13
4.31784e-13
4.06986e-13
1.48499e-12
1.34495e-12
1.63378e-13
1.99846e-13
9.02954e-13
2.77159e-13
1.36683e-12
9.21917e-13
2.62571e-13
1.16698e-14
9.49633e-13
2.80076e-13
6.37465e-13
7.10401e-13
7.77503e-13
1.01528e-12
8.8399e-13
1.49082e-12
1.88322e-12
5.07638e-13
1.23554e-12
1.20637e-12
3.16544e-13
1.33328e-12
9.90477e-13
1.27055e-12
1.49374e-12
9.68596e-13
4.30325e-13
3.41343e-13
1.70671e-12
6.66639e-13
6.69557e-13
8.63568e-13
8.25641e-13
2.18955e-12
1.16844e-12
1.54625e-13
1.11301e-12
8.19806e-13
9.61303e-13
2.757e-13
1.35224e-12
1.81904e-12
2.44191e-12
2.74825e-12
2.50318e-12
6.433e-13
2.37773e-13
8.28558e-13
1.00798e-12
8.09595e-13
5.84951e-13
9.02954e-13
1.21075e-12
2.51631e-12
2.63592e-12
3.40613e-12
3.45573e-12
3.32153e-12
2.3471e-12
1.80153e-12
2.93205e-13
2.04222e-14
7.74585e-13
1.1203e-12
5.38271e-13
4.13842e-12
2.56882e-12
4.18801e-12
1.19616e-12
3.55492e-12
2.97581e-12
3.70663e-12
2.30771e-12
3.94732e-12
1.16407e-12
9.04412e-13
8.48105e-12
2.56357e-11
6.29486e-11
1.49159e-10
3.40864e-10
7.67651e-10
1.70438e-09
3.7533e-09
8.17974e-09
1.76722e-08
3.78205e-08
8.01984e-08
1.6846e-07
3.50497e-07
7.22176e-07
1.47336e-06
2.97577e-06
5.94897e-06
1.17693e-05
2.30375e-05
4.46072e-05
8.54207e-05
0.000161735
0.000302703
0.000559867
0.00102301
0.00184617
0.00328937
0.00578418
0.0100344
0.0171659
0.0289441
0.0480766
0.0786176
0.126475
0.199998
0.31056
0.472965
0.705351
1.02796
1.45948
2.01005
2.67932
3.46418
4.36228
5.36939
6.47893
7.68282
8.97219
10.338
11.7716
13.2648
14.8104
16.4018
18.0334
19.7003
21.3981
23.1233
24.8728
26.6437
28.4337
30.241
32.0636
33.9002
35.7493
37.6099
39.4808
41.3614
43.2507
45.148
47.0528
48.9645
50.8826
52.8067
54.7363
56.6711
58.6107
60.555
62.5035
64.4561
66.4124
68.3724
70.3358
72.3024
74.272
76.2445
78.2198
80.1976
82.178
84.1606
86.1455
88.1325
90.1215
92.1124
94.1051
96.0996
98.0956
100.093
102.092
104.093
106.094
108.097
110.102
112.107
114.113
116.12
118.128
120.137
122.147
124.158
126.169
128.18
130.193
132.205
134.219
136.232
138.246
140.26
142.275
144.289
146.304
148.319
150.334
152.349
154.364
156.378
158.393
160.407
162.421
164.435
166.448
168.461
170.474
172.486
174.497
176.508
178.518
180.528
182.536
184.544
186.55
188.556
190.56
192.564
194.566
196.567
198.566
200.564
202.56
204.554
206.547
208.537
210.526
212.512
214.496
216.478
218.456
220.432
222.405
224.375
226.341
228.304
230.262
232.217
234.167
236.112
238.052
239.987
241.916
243.838
245.754
247.663
249.564
251.455
253.338
255.214
257.08
258.931
260.769
262.599
264.419
266.221
268.003
269.773
271.533
273.272
274.981
276.678
278.378
280.056
281.68
283.274
284.897
286.541
288.112
289.566
291.039
292.575
293.615
294.011
294.313
294.648
294.919
295.073
295.194
295.371
295.569
295.719
295.783
295.833
295.916
296.017
296.067
296.048
296.008
295.987
295.971
295.907
295.793
295.655
295.566
295.501
295.391
295.256
295.127
295.031
294.947
294.846
294.729
294.621
294.556
294.512
294.444
294.363
294.294
294.255
294.222
294.173
294.108
294.05
294.017
293.991
293.948
293.894
293.846
293.823
293.807
293.775
293.733
293.697
293.685
293.678
293.653
293.619
293.598
293.596
293.594
293.575
293.549
293.539
293.545
293.545
293.53
293.514
293.511
293.52
293.525
293.513
293.5
293.503
293.516
293.516
293.504
293.497
293.502
293.51
293.509
293.499
293.494
293.5
293.511
293.508
293.497
293.494
293.502
293.51
293.501
293.484
293.481
293.499
293.51
293.498
293.476
293.465
293.486
293.514
293.505
293.472
293.457
293.474
293.507
293.518
293.498
293.48
293.507
293.568
293.616
293.636
293.652
293.698
293.781
293.868
293.904
293.896
293.882
293.873
293.826
293.695
293.483
293.265
293.151
293.15
293.185
293.202
293.224
293.301
293.397
293.435
293.399
293.356
293.371
293.425
293.457
293.425
293.368
293.371
293.428
293.462
293.432
293.38
293.379
293.431
293.47
293.447
293.398
293.39
293.434
293.472
293.454
293.408
293.398
293.438
293.474
293.464
293.427
293.413
293.446
293.482
293.473
293.434
293.417
293.442
293.469
293.461
293.425
293.404
293.423
293.449
293.441
293.405
293.384
293.396
293.414
293.404
293.367
293.339
293.342
293.352
293.336
293.295
293.262
293.255
293.252
293.229
293.181
293.136
293.113
293.097
293.058
292.994
292.934
292.887
292.842
292.782
292.685
292.58
292.492
292.41
292.315
292.164
291.986
291.83
291.689
291.535
291.295
290.981
290.69
290.422
290.137
289.715
289.063
288.301
287.475
286.46
285.086
282.964
279.802
275.543
269.536
259.909
242.335
204.065
119.848
29.6896
4.61833
0.69465
0.102242
0.0149631
0.00219169
0.000321029
4.70179e-05
6.88606e-06
1.00843e-06
1.47677e-07
2.16212e-08
3.16403e-09
4.59906e-10
6.48187e-11
6.4899e-12
1.53604e-12
4.08007e-12
2.04368e-12
2.46088e-12
4.03923e-12
1.85697e-12
3.26318e-12
5.25143e-14
5.57236e-13
2.34856e-12
2.20414e-12
2.76867e-12
2.21727e-13
2.02326e-12
1.67754e-12
2.07578e-12
3.98234e-12
2.18664e-12
3.00207e-12
1.22533e-13
1.15677e-12
4.15739e-13
8.60652e-14
1.23263e-12
1.44852e-12
6.11209e-13
2.83432e-12
2.60384e-12
1.44706e-12
9.93396e-13
1.21366e-12
5.41189e-13
2.04514e-12
6.25796e-13
3.71977e-13
3.41343e-12
5.77658e-13
2.26979e-12
1.66295e-13
5.25143e-14
7.04567e-13
1.67462e-12
2.30042e-12
2.78618e-13
6.91439e-13
1.87301e-12
5.28061e-13
9.48176e-14
4.12821e-13
1.93136e-12
3.86564e-13
3.25589e-12
8.59193e-13
2.50756e-12
1.52583e-12
6.05228e-12
3.18441e-12
1.47478e-12
1.40913e-12
1.57689e-12
2.86349e-12
3.4995e-12
2.96852e-12
2.71178e-12
3.91524e-12
3.02541e-12
3.86126e-12
2.78326e-12
3.21359e-12
3.04875e-12
1.54771e-12
7.36659e-13
1.04299e-12
1.32745e-12
2.20998e-12
4.39662e-12
1.48207e-12
1.75485e-12
5.7474e-13
2.40253e-12
3.93858e-14
2.58196e-12
2.19247e-12
2.35731e-12
2.31792e-12
1.99263e-12
7.83339e-13
7.39577e-13
1.05466e-12
1.81029e-12
3.07792e-13
2.47547e-12
2.14579e-12
1.93136e-12
2.25958e-12
2.74387e-12
2.63009e-12
6.36007e-13
2.37919e-12
1.27347e-12
1.70817e-12
4.65335e-13
3.96775e-13
3.04875e-13
2.76138e-12
3.61911e-12
3.2661e-12
2.97144e-12
3.16691e-12
6.54971e-13
9.49634e-13
3.12169e-13
1.22388e-12
7.43953e-13
1.0357e-13
3.98525e-12
2.49589e-12
3.87002e-12
1.64545e-12
3.47178e-12
1.98533e-12
1.57397e-12
8.86909e-13
8.94203e-13
9.35047e-13
1.9547e-13
8.59193e-13
1.70526e-12
1.77674e-12
3.13044e-12
5.70364e-13
2.91017e-12
4.14134e-12
2.33835e-12
2.47984e-14
7.99385e-13
1.11593e-12
9.29212e-13
1.01674e-12
7.68752e-13
5.32437e-13
5.0618e-13
2.84599e-12
1.30556e-12
3.07792e-12
1.28514e-12
1.76944e-12
1.5448e-12
1.02111e-14
9.42341e-13
1.93865e-12
1.39455e-12
9.7735e-13
1.68775e-12
2.8737e-13
4.93051e-13
1.23555e-12
1.76798e-12
2.80952e-12
2.06265e-12
2.98165e-12
5.16391e-13
4.62856e-12
4.66794e-14
1.02403e-12
1.25451e-12
1.29827e-13
8.12514e-13
4.09904e-13
1.92553e-12
7.59999e-13
9.23377e-13
1.70672e-13
2.34856e-13
7.97926e-13
5.05451e-12
1.23409e-12
1.95762e-12
3.25005e-12
2.56299e-12
5.20913e-12
3.96629e-12
5.41189e-12
4.49873e-12
4.32222e-12
3.80145e-12
5.81596e-12
6.05665e-12
5.65988e-12
4.63001e-12
3.88314e-12
3.54326e-12
3.16982e-12
1.49958e-12
2.16622e-12
1.37996e-12
1.7957e-12
9.99231e-13
1.6965e-12
2.92767e-12
5.08514e-12
1.84967e-12
2.12975e-12
1.14365e-12
1.64837e-13
1.04883e-12
1.29973e-12
3.26464e-12
3.10564e-12
1.42372e-12
1.10864e-13
3.25151e-12
2.88245e-12
6.28713e-13
8.40229e-13
2.6403e-13
2.92913e-12
3.53888e-12
1.39601e-12
2.76284e-12
2.94372e-12
4.0757e-12
4.51769e-12
4.34848e-12
1.87447e-12
3.97359e-12
1.32745e-12
2.28437e-12
1.40038e-12
7.43953e-13
2.34856e-12
9.68598e-13
3.02395e-12
4.97428e-12
4.2595e-12
2.99623e-12
3.17566e-12
4.13988e-12
4.11508e-12
5.14641e-12
4.24783e-12
4.2274e-12
3.25735e-12
2.7147e-12
4.39224e-12
4.20844e-12
5.38855e-12
5.41773e-12
6.68245e-12
5.28207e-12
6.34548e-12
4.6869e-12
6.49719e-12
5.25435e-12
5.77804e-12
6.115e-12
6.1821e-12
6.99462e-12
6.40383e-12
6.18065e-12
)
;

boundaryField
{
    sides
    {
        type            calculated;
        value           nonuniform List<scalar> 2(6.18065e-12 2.53673e-12);
    }
    empty
    {
        type            empty;
    }
}


// ************************************************************************* //
