/*--------------------------------*- C++ -*----------------------------------*\
  =========                 |
  \\      /  F ield         | OpenFOAM: The Open Source CFD Toolbox
   \\    /   O peration     | Website:  https://openfoam.org
    \\  /    A nd           | Version:  13
     \\/     M anipulation  |
\*---------------------------------------------------------------------------*/
FoamFile
{
    format      ascii;
    class       volScalarField;
    location    "0.004";
    object      p;
}
// * * * * * * * * * * * * * * * * * * * * * * * * * * * * * * * * * * * * * //

dimensions      [1 -1 -2 0 0 0 0];

internalField   nonuniform List<scalar> 
1000
(
100000
100000
100000
100000
100000
100000
100000
100000
100000
100000
100000
100000
100000
100000
100000
100000
100000
100000
100000
100000
100000
100000
100000
100000
100000
100000
100000
100000
100000
100000
100000
100000
100000
100000
100000
100000
100000
100000
100000
100000
100000
100000
100000
100000
100000
100000
100000
100000
100000
100000
100000
100000
100000
100000
100000
100000
100000
100000
100000
100000
100000
100000
100000
100000
100000
100000
100000
100000
100000
100000
100000
100000
100000
100000
100000
100000
100000
100000
100000
100000
100000
100000
100000
100000
100000
100000
100000
100000
100000
100000
100000
100000
100000
100000
100000
100000
100000
100000
100000
100000
100000
100000
100000
100000
100000
100000
100000
100000
100000
100000
100000
100000
100000
100000
100000
100000
100000
100000
100000
100000
100000
100000
100000
100000
100000
100000
100000
100000
100000
100000
100000
100000
100000
100000
100000
100000
100000
100000
100000
100000
100000
100000
100000
100000
100000
100000
100000
100000
100000
100000
100000
100000
100000
100000
100000
100000
100000
100000
100000
100000
100000
100000
100000
100000
100000
100000
100000
100000
100000
100000
100000
100000
100000
100000
100000
100000
100000
100000
100000
100000
100000
100000
100000
100000
100000
100000
100000
100000
100000
100000
100000
100000
100000
100000
100000
100000
100000
100000
100000
100000
100000
100000
100000
100000
100000
100000
100000
100000
100000
100000
100000
100000
100000
100000
100000
100000
100000
100000
100000
100000
100000
100000
100000
100000
100000
100000
100000
100000
100000
100000
100000
100000
100000
100000
100000
100000
100000
100000
100000
100000
100000
100000
100000
100000
100000
100000
100000
100000
100000
100000
100000
100000
100000
100000
100000
100000
100000
100000
100000
100000
100000
100000
100000
100000
100000
100000
100000
100000
100000
100000
100000
100000
100000
100000
100000
100000
100000
100000
100000
100000
100000
100000
100000
100000
100000
100000
100000
100000
100000
100000
100000
100000
100000
100000
100000
100000
100000
100000
100000
100000
100000
100000
100000
100000
100000
100000
100000
100000
100000
100000
100000
100000
100000
100000
100000
100000
100000
100000
100000
100000
100000
100000
100000
99999.9
99999.9
99999.8
99999.6
99999.3
99998.8
99997.9
99996.3
99993.7
99989.3
99982.2
99970.9
99953.2
99925.9
99884.9
99824.5
99737.9
99617.5
99455.9
99249.1
98998.4
98705.7
98371.8
97998.8
97589.5
97147.4
96676
96179.2
95660.3
95122.6
94569.1
94002.2
93424.3
92837.1
92242.5
91641.8
91036.2
90426.8
89814.4
89199.9
88583.9
87967
87349.7
86732.3
86115.4
85499.2
84883.9
84270
83657.5
83046.6
82437.7
81830.7
81225.9
80623.3
80023.1
79425.3
78830.2
78237.6
77647.8
77060.7
76476.4
75895
75316.6
74741.1
74168.5
73599.1
73032.6
72469.3
71909.1
71351.9
70798
70247.2
69699.6
69155.2
68614
68076.1
67541.3
67009.8
66481.5
65956.5
65434.7
64916.2
64401
63889
63380.2
62874.8
62372.5
61873.6
61377.9
60885.4
60396.2
59910.3
59427.6
58948.1
58471.8
57998.8
57529
57062.5
56599.1
56138.9
55681.9
55228.2
54777.5
54330.1
53885.8
53444.7
53006.8
52571.9
52140.2
51711.7
51286.2
50863.9
50444.6
50028.5
49615.4
49205.4
48798.5
48394.6
47993.8
47596.1
47201.4
46809.7
46421
46035.4
45652.8
45273.2
44896.7
44523.1
44152.6
43785
43420.5
43059
42700.5
42345
41992.5
41643
41296.6
40953.2
40612.9
40275.6
39941.4
39610.4
39282.4
38957.5
38635.8
38317.4
38002.1
37689.9
37381.4
37076.4
36774.1
36474.9
36179.9
35889.7
35602.2
35316.3
35034.5
34759.4
34488.9
34218.7
33950.6
33690.5
33437.9
33184.1
32927.9
32682.7
32452.5
32220.2
31968.4
31722.6
31513
31317.1
31088
30811.9
30601.4
30431.6
30304.6
30115.9
30113.4
30132.4
30139.9
30073.5
30055.7
30053.3
30078.5
30087.8
30054.3
30038.5
30046.1
30081.4
30086.6
30072.6
30062.9
30080.8
30120
30121.3
30115.9
30113.3
30140.1
30168.1
30173.7
30172.5
30163.7
30186.9
30214.7
30214
30209.9
30205.3
30227.3
30239.2
30243.7
30240
30233.5
30250.1
30266.7
30266.2
30258.4
30254.8
30270.9
30283.2
30282.8
30274
30271.7
30286.6
30295
30294.3
30284.6
30283.7
30297
30301.4
30299.7
30292.4
30291.5
30301.5
30305.6
30301.2
30294.8
30294.9
30303.3
30307.5
30301.1
30292.8
30294.7
30305.2
30305.8
30296.2
30293.1
30295.5
30301.7
30301.7
30295
30290.9
30294.2
30300.7
30298.3
30290.8
30290.6
30297
30298.8
30294.5
30288.9
30288.6
30296.7
30301.6
30295.5
30284.4
30284.1
30297
30306.5
30297.2
30281.1
30280.4
30296.2
30306
30300.3
30285.3
30278
30289.2
30308.2
30307.5
30286.1
30280.1
30286.2
30306.3
30312.7
30299.2
30282
30283.7
30308
30314.5
30306.9
30285.5
30281.5
30296.5
30311.1
30304.4
30278.4
30274.9
30291.1
30314.4
30314.3
30294.6
30284.6
30297.3
30316
30317.5
30296.2
30282.9
30291.7
30314.8
30318.2
30301.4
30284.5
30289.2
30313.4
30320.2
30306.5
30286
30289.3
30313
30319.3
30308.8
30289.7
30290.7
30311.4
30318.2
30310.6
30293.1
30292.2
30309.4
30318.5
30312.8
30295
30293.8
30309.2
30317.2
30312.9
30297.9
30295.2
30307.4
30316.6
30313.3
30298.5
30296.2
30307.2
30314.7
30312.4
30299.5
30296.2
30304.5
30312.8
30310.7
30298
30295.3
30302
30308.3
30306.7
30295.2
30291.6
30295.9
30302.9
30300.5
30287.6
30285.4
30287.3
30291.5
30289.4
30276.6
30272.2
30271.9
30273.7
30272.4
30254.6
30246.4
30243.7
30243.5
30244.2
30220.9
30199.1
30194.1
30192.4
30194.8
30166
30119.2
30106.1
30099.9
30100.2
30074.2
29967
29905.1
29862.9
29811.1
29744
29550
29189.8
28869.3
28468.4
27741.5
26365.7
23495.1
16111.8
11067
10177.1
10026.3
10003.9
10000.6
10000.1
10000
10000
10000
10000
10000
10000
10000
10000
10000
10000
10000
10000
10000
10000
10000
10000
10000
10000
10000
10000
10000
10000
10000
10000
10000
10000
10000
10000
10000
10000
10000
10000
10000
10000
10000
10000
10000
10000
10000
10000
10000
10000
10000
10000
10000
10000
10000
10000
10000
10000
10000
10000
10000
10000
10000
10000
10000
10000
10000
10000
10000
10000
10000
10000
10000
10000
10000
10000
10000
10000
10000
10000
10000
10000
10000
10000
10000
10000
10000
10000
10000
10000
10000
10000
10000
10000
10000
10000
10000
10000
10000
10000
10000
10000
10000
10000
10000
10000
10000
10000
10000
10000
10000
10000
10000
10000
10000
10000
10000
10000
10000
10000
10000
10000
10000
10000
10000
10000
10000
10000
10000
10000
10000
10000
10000
10000
10000
10000
10000
10000
10000
10000
10000
10000
10000
10000
10000
10000
10000
10000
10000
10000
10000
10000
10000
10000
10000
10000
10000
10000
10000
10000
10000
10000
10000
10000
10000
10000
10000
10000
10000
10000
10000
10000
10000
10000
10000
10000
10000
10000
10000
10000
10000
10000
10000
10000
10000
10000
10000
10000
10000
10000
10000
10000
10000
10000
10000
10000
10000
10000
10000
10000
10000
10000
10000
10000
10000
10000
10000
10000
10000
10000
10000
10000
10000
10000
10000
10000
10000
10000
10000
10000
10000
10000
10000
10000
10000
10000
10000
10000
10000
10000
10000
10000
10000
10000
10000
10000
10000
10000
10000
10000
10000
10000
10000
10000
10000
10000
10000
10000
10000
10000
10000
10000
10000
10000
10000
10000
10000
10000
10000
10000
10000
10000
10000
10000
10000
10000
10000
10000
10000
10000
10000
10000
10000
10000
10000
10000
10000
10000
)
;

boundaryField
{
    sides
    {
        type            zeroGradient;
    }
    empty
    {
        type            empty;
    }
}


// ************************************************************************* //
