/*--------------------------------*- C++ -*----------------------------------*\
  =========                 |
  \\      /  F ield         | OpenFOAM: The Open Source CFD Toolbox
   \\    /   O peration     | Website:  https://openfoam.org
    \\  /    A nd           | Version:  13
     \\/     M anipulation  |
\*---------------------------------------------------------------------------*/
FoamFile
{
    format      ascii;
    class       surfaceScalarField;
    location    "0.004";
    object      phi;
}
// * * * * * * * * * * * * * * * * * * * * * * * * * * * * * * * * * * * * * //

dimensions      [1 0 -1 0 0 0 0];

internalField   nonuniform List<scalar> 
999
(
-7.01306e-12
-2.59348e-12
-2.11031e-12
-1.42109e-14
-1.21503e-12
2.43006e-12
4.73932e-12
6.17462e-12
4.17799e-12
3.12639e-12
2.23821e-12
1.35003e-13
-2.71427e-12
-4.24194e-12
-4.41958e-12
-3.02691e-12
-1.37845e-12
-4.20641e-12
-1.20792e-13
5.40723e-12
8.73257e-12
7.28306e-12
5.73408e-12
4.88853e-12
4.69669e-12
1.42109e-12
1.06581e-13
9.9476e-14
4.95959e-12
5.41434e-12
3.01981e-12
4.68958e-13
1.15818e-12
2.49401e-12
6.06803e-12
8.32046e-12
5.46407e-12
2.72848e-12
3.60956e-12
2.07478e-12
2.67875e-12
3.86535e-12
5.45697e-12
1.56319e-12
6.23146e-12
3.78009e-12
1.84741e-13
3.61666e-12
-3.2685e-13
-4.30589e-12
-1.47793e-12
1.38556e-12
6.39488e-12
6.70752e-12
3.11218e-12
-5.68434e-14
2.02505e-12
5.80513e-12
1.25766e-12
-2.16005e-12
-3.33955e-12
-5.6275e-12
-3.09086e-12
-1.7053e-13
7.53175e-13
2.92033e-12
2.76401e-12
9.37916e-13
1.64846e-12
-1.0445e-12
2.15294e-12
2.7498e-12
3.4035e-12
4.17089e-12
3.41061e-12
2.97717e-12
4.47642e-13
-2.77822e-12
6.82121e-13
4.23483e-12
2.28795e-12
2.30926e-12
5.38591e-12
1.5703e-12
2.37321e-12
3.33245e-12
3.34666e-12
5.08749e-12
5.3646e-12
3.29692e-12
6.13198e-12
3.77298e-12
1.84741e-13
6.32383e-12
1.14682e-11
1.10347e-11
1.08216e-11
8.66862e-12
5.53513e-12
7.00595e-12
1.06439e-11
1.09353e-11
8.07177e-12
8.02203e-12
1.05231e-11
1.3415e-11
1.25198e-11
9.27969e-12
8.83205e-12
6.4162e-12
3.80851e-12
1.08002e-12
-1.12976e-12
1.88294e-12
2.62901e-12
6.11067e-13
-2.0961e-12
3.9293e-12
6.48015e-12
7.65965e-12
5.81224e-12
4.75353e-12
4.62563e-12
5.18696e-12
4.1922e-12
2.42295e-12
1.69109e-12
4.44089e-12
5.37881e-12
2.53664e-12
2.40163e-12
1.29319e-12
2.79954e-12
6.35936e-12
4.82459e-12
1.28608e-12
5.11591e-13
7.74492e-13
-1.42819e-12
2.04636e-12
6.23146e-12
6.57252e-12
7.00595e-12
8.88178e-12
9.52838e-12
6.84963e-12
6.99885e-12
1.05658e-11
1.05729e-11
4.49063e-12
2.49401e-12
3.09797e-12
3.30402e-12
2.68585e-12
2.97007e-12
-5.68434e-13
-2.00373e-12
-4.9809e-12
-3.31113e-12
-6.89226e-13
-1.77636e-13
-3.48166e-13
-8.00782e-12
-1.39622e-11
-1.27187e-11
-1.07363e-11
-6.807e-12
-2.64322e-12
3.20455e-12
4.718e-12
3.74456e-12
3.23297e-12
3.13349e-12
2.78533e-12
-2.27374e-13
-4.05009e-13
4.583e-12
7.83729e-12
8.5052e-12
1.24913e-11
1.11555e-11
1.40901e-11
1.31664e-11
1.05871e-11
1.4154e-11
1.70033e-11
1.82183e-11
1.50919e-11
1.28679e-11
1.23919e-11
1.20863e-11
1.058e-11
9.9547e-12
9.54259e-12
9.57812e-12
6.49436e-12
5.17275e-12
1.61293e-12
-1.11555e-12
-2.69296e-12
6.60805e-13
1.29319e-12
2.65743e-12
2.18137e-12
2.47269e-12
4.15668e-12
3.38929e-12
6.18172e-13
-9.52127e-13
2.98428e-12
4.20641e-12
7.40386e-12
9.37916e-12
8.61178e-12
5.47118e-12
-2.84217e-14
-1.55609e-12
-3.63087e-12
-3.76588e-12
-1.20082e-12
1.58451e-12
1.79767e-12
3.70903e-12
5.74829e-12
2.27374e-12
7.10543e-14
2.52243e-12
1.89004e-12
-1.76925e-12
-4.93117e-12
-1.33582e-12
6.82121e-13
-2.33058e-12
-1.16529e-12
-5.68434e-13
-2.89901e-12
-3.05533e-12
-3.68772e-12
-3.46745e-12
-5.03064e-12
-7.09122e-12
-4.22062e-12
-3.58824e-12
-1.42109e-13
3.5314e-12
2.91323e-12
4.55458e-12
5.20117e-12
4.89564e-12
5.33618e-12
8.52651e-13
-9.23706e-14
-2.92744e-12
-4.91696e-12
-2.83507e-12
-3.28981e-12
-2.97717e-12
-6.06803e-12
-7.2049e-12
-2.28795e-12
-1.5703e-12
-4.39826e-12
-3.21876e-12
-2.46558e-12
-3.38218e-12
-6.33804e-12
-8.02203e-12
-1.14326e-11
-9.26548e-12
-7.17648e-12
-6.03961e-13
-1.48503e-12
-3.55271e-12
-5.40012e-13
3.29692e-12
-5.7554e-13
-4.66116e-12
-7.69518e-12
-9.64206e-12
-1.28608e-11
-1.28608e-11
-1.38982e-11
-1.19869e-11
-7.80176e-12
-3.37508e-12
7.10543e-13
-1.54898e-12
-4.10694e-12
-2.96296e-12
-9.93339e-12
-1.28964e-11
-1.38272e-11
-1.0445e-11
-9.26548e-12
-1.27827e-11
-1.39693e-11
-1.19869e-11
-1.29248e-11
-1.05445e-11
-9.9476e-13
1.75078e-11
6.37357e-11
1.66708e-10
3.98927e-10
9.25183e-10
2.09386e-09
4.67526e-09
1.03312e-08
2.26109e-08
4.90326e-08
1.05358e-07
2.24295e-07
4.73053e-07
9.88287e-07
2.04488e-06
4.18981e-06
8.49942e-06
1.70677e-05
3.39211e-05
6.67099e-05
0.000129791
0.000249767
0.000475298
0.000894185
0.00166267
0.00305479
0.00554398
0.0099355
0.0175765
0.0306824
0.0528296
0.0896809
0.150016
0.247138
0.400705
0.638942
1.00107
1.53944
2.32053
3.42303
4.93008
6.90936
9.36972
12.2803
15.629
19.3982
23.5579
28.0717
32.899
37.9979
43.3282
48.852
54.5352
60.3477
66.2631
72.2585
78.3142
84.4136
90.5423
96.6879
102.84
108.99
115.129
121.252
127.353
133.426
139.468
145.475
151.443
157.371
163.254
169.093
174.884
180.626
186.318
191.959
197.547
203.082
208.563
213.989
219.359
224.674
229.932
235.133
240.278
245.365
250.395
255.368
260.283
265.14
269.939
274.68
279.364
283.99
288.558
293.069
297.522
301.918
306.256
310.537
314.762
318.929
323.04
327.095
331.093
335.035
338.922
342.752
346.528
350.248
353.914
357.525
361.082
364.585
368.034
371.429
374.772
378.061
381.298
384.483
387.615
390.696
393.726
396.705
399.633
402.51
405.337
408.115
410.843
413.522
416.153
418.735
421.268
423.754
426.193
428.584
430.929
433.227
435.48
437.686
439.847
441.963
444.034
446.061
448.044
449.983
451.878
453.731
455.541
457.309
459.034
460.718
462.361
463.962
465.523
467.044
468.524
469.963
471.365
472.729
474.052
475.335
476.582
477.794
478.966
480.097
481.196
482.261
483.285
484.267
485.224
486.158
487.041
487.862
488.666
489.491
490.278
490.949
491.555
492.236
492.971
493.566
493.982
494.479
495.167
495.729
495.914
496.172
496.976
497.822
497.772
497.185
497.972
499.729
500.662
498.631
497.842
500.594
503.725
499.589
499.679
500.294
502.513
501.695
499.134
498.911
500.023
501.533
500.291
498.641
498.317
499.845
500.497
499.559
498.377
497.94
499.764
499.77
499.479
498.317
497.676
499.71
499.552
499.011
498.142
498.157
499.606
499.325
499.078
498.261
498.182
499.386
499.377
498.88
498.153
498.283
499.226
499.052
498.75
498.1
498.261
499.086
498.967
498.687
498.124
498.285
498.974
498.93
498.591
498.163
498.325
498.871
498.925
498.397
498.098
498.421
498.833
498.831
498.249
498.06
498.453
498.801
498.617
498.082
498.056
498.382
498.622
498.438
497.98
497.866
498.306
498.487
498.068
497.754
497.827
498.185
498.213
497.819
497.662
497.653
497.975
498.026
497.517
497.369
497.449
497.804
497.64
496.953
496.759
497.079
497.727
497.438
496.508
496.248
496.391
497.333
497.428
496.184
495.551
495.51
496.472
496.449
495.509
494.246
493.437
493.903
493.314
491.434
487.913
484.271
479.919
473.97
465.048
452.187
437.383
420.687
402.511
382.338
361.458
342.813
328.268
319.69
314.502
311.621
309.751
309.273
309.967
310.15
309.774
309.093
309.175
310.077
310.546
310.654
309.872
309.764
310.563
311.027
310.96
310.078
309.928
310.527
311.013
311.021
310.225
310.036
310.501
311.009
311.059
310.36
310.139
310.513
311.031
311.052
310.477
310.245
310.463
310.991
311.06
310.534
310.297
310.484
310.979
311.026
310.602
310.361
310.484
310.946
311.023
310.631
310.393
310.495
310.909
310.968
310.642
310.418
310.464
310.836
310.924
310.607
310.395
310.454
310.749
310.826
310.536
310.351
310.356
310.593
310.717
310.385
310.201
310.249
310.331
310.497
310.228
309.833
309.856
309.957
310.174
310.009
309.131
309.139
309.272
309.575
309.63
308.019
307.803
307.979
308.395
308.904
306.647
304.707
304.647
304.695
304.89
304.048
296.836
291.464
289.167
283.995
269.641
239.151
177.892
38.0024
7.37115
1.10609
0.162616
0.023847
0.0034902
0.000511173
7.48743e-05
1.0966e-05
1.606e-06
2.35189e-07
3.44403e-08
5.04193e-09
7.37082e-10
1.0659e-10
1.43934e-11
9.21485e-13
-1.63514e-12
-1.4464e-12
-1.11111e-12
-1.53877e-12
-1.62181e-12
-1.17817e-12
-8.73523e-13
-1.20792e-13
4.01013e-13
1.18483e-12
1.17861e-12
7.69163e-13
5.83533e-13
8.53539e-13
1.03118e-12
1.42197e-12
1.59339e-12
1.1724e-12
8.08686e-13
-2.91323e-13
-2.34923e-13
1.43885e-13
-3.02869e-13
-6.78124e-13
-1.62537e-13
7.39853e-13
1.53522e-12
9.21485e-13
9.05942e-14
3.33067e-14
2.22045e-13
3.32179e-13
3.81029e-13
-2.22933e-13
7.56728e-13
7.25198e-13
-7.24754e-13
-7.17648e-13
-2.39808e-14
1.14575e-13
6.65246e-13
1.05072e-12
5.68434e-13
2.74447e-13
6.20393e-13
4.05009e-13
-1.39888e-13
9.85878e-14
6.43485e-13
3.78808e-13
6.71463e-13
1.1271e-12
7.72715e-13
9.29923e-13
1.95932e-12
2.33769e-12
1.28075e-12
-5.32907e-15
-6.68798e-13
-9.97424e-13
-1.73905e-12
-1.54143e-12
-1.50591e-12
-1.51346e-12
-1.85718e-12
-1.66089e-12
-1.59428e-12
-1.54676e-12
-1.62448e-12
-1.06271e-12
-6.51923e-13
1.15019e-13
-1.25233e-13
-7.30083e-13
-1.78924e-12
-1.61471e-12
-7.11875e-13
-2.77112e-13
-5.25802e-13
-6.19504e-13
-5.79092e-13
-1.27409e-12
-1.07736e-12
-1.19327e-12
-1.10045e-12
-6.74127e-13
-4.17888e-13
9.99201e-14
-2.13163e-13
-3.41949e-13
-6.00853e-13
-1.04983e-12
-1.15463e-12
-8.99725e-13
-1.40421e-12
-1.37712e-12
-7.49178e-13
-7.05214e-13
-9.36584e-13
-7.86038e-13
-3.40616e-13
2.81108e-13
-3.9968e-15
-6.56364e-13
-1.52989e-12
-1.80211e-12
-1.49214e-12
-1.60183e-12
-9.25926e-13
-4.60076e-13
-2.47802e-13
-4.7562e-13
-1.08802e-13
2.66454e-13
1.03695e-12
1.5854e-12
1.49658e-12
1.43618e-12
1.30118e-12
1.32427e-12
9.8499e-13
5.90195e-13
3.81029e-13
5.07594e-13
2.6823e-13
-1.78524e-13
-5.96856e-13
-9.23261e-13
-1.21947e-12
-1.00675e-12
-7.5584e-13
-1.88072e-12
-1.67377e-12
-6.0707e-13
-2.12275e-13
-3.89022e-13
-6.14175e-13
4.04121e-14
4.83169e-13
2.74447e-13
2.94431e-13
7.76268e-13
1.0596e-12
1.12133e-12
5.39124e-13
7.90479e-14
9.67226e-13
3.25073e-13
-2.12719e-13
-7.62057e-13
-1.81188e-13
1.70974e-13
-8.10463e-13
-3.05977e-13
2.62013e-13
3.59712e-13
6.8523e-13
1.19282e-12
1.23546e-12
1.21769e-12
8.9706e-13
1.33404e-12
1.10845e-12
2.89546e-13
-6.88338e-14
-3.09974e-13
-2.81553e-13
-2.56684e-13
3.5616e-13
2.46914e-13
-4.20552e-13
-1.42553e-13
5.77316e-14
3.62377e-13
1.33182e-12
1.4353e-12
9.41469e-13
1.17284e-12
1.40155e-12
2.02993e-12
2.35278e-12
2.37765e-12
2.34879e-12
2.24532e-12
1.95044e-12
2.4345e-12
3.02425e-12
3.01181e-12
2.40963e-12
2.25242e-12
1.88205e-12
1.70708e-12
1.09601e-12
8.90843e-13
9.39249e-13
7.50067e-13
7.25198e-13
6.0707e-13
1.28075e-12
1.90914e-12
1.74261e-12
9.48575e-13
9.47686e-13
1.87406e-13
2.0961e-13
6.11955e-13
1.11777e-12
1.65823e-12
1.0858e-12
4.4631e-13
7.28306e-13
1.69686e-12
4.88498e-13
7.37188e-14
2.40696e-13
8.44658e-13
1.71729e-12
1.1493e-12
9.95204e-13
1.4837e-12
1.70264e-12
2.04281e-12
2.34301e-12
1.54987e-12
1.34692e-12
1.41132e-12
8.57092e-13
9.52127e-13
4.99156e-13
8.35776e-13
7.50511e-13
1.07203e-12
2.07789e-12
2.18003e-12
1.90692e-12
1.45217e-12
1.82432e-12
2.14584e-12
2.36255e-12
2.25686e-12
2.1636e-12
1.84563e-12
1.44862e-12
1.75504e-12
2.2089e-12
2.49534e-12
2.52154e-12
3.04512e-12
3.10685e-12
2.83551e-12
2.71161e-12
2.76312e-12
2.99361e-12
2.63878e-12
3.12816e-12
2.92477e-12
3.30225e-12
3.47145e-12
3.06422e-12
)
;

boundaryField
{
    sides
    {
        type            calculated;
        value           nonuniform List<scalar> 2(3.0821e-12 1.00641e-11);
    }
    empty
    {
        type            empty;
    }
}


// ************************************************************************* //
