/*--------------------------------*- C++ -*----------------------------------*\
  =========                 |
  \\      /  F ield         | OpenFOAM: The Open Source CFD Toolbox
   \\    /   O peration     | Website:  https://openfoam.org
    \\  /    A nd           | Version:  13
     \\/     M anipulation  |
\*---------------------------------------------------------------------------*/
FoamFile
{
    format      ascii;
    class       volScalarField;
    location    "0.004";
    object      rho;
}
// * * * * * * * * * * * * * * * * * * * * * * * * * * * * * * * * * * * * * //

dimensions      [1 -3 0 0 0 0 0];

internalField   nonuniform List<scalar> 
1000
(
0.997575
0.997575
0.997575
0.997575
0.997575
0.997575
0.997575
0.997575
0.997575
0.997575
0.997575
0.997575
0.997575
0.997575
0.997575
0.997575
0.997575
0.997575
0.997575
0.997575
0.997575
0.997575
0.997575
0.997575
0.997575
0.997575
0.997575
0.997575
0.997575
0.997575
0.997575
0.997575
0.997575
0.997575
0.997575
0.997575
0.997575
0.997575
0.997575
0.997575
0.997575
0.997575
0.997575
0.997575
0.997575
0.997575
0.997575
0.997575
0.997575
0.997575
0.997575
0.997575
0.997575
0.997575
0.997575
0.997575
0.997575
0.997575
0.997575
0.997575
0.997575
0.997575
0.997575
0.997575
0.997575
0.997575
0.997575
0.997575
0.997575
0.997575
0.997575
0.997575
0.997575
0.997575
0.997575
0.997575
0.997575
0.997575
0.997575
0.997575
0.997575
0.997575
0.997575
0.997575
0.997575
0.997575
0.997575
0.997575
0.997575
0.997575
0.997575
0.997575
0.997575
0.997575
0.997575
0.997575
0.997575
0.997575
0.997575
0.997575
0.997575
0.997575
0.997575
0.997575
0.997575
0.997575
0.997575
0.997575
0.997575
0.997575
0.997575
0.997575
0.997575
0.997575
0.997575
0.997575
0.997575
0.997575
0.997575
0.997575
0.997575
0.997575
0.997575
0.997575
0.997575
0.997575
0.997575
0.997575
0.997575
0.997575
0.997575
0.997575
0.997575
0.997575
0.997575
0.997575
0.997575
0.997575
0.997575
0.997575
0.997575
0.997575
0.997575
0.997575
0.997575
0.997575
0.997575
0.997575
0.997575
0.997575
0.997575
0.997575
0.997575
0.997575
0.997575
0.997575
0.997575
0.997575
0.997575
0.997575
0.997575
0.997575
0.997575
0.997575
0.997575
0.997575
0.997575
0.997575
0.997575
0.997575
0.997575
0.997575
0.997575
0.997575
0.997575
0.997575
0.997575
0.997575
0.997575
0.997575
0.997575
0.997575
0.997575
0.997575
0.997575
0.997575
0.997575
0.997575
0.997575
0.997575
0.997575
0.997575
0.997575
0.997575
0.997575
0.997575
0.997575
0.997575
0.997575
0.997575
0.997575
0.997575
0.997575
0.997575
0.997575
0.997575
0.997575
0.997575
0.997575
0.997575
0.997575
0.997575
0.997575
0.997575
0.997575
0.997575
0.997575
0.997575
0.997575
0.997575
0.997575
0.997575
0.997575
0.997575
0.997575
0.997575
0.997575
0.997575
0.997575
0.997575
0.997575
0.997575
0.997575
0.997575
0.997575
0.997575
0.997575
0.997575
0.997575
0.997575
0.997575
0.997575
0.997575
0.997575
0.997575
0.997575
0.997575
0.997575
0.997575
0.997575
0.997575
0.997575
0.997575
0.997575
0.997575
0.997575
0.997575
0.997575
0.997575
0.997575
0.997575
0.997575
0.997575
0.997575
0.997575
0.997575
0.997575
0.997575
0.997575
0.997575
0.997575
0.997575
0.997575
0.997575
0.997575
0.997575
0.997575
0.997575
0.997575
0.997575
0.997575
0.997575
0.997575
0.997575
0.997575
0.997575
0.997575
0.997575
0.997575
0.997575
0.997575
0.997575
0.997575
0.997575
0.997575
0.997575
0.997575
0.997575
0.997575
0.997575
0.997575
0.997575
0.997575
0.997575
0.997575
0.997575
0.997575
0.997575
0.997575
0.997575
0.997575
0.997575
0.997575
0.997575
0.997575
0.997575
0.997575
0.997575
0.997575
0.997575
0.997574
0.997574
0.997574
0.997574
0.997574
0.997573
0.997572
0.99757
0.997566
0.997559
0.997548
0.997529
0.997498
0.997448
0.997368
0.997241
0.997047
0.996755
0.996325
0.995708
0.99485
0.993698
0.992222
0.990433
0.988342
0.985954
0.983284
0.980351
0.977178
0.973791
0.970216
0.966476
0.962595
0.958593
0.954487
0.950294
0.946027
0.941697
0.937314
0.932888
0.928426
0.923933
0.919415
0.914878
0.910325
0.905759
0.901185
0.896604
0.892019
0.887431
0.882844
0.878258
0.873676
0.869097
0.864524
0.859957
0.855398
0.850847
0.846305
0.841773
0.837251
0.83274
0.82824
0.823753
0.819277
0.814815
0.810365
0.805929
0.801507
0.797098
0.792705
0.788325
0.783961
0.779611
0.775277
0.770958
0.766655
0.762367
0.758096
0.75384
0.749601
0.745378
0.741172
0.736982
0.732809
0.728652
0.724513
0.72039
0.716284
0.712196
0.708125
0.704071
0.700034
0.696015
0.692013
0.688029
0.684062
0.680113
0.676182
0.672268
0.668372
0.664494
0.660633
0.65679
0.652966
0.649159
0.64537
0.641599
0.637846
0.634111
0.630394
0.626695
0.623014
0.619352
0.615707
0.612081
0.608473
0.604883
0.601311
0.597758
0.594223
0.590706
0.587208
0.583729
0.580267
0.576825
0.573401
0.569996
0.566609
0.563241
0.559892
0.556563
0.553252
0.549961
0.546688
0.543436
0.540203
0.536989
0.533796
0.530622
0.52747
0.524337
0.521224
0.518134
0.515065
0.512016
0.50899
0.505986
0.503006
0.500047
0.497111
0.494202
0.49132
0.488456
0.485614
0.482808
0.480038
0.477288
0.474548
0.471841
0.469191
0.466578
0.463963
0.461363
0.458837
0.456373
0.453892
0.451387
0.448984
0.446718
0.444422
0.441937
0.439515
0.437436
0.435476
0.433177
0.430442
0.428354
0.426602
0.425191
0.423275
0.423207
0.423365
0.423415
0.422738
0.422565
0.422535
0.422773
0.422839
0.422496
0.422334
0.422407
0.422736
0.422772
0.42262
0.422516
0.422692
0.423045
0.423045
0.422979
0.422949
0.423216
0.423466
0.423504
0.423484
0.423394
0.423632
0.423909
0.423916
0.423893
0.423866
0.4241
0.424208
0.424233
0.424179
0.424093
0.424241
0.424376
0.424361
0.424271
0.424234
0.424391
0.424504
0.424498
0.424405
0.424382
0.424526
0.424597
0.424582
0.424476
0.424463
0.424585
0.424617
0.424588
0.424508
0.42449
0.424578
0.424603
0.424546
0.424471
0.42446
0.424528
0.424549
0.424471
0.424371
0.424375
0.424455
0.42444
0.424318
0.424267
0.424265
0.424299
0.42427
0.424183
0.42412
0.424134
0.424175
0.424133
0.424036
0.424013
0.424047
0.424031
0.423945
0.423848
0.423792
0.423813
0.423798
0.423677
0.423506
0.423453
0.423526
0.423562
0.423426
0.423209
0.423151
0.423238
0.423252
0.423096
0.42284
0.42262
0.422559
0.42253
0.422273
0.421755
0.421301
0.420805
0.420189
0.419076
0.417233
0.414575
0.411008
0.406216
0.399451
0.390464
0.379085
0.365601
0.350304
0.33363
0.316362
0.299766
0.285688
0.275558
0.26956
0.266375
0.264733
0.264007
0.263824
0.263862
0.263856
0.263744
0.263734
0.263893
0.264177
0.264358
0.264386
0.264354
0.264424
0.264597
0.26465
0.26457
0.264456
0.264485
0.264637
0.26468
0.264616
0.26451
0.264525
0.264661
0.264708
0.264664
0.264566
0.264568
0.264679
0.264736
0.264699
0.264593
0.264588
0.264685
0.264732
0.264703
0.264615
0.264602
0.264682
0.264739
0.264719
0.264633
0.264622
0.264694
0.264739
0.264723
0.264645
0.264627
0.26468
0.26473
0.264715
0.264639
0.264625
0.264669
0.264707
0.264696
0.264628
0.264608
0.264635
0.264678
0.264663
0.264585
0.264574
0.264589
0.264616
0.264602
0.264526
0.264502
0.264501
0.264514
0.264506
0.264398
0.264352
0.264338
0.264339
0.264344
0.264198
0.264072
0.264043
0.264035
0.264049
0.263863
0.263586
0.263508
0.263473
0.263478
0.263306
0.262656
0.262295
0.262044
0.261739
0.261339
0.260135
0.257974
0.256066
0.25363
0.24915
0.24045
0.221477
0.170404
0.133818
0.126262
0.124931
0.124731
0.124702
0.124697
0.124697
0.124697
0.124697
0.124697
0.124697
0.124697
0.124697
0.124697
0.124697
0.124697
0.124697
0.124697
0.124697
0.124697
0.124697
0.124697
0.124697
0.124697
0.124697
0.124697
0.124697
0.124697
0.124697
0.124697
0.124697
0.124697
0.124697
0.124697
0.124697
0.124697
0.124697
0.124697
0.124697
0.124697
0.124697
0.124697
0.124697
0.124697
0.124697
0.124697
0.124697
0.124697
0.124697
0.124697
0.124697
0.124697
0.124697
0.124697
0.124697
0.124697
0.124697
0.124697
0.124697
0.124697
0.124697
0.124697
0.124697
0.124697
0.124697
0.124697
0.124697
0.124697
0.124697
0.124697
0.124697
0.124697
0.124697
0.124697
0.124697
0.124697
0.124697
0.124697
0.124697
0.124697
0.124697
0.124697
0.124697
0.124697
0.124697
0.124697
0.124697
0.124697
0.124697
0.124697
0.124697
0.124697
0.124697
0.124697
0.124697
0.124697
0.124697
0.124697
0.124697
0.124697
0.124697
0.124697
0.124697
0.124697
0.124697
0.124697
0.124697
0.124697
0.124697
0.124697
0.124697
0.124697
0.124697
0.124697
0.124697
0.124697
0.124697
0.124697
0.124697
0.124697
0.124697
0.124697
0.124697
0.124697
0.124697
0.124697
0.124697
0.124697
0.124697
0.124697
0.124697
0.124697
0.124697
0.124697
0.124697
0.124697
0.124697
0.124697
0.124697
0.124697
0.124697
0.124697
0.124697
0.124697
0.124697
0.124697
0.124697
0.124697
0.124697
0.124697
0.124697
0.124697
0.124697
0.124697
0.124697
0.124697
0.124697
0.124697
0.124697
0.124697
0.124697
0.124697
0.124697
0.124697
0.124697
0.124697
0.124697
0.124697
0.124697
0.124697
0.124697
0.124697
0.124697
0.124697
0.124697
0.124697
0.124697
0.124697
0.124697
0.124697
0.124697
0.124697
0.124697
0.124697
0.124697
0.124697
0.124697
0.124697
0.124697
0.124697
0.124697
0.124697
0.124697
0.124697
0.124697
0.124697
0.124697
0.124697
0.124697
0.124697
0.124697
0.124697
0.124697
0.124697
0.124697
0.124697
0.124697
0.124697
0.124697
0.124697
0.124697
0.124697
0.124697
0.124697
0.124697
0.124697
0.124697
0.124697
0.124697
0.124697
0.124697
0.124697
0.124697
0.124697
0.124697
0.124697
0.124697
0.124697
0.124697
0.124697
0.124697
0.124697
0.124697
0.124697
0.124697
0.124697
0.124697
0.124697
0.124697
0.124697
0.124697
0.124697
0.124697
0.124697
0.124697
0.124697
0.124697
0.124697
0.124697
0.124697
0.124697
0.124697
0.124697
0.124697
0.124697
0.124697
0.124697
0.124697
0.124697
0.124697
0.124697
0.124697
0.124697
0.124697
0.124697
0.124697
0.124697
0.124697
0.124697
0.124697
0.124697
0.124697
0.124697
0.124697
0.124697
0.124697
)
;

boundaryField
{
    sides
    {
        type            calculated;
        value           nonuniform List<scalar> 2(0.124697 0.997575);
    }
    empty
    {
        type            empty;
    }
}


// ************************************************************************* //
