/*--------------------------------*- C++ -*----------------------------------*\
  =========                 |
  \\      /  F ield         | OpenFOAM: The Open Source CFD Toolbox
   \\    /   O peration     | Website:  https://openfoam.org
    \\  /    A nd           | Version:  13
     \\/     M anipulation  |
\*---------------------------------------------------------------------------*/
FoamFile
{
    format      ascii;
    class       volScalarField;
    location    "0.004";
    object      T;
}
// * * * * * * * * * * * * * * * * * * * * * * * * * * * * * * * * * * * * * //

dimensions      [0 0 0 1 0 0 0];

internalField   nonuniform List<scalar> 
1000
(
348.432
348.432
348.432
348.432
348.432
348.432
348.432
348.432
348.432
348.432
348.432
348.432
348.432
348.432
348.432
348.432
348.432
348.432
348.432
348.432
348.432
348.432
348.432
348.432
348.432
348.432
348.432
348.432
348.432
348.432
348.432
348.432
348.432
348.432
348.432
348.432
348.432
348.432
348.432
348.432
348.432
348.432
348.432
348.432
348.432
348.432
348.432
348.432
348.432
348.432
348.432
348.432
348.432
348.432
348.432
348.432
348.432
348.432
348.432
348.432
348.432
348.432
348.432
348.432
348.432
348.432
348.432
348.432
348.432
348.432
348.432
348.432
348.432
348.432
348.432
348.432
348.432
348.432
348.432
348.432
348.432
348.432
348.432
348.432
348.432
348.432
348.432
348.432
348.432
348.432
348.432
348.432
348.432
348.432
348.432
348.432
348.432
348.432
348.432
348.432
348.432
348.432
348.432
348.432
348.432
348.432
348.432
348.432
348.432
348.432
348.432
348.432
348.432
348.432
348.432
348.432
348.432
348.432
348.432
348.432
348.432
348.432
348.432
348.432
348.432
348.432
348.432
348.432
348.432
348.432
348.432
348.432
348.432
348.432
348.432
348.432
348.432
348.432
348.432
348.432
348.432
348.432
348.432
348.432
348.432
348.432
348.432
348.432
348.432
348.432
348.432
348.432
348.432
348.432
348.432
348.432
348.432
348.432
348.432
348.432
348.432
348.432
348.432
348.432
348.432
348.432
348.432
348.432
348.432
348.432
348.432
348.432
348.432
348.432
348.432
348.432
348.432
348.432
348.432
348.432
348.432
348.432
348.432
348.432
348.432
348.432
348.432
348.432
348.432
348.432
348.432
348.432
348.432
348.432
348.432
348.432
348.432
348.432
348.432
348.432
348.432
348.432
348.432
348.432
348.432
348.432
348.432
348.432
348.432
348.432
348.432
348.432
348.432
348.432
348.432
348.432
348.432
348.432
348.432
348.432
348.432
348.432
348.432
348.432
348.432
348.432
348.432
348.432
348.432
348.432
348.432
348.432
348.432
348.432
348.432
348.432
348.432
348.432
348.432
348.432
348.432
348.432
348.432
348.432
348.432
348.432
348.432
348.432
348.432
348.432
348.432
348.432
348.432
348.432
348.432
348.432
348.432
348.432
348.432
348.432
348.432
348.432
348.432
348.432
348.432
348.432
348.432
348.432
348.432
348.432
348.432
348.432
348.432
348.432
348.432
348.432
348.432
348.432
348.432
348.432
348.432
348.432
348.432
348.432
348.432
348.432
348.432
348.432
348.432
348.432
348.432
348.432
348.432
348.432
348.432
348.432
348.432
348.432
348.432
348.432
348.432
348.432
348.432
348.432
348.432
348.432
348.432
348.432
348.432
348.432
348.432
348.432
348.432
348.432
348.432
348.432
348.432
348.432
348.432
348.432
348.432
348.432
348.432
348.432
348.432
348.432
348.432
348.431
348.431
348.43
348.428
348.426
348.421
348.414
348.403
348.385
348.358
348.317
348.257
348.17
348.05
347.888
347.681
347.43
347.135
346.799
346.422
346.007
345.558
345.077
344.569
344.036
343.482
342.909
342.319
341.716
341.1
340.474
339.838
339.194
338.543
337.885
337.222
336.554
335.882
335.206
334.527
333.844
333.159
332.471
331.781
331.09
330.396
329.701
329.005
328.307
327.609
326.909
326.209
325.507
324.805
324.103
323.4
322.696
321.993
321.288
320.584
319.879
319.175
318.47
317.765
317.06
316.355
315.65
314.946
314.241
313.537
312.833
312.129
311.425
310.722
310.019
309.316
308.614
307.912
307.21
306.509
305.809
305.108
304.409
303.71
303.011
302.314
301.616
300.92
300.224
299.528
298.833
298.139
297.446
296.753
296.062
295.371
294.68
293.991
293.302
292.614
291.927
291.241
290.556
289.871
289.188
288.505
287.824
287.143
286.464
285.785
285.108
284.431
283.756
283.081
282.408
281.736
281.065
280.395
279.727
279.06
278.394
277.729
277.066
276.404
275.743
275.084
274.427
273.771
273.116
272.464
271.812
271.163
270.515
269.87
269.226
268.584
267.945
267.307
266.672
266.039
265.409
264.781
264.156
263.533
262.914
262.299
261.686
261.075
260.47
259.871
259.274
258.678
258.086
257.505
256.932
256.356
255.78
255.219
254.673
254.121
253.559
253.017
252.51
251.997
251.434
250.876
250.402
249.966
249.454
248.81
248.315
247.951
247.735
247.307
247.326
247.39
247.422
247.273
247.227
247.225
247.294
247.331
247.256
247.221
247.24
247.338
247.361
247.334
247.315
247.359
247.475
247.486
247.48
247.477
247.54
247.624
247.648
247.65
247.63
247.681
247.747
247.738
247.717
247.695
247.739
247.774
247.795
247.797
247.794
247.843
247.9
247.905
247.894
247.886
247.926
247.961
247.961
247.943
247.938
247.976
248.003
248.006
247.988
247.989
248.026
248.044
248.047
248.034
248.037
248.068
248.086
248.084
248.075
248.082
248.112
248.133
248.127
248.117
248.13
248.17
248.184
248.176
248.181
248.201
248.232
248.249
248.245
248.248
248.267
248.297
248.302
248.297
248.309
248.341
248.366
248.381
248.391
248.422
248.476
248.525
248.546
248.555
248.584
248.647
248.703
248.707
248.702
248.731
248.809
248.881
248.927
248.954
249.023
249.152
249.325
249.471
249.601
249.821
250.165
250.699
251.418
252.416
253.89
256.107
259.336
263.785
269.788
277.691
287.894
300.615
315.791
332.955
351.087
368.345
382.09
390.892
395.564
397.759
398.722
399.164
399.355
399.382
399.271
399.112
398.987
398.862
398.634
398.371
398.197
398.153
398.211
398.22
398.16
398.063
398.062
398.145
398.164
398.121
398.03
398.021
398.089
398.108
398.074
397.99
397.976
398.035
398.069
398.049
397.975
397.967
398.024
398.057
398.044
397.98
397.964
398.005
398.039
398.026
397.962
397.948
397.984
398.015
398.008
397.955
397.941
397.969
398.004
397.997
397.945
397.932
397.953
397.978
397.973
397.926
397.909
397.923
397.95
397.943
397.889
397.877
397.881
397.896
397.889
397.834
397.813
397.81
397.814
397.81
397.738
397.699
397.685
397.68
397.682
397.594
397.497
397.476
397.467
397.476
397.377
397.177
397.121
397.093
397.089
397.005
396.569
396.295
396.114
395.888
395.602
394.841
393.294
391.874
390.145
387.02
381.134
368.733
328.646
287.462
280.165
278.956
278.777
278.751
278.747
278.746
278.746
278.746
278.746
278.746
278.746
278.746
278.746
278.746
278.746
278.746
278.746
278.746
278.746
278.746
278.746
278.746
278.746
278.746
278.746
278.746
278.746
278.746
278.746
278.746
278.746
278.746
278.746
278.746
278.746
278.746
278.746
278.746
278.746
278.746
278.746
278.746
278.746
278.746
278.746
278.746
278.746
278.746
278.746
278.746
278.746
278.746
278.746
278.746
278.746
278.746
278.746
278.746
278.746
278.746
278.746
278.746
278.746
278.746
278.746
278.746
278.746
278.746
278.746
278.746
278.746
278.746
278.746
278.746
278.746
278.746
278.746
278.746
278.746
278.746
278.746
278.746
278.746
278.746
278.746
278.746
278.746
278.746
278.746
278.746
278.746
278.746
278.746
278.746
278.746
278.746
278.746
278.746
278.746
278.746
278.746
278.746
278.746
278.746
278.746
278.746
278.746
278.746
278.746
278.746
278.746
278.746
278.746
278.746
278.746
278.746
278.746
278.746
278.746
278.746
278.746
278.746
278.746
278.746
278.746
278.746
278.746
278.746
278.746
278.746
278.746
278.746
278.746
278.746
278.746
278.746
278.746
278.746
278.746
278.746
278.746
278.746
278.746
278.746
278.746
278.746
278.746
278.746
278.746
278.746
278.746
278.746
278.746
278.746
278.746
278.746
278.746
278.746
278.746
278.746
278.746
278.746
278.746
278.746
278.746
278.746
278.746
278.746
278.746
278.746
278.746
278.746
278.746
278.746
278.746
278.746
278.746
278.746
278.746
278.746
278.746
278.746
278.746
278.746
278.746
278.746
278.746
278.746
278.746
278.746
278.746
278.746
278.746
278.746
278.746
278.746
278.746
278.746
278.746
278.746
278.746
278.746
278.746
278.746
278.746
278.746
278.746
278.746
278.746
278.746
278.746
278.746
278.746
278.746
278.746
278.746
278.746
278.746
278.746
278.746
278.746
278.746
278.746
278.746
278.746
278.746
278.746
278.746
278.746
278.746
278.746
278.746
278.746
278.746
278.746
278.746
278.746
278.746
278.746
278.746
278.746
278.746
278.746
278.746
278.746
278.746
278.746
278.746
278.746
278.746
278.746
278.746
278.746
278.746
278.746
278.746
278.746
278.746
278.746
278.746
278.746
278.746
278.746
278.746
278.746
278.746
278.746
278.746
278.746
278.746
278.746
278.746
278.746
278.746
278.746
)
;

boundaryField
{
    sides
    {
        type            zeroGradient;
    }
    empty
    {
        type            empty;
    }
}


// ************************************************************************* //
