/*--------------------------------*- C++ -*----------------------------------*\
  =========                 |
  \\      /  F ield         | OpenFOAM: The Open Source CFD Toolbox
   \\    /   O peration     | Website:  https://openfoam.org
    \\  /    A nd           | Version:  13
     \\/     M anipulation  |
\*---------------------------------------------------------------------------*/
FoamFile
{
    format      ascii;
    class       volVectorField;
    location    "0.004";
    object      U;
}
// * * * * * * * * * * * * * * * * * * * * * * * * * * * * * * * * * * * * * //

dimensions      [0 1 -1 0 0 0 0];

internalField   nonuniform List<vector> 
1000
(
(-2.53673e-12 0 0)
(-6.92897e-13 0 0)
(-7.07484e-13 0 0)
(-2.15892e-13 0 0)
(1.838e-13 0 0)
(-7.90631e-13 0 0)
(1.95178e-12 0 0)
(7.16236e-13 0 0)
(2.13412e-12 0 0)
(5.83492e-14 0 0)
(1.29389e-12 0 0)
(1.16698e-14 0 0)
(1.75048e-14 0 0)
(-1.2443e-12 0 0)
(-9.40881e-13 0 0)
(-1.29973e-12 0 0)
(-1.31286e-13 0 0)
(-6.37465e-13 0 0)
(-1.18741e-12 0 0)
(1.06196e-12 0 0)
(2.04514e-12 0 0)
(1.96053e-12 0 0)
(1.85405e-12 0 0)
(1.1276e-12 0 0)
(1.45435e-12 0 0)
(7.0019e-13 0 0)
(5.83492e-14 0 0)
(2.77159e-14 0 0)
(-7.29365e-15 0 0)
(2.58341e-12 0 0)
(3.20921e-13 0 0)
(1.21512e-12 0 0)
(-1.03278e-12 0 0)
(1.57105e-12 0 0)
(-1.22533e-13 0 0)
(2.81827e-12 0 0)
(1.6119e-12 0 0)
(9.0733e-13 0 0)
(5.86409e-13 0 0)
(1.01965e-12 0 0)
(2.66948e-13 0 0)
(8.08136e-13 0 0)
(1.25159e-12 0 0)
(1.14073e-12 0 0)
(-4.08444e-14 0 0)
(2.47546e-12 0 0)
(-1.91094e-13 0 0)
(2.71324e-13 0 0)
(1.28806e-12 0 0)
(-1.37266e-12 0 0)
(-6.89979e-13 0 0)
(-1.21075e-13 0 0)
(9.20458e-13 0 0)
(2.00429e-12 0 0)
(1.64545e-12 0 0)
(-2.27562e-13 0 0)
(2.18809e-13 0 0)
(7.74585e-13 0 0)
(1.9722e-12 0 0)
(-1.23992e-12 0 0)
(6.56428e-14 0 0)
(-1.83071e-12 0 0)
(-7.86255e-13 0 0)
(-7.07484e-13 0 0)
(5.71822e-13 0 0)
(-1.13781e-13 0 0)
(1.62357e-12 0 0)
(-3.23838e-13 0 0)
(8.13971e-13 0 0)
(-5.10555e-14 0 0)
(-3.57389e-13 0 0)
(1.25159e-12 0 0)
(2.08598e-13 0 0)
(1.71984e-12 0 0)
(4.18655e-13 0 0)
(1.11447e-12 0 0)
(2.78617e-13 0 0)
(5.83492e-15 0 0)
(-1.30702e-12 0 0)
(1.57251e-12 0 0)
(8.00843e-13 0 0)
(1.67754e-13 0 0)
(1.13052e-12 0 0)
(1.39017e-12 0 0)
(-4.94509e-13 0 0)
(1.53458e-12 0 0)
(3.18003e-13 0 0)
(1.36099e-12 0 0)
(1.02257e-12 0 0)
(1.83216e-12 0 0)
(-2.31938e-13 0 0)
(3.19316e-12 0 0)
(-1.1203e-12 0 0)
(1.16844e-12 0 0)
(2.36898e-12 0 0)
(2.7993e-12 0 0)
(3.10709e-12 0 0)
(2.35585e-12 0 0)
(1.88176e-12 0 0)
(9.61303e-13 0 0)
(2.37044e-12 0 0)
(3.21942e-12 0 0)
(2.01451e-12 0 0)
(2.19685e-12 0 0)
(1.71547e-12 0 0)
(3.42656e-12 0 0)
(3.62203e-12 0 0)
(2.47546e-12 0 0)
(2.05827e-12 0 0)
(2.49589e-12 0 0)
(7.61457e-13 0 0)
(1.13927e-12 0 0)
(-6.5497e-13 0 0)
(1.64836e-13 0 0)
(6.8852e-13 0 0)
(7.73127e-13 0 0)
(-5.54317e-13 0 0)
(-2.69865e-13 0 0)
(1.8803e-12 0 0)
(1.78111e-12 0 0)
(1.838e-12 0 0)
(9.30669e-13 0 0)
(1.32307e-12 0 0)
(1.21366e-12 0 0)
(1.42664e-12 0 0)
(4.98886e-13 0 0)
(8.1543e-13 0 0)
(8.75238e-14 0 0)
(2.08307e-12 0 0)
(4.95968e-13 0 0)
(8.0376e-13 0 0)
(4.63876e-13 0 0)
(2.01305e-13 0 0)
(1.2618e-12 0 0)
(1.7709e-12 0 0)
(8.02301e-13 0 0)
(-2.72782e-13 0 0)
(6.02455e-13 0 0)
(-2.65489e-13 0 0)
(-4.20114e-13 0 0)
(1.40184e-12 0 0)
(1.71838e-12 0 0)
(1.48061e-12 0 0)
(2.12829e-12 0 0)
(2.52798e-12 0 0)
(2.25665e-12 0 0)
(1.01965e-12 0 0)
(2.66948e-12 0 0)
(2.54694e-12 0 0)
(2.37773e-12 0 0)
(1.51708e-13 0 0)
(9.55468e-13 0 0)
(7.95008e-13 0 0)
(6.28712e-13 0 0)
(8.75238e-13 0 0)
(4.78463e-13 0 0)
(-7.03108e-13 0 0)
(-4.60959e-13 0 0)
(-1.72859e-12 0 0)
(-1.99846e-13 0 0)
(-4.66793e-14 0 0)
(-3.50095e-14 0 0)
(-1.9547e-13 0 0)
(-3.49074e-12 0 0)
(-3.60744e-12 0 0)
(-2.88099e-12 0 0)
(-2.27708e-12 0 0)
(-1.10134e-12 0 0)
(-9.04412e-14 0 0)
(1.51854e-12 0 0)
(9.80266e-13 0 0)
(7.99384e-13 0 0)
(7.61457e-13 0 0)
(8.97119e-13 0 0)
(4.31784e-13 0 0)
(-5.70363e-13 0 0)
(4.21573e-13 0 0)
(1.83946e-12 0 0)
(1.91677e-12 0 0)
(2.74387e-12 0 0)
(2.91454e-12 0 0)
(3.12752e-12 0 0)
(3.69642e-12 0 0)
(2.81681e-12 0 0)
(2.60675e-12 0 0)
(4.26387e-12 0 0)
(4.71316e-12 0 0)
(4.21427e-12 0 0)
(3.21066e-12 0 0)
(3.04291e-12 0 0)
(3.38863e-12 0 0)
(2.63592e-12 0 0)
(2.85619e-12 0 0)
(2.03201e-12 0 0)
(2.71907e-12 0 0)
(1.838e-12 0 0)
(1.68192e-12 0 0)
(6.18501e-13 0 0)
(3.88022e-13 0 0)
(-1.11009e-12 0 0)
(-2.47984e-14 0 0)
(3.04874e-13 0 0)
(2.66948e-13 0 0)
(9.83184e-13 0 0)
(1.98387e-13 0 0)
(1.19616e-12 0 0)
(9.80266e-13 0 0)
(5.52859e-13 0 0)
(-2.84452e-13 0 0)
(-9.91936e-14 0 0)
(1.52e-12 0 0)
(5.44106e-13 0 0)
(2.95247e-12 0 0)
(1.93573e-12 0 0)
(2.22019e-12 0 0)
(8.1543e-13 0 0)
(-8.7232e-13 0 0)
(-1.06503e-25 0 0)
(-1.43685e-12 0 0)
(-8.48981e-13 0 0)
(3.9094e-13 0 0)
(4.31784e-13 0 0)
(4.06986e-13 0 0)
(1.48499e-12 0 0)
(1.34495e-12 0 0)
(-1.63378e-13 0 0)
(1.99846e-13 0 0)
(9.02954e-13 0 0)
(2.77159e-13 0 0)
(-1.36683e-12 0 0)
(-9.21917e-13 0 0)
(2.62571e-13 0 0)
(-1.16698e-14 0 0)
(-9.49633e-13 0 0)
(2.80076e-13 0 0)
(-6.37465e-13 0 0)
(-7.10401e-13 0 0)
(-7.77503e-13 0 0)
(-1.01528e-12 0 0)
(-8.8399e-13 0 0)
(-1.49082e-12 0 0)
(-1.88322e-12 0 0)
(-5.07638e-13 0 0)
(-1.23554e-12 0 0)
(1.20637e-12 0 0)
(3.16544e-13 0 0)
(1.33328e-12 0 0)
(9.90477e-13 0 0)
(1.27055e-12 0 0)
(1.49374e-12 0 0)
(9.68596e-13 0 0)
(-4.30325e-13 0 0)
(3.41343e-13 0 0)
(-1.70671e-12 0 0)
(-6.66639e-13 0 0)
(-6.69557e-13 0 0)
(-8.63568e-13 0 0)
(-8.25641e-13 0 0)
(-2.18955e-12 0 0)
(-1.16844e-12 0 0)
(1.54625e-13 0 0)
(-1.11301e-12 0 0)
(-8.19806e-13 0 0)
(-9.61303e-13 0 0)
(-2.757e-13 0 0)
(-1.35224e-12 0 0)
(-1.81904e-12 0 0)
(-2.44191e-12 0 0)
(-2.74825e-12 0 0)
(-2.50318e-12 0 0)
(-6.433e-13 0 0)
(2.37773e-13 0 0)
(-8.28558e-13 0 0)
(-1.00798e-12 0 0)
(8.09595e-13 0 0)
(5.84951e-13 0 0)
(-9.02954e-13 0 0)
(-1.21075e-12 0 0)
(-2.51631e-12 0 0)
(-2.63592e-12 0 0)
(-3.40613e-12 0 0)
(-3.45573e-12 0 0)
(-3.32153e-12 0 0)
(-2.3471e-12 0 0)
(-1.80153e-12 0 0)
(2.93205e-13 0 0)
(-2.04222e-14 0 0)
(-7.74585e-13 0 0)
(-1.1203e-12 0 0)
(-5.38271e-13 0 0)
(-4.13842e-12 0 0)
(-2.56882e-12 0 0)
(-4.18801e-12 0 0)
(-1.19616e-12 0 0)
(-3.55492e-12 0 0)
(-2.97581e-12 0 0)
(-3.70663e-12 0 0)
(-2.30771e-12 0 0)
(-3.94732e-12 0 0)
(-1.16407e-12 0 0)
(9.04412e-13 0 0)
(8.48105e-12 0 0)
(2.56357e-11 0 0)
(6.29486e-11 0 0)
(1.49159e-10 0 0)
(3.40864e-10 0 0)
(7.67651e-10 0 0)
(1.70438e-09 0 0)
(3.7533e-09 0 0)
(8.17974e-09 0 0)
(1.76722e-08 0 0)
(3.78205e-08 0 0)
(8.01984e-08 0 0)
(1.6846e-07 0 0)
(3.50497e-07 0 0)
(7.22176e-07 0 0)
(1.47336e-06 0 0)
(2.97577e-06 0 0)
(5.94897e-06 0 0)
(1.17693e-05 0 0)
(2.30375e-05 0 0)
(4.46072e-05 0 0)
(8.54207e-05 0 0)
(0.000161735 0 0)
(0.000302703 0 0)
(0.000559867 0 0)
(0.00102301 0 0)
(0.00184617 0 0)
(0.00328937 0 0)
(0.00578418 0 0)
(0.0100344 0 0)
(0.0171659 0 0)
(0.0289441 0 0)
(0.0480766 0 0)
(0.0786176 0 0)
(0.126475 0 0)
(0.199998 0 0)
(0.31056 0 0)
(0.472965 0 0)
(0.705351 0 0)
(1.02796 0 0)
(1.45948 0 0)
(2.01005 0 0)
(2.67932 0 0)
(3.46418 0 0)
(4.36228 0 0)
(5.36939 0 0)
(6.47893 0 0)
(7.68282 0 0)
(8.97219 0 0)
(10.338 0 0)
(11.7716 0 0)
(13.2648 0 0)
(14.8104 0 0)
(16.4018 0 0)
(18.0334 0 0)
(19.7003 0 0)
(21.3981 0 0)
(23.1233 0 0)
(24.8728 0 0)
(26.6437 0 0)
(28.4337 0 0)
(30.241 0 0)
(32.0636 0 0)
(33.9002 0 0)
(35.7493 0 0)
(37.6099 0 0)
(39.4808 0 0)
(41.3614 0 0)
(43.2507 0 0)
(45.148 0 0)
(47.0528 0 0)
(48.9645 0 0)
(50.8826 0 0)
(52.8067 0 0)
(54.7363 0 0)
(56.6711 0 0)
(58.6107 0 0)
(60.555 0 0)
(62.5035 0 0)
(64.4561 0 0)
(66.4124 0 0)
(68.3724 0 0)
(70.3358 0 0)
(72.3024 0 0)
(74.272 0 0)
(76.2445 0 0)
(78.2198 0 0)
(80.1976 0 0)
(82.178 0 0)
(84.1606 0 0)
(86.1455 0 0)
(88.1325 0 0)
(90.1215 0 0)
(92.1124 0 0)
(94.1051 0 0)
(96.0996 0 0)
(98.0956 0 0)
(100.093 0 0)
(102.092 0 0)
(104.093 0 0)
(106.094 0 0)
(108.097 0 0)
(110.102 0 0)
(112.107 0 0)
(114.113 0 0)
(116.12 0 0)
(118.128 0 0)
(120.137 0 0)
(122.147 0 0)
(124.158 0 0)
(126.169 0 0)
(128.18 0 0)
(130.193 0 0)
(132.205 0 0)
(134.219 0 0)
(136.232 0 0)
(138.246 0 0)
(140.26 0 0)
(142.275 0 0)
(144.289 0 0)
(146.304 0 0)
(148.319 0 0)
(150.334 0 0)
(152.349 0 0)
(154.364 0 0)
(156.378 0 0)
(158.393 0 0)
(160.407 0 0)
(162.421 0 0)
(164.435 0 0)
(166.448 0 0)
(168.461 0 0)
(170.474 0 0)
(172.486 0 0)
(174.497 0 0)
(176.508 0 0)
(178.518 0 0)
(180.528 0 0)
(182.536 0 0)
(184.544 0 0)
(186.55 0 0)
(188.556 0 0)
(190.56 0 0)
(192.564 0 0)
(194.566 0 0)
(196.567 0 0)
(198.566 0 0)
(200.564 0 0)
(202.56 0 0)
(204.554 0 0)
(206.547 0 0)
(208.537 0 0)
(210.526 0 0)
(212.512 0 0)
(214.496 0 0)
(216.478 0 0)
(218.456 0 0)
(220.432 0 0)
(222.405 0 0)
(224.375 0 0)
(226.341 0 0)
(228.304 0 0)
(230.262 0 0)
(232.217 0 0)
(234.167 0 0)
(236.112 0 0)
(238.052 0 0)
(239.987 0 0)
(241.916 0 0)
(243.838 0 0)
(245.754 0 0)
(247.663 0 0)
(249.564 0 0)
(251.455 0 0)
(253.338 0 0)
(255.214 0 0)
(257.08 0 0)
(258.931 0 0)
(260.769 0 0)
(262.599 0 0)
(264.419 0 0)
(266.221 0 0)
(268.003 0 0)
(269.773 0 0)
(271.533 0 0)
(273.272 0 0)
(274.981 0 0)
(276.678 0 0)
(278.378 0 0)
(280.056 0 0)
(281.68 0 0)
(283.274 0 0)
(284.897 0 0)
(286.541 0 0)
(288.112 0 0)
(289.566 0 0)
(291.039 0 0)
(292.575 0 0)
(293.615 0 0)
(294.011 0 0)
(294.313 0 0)
(294.648 0 0)
(294.919 0 0)
(295.073 0 0)
(295.194 0 0)
(295.371 0 0)
(295.569 0 0)
(295.719 0 0)
(295.783 0 0)
(295.833 0 0)
(295.916 0 0)
(296.017 0 0)
(296.067 0 0)
(296.048 0 0)
(296.008 0 0)
(295.987 0 0)
(295.971 0 0)
(295.907 0 0)
(295.793 0 0)
(295.655 0 0)
(295.566 0 0)
(295.501 0 0)
(295.391 0 0)
(295.256 0 0)
(295.127 0 0)
(295.031 0 0)
(294.947 0 0)
(294.846 0 0)
(294.729 0 0)
(294.621 0 0)
(294.556 0 0)
(294.512 0 0)
(294.444 0 0)
(294.363 0 0)
(294.294 0 0)
(294.255 0 0)
(294.222 0 0)
(294.173 0 0)
(294.108 0 0)
(294.05 0 0)
(294.017 0 0)
(293.991 0 0)
(293.948 0 0)
(293.894 0 0)
(293.846 0 0)
(293.823 0 0)
(293.807 0 0)
(293.775 0 0)
(293.733 0 0)
(293.697 0 0)
(293.685 0 0)
(293.678 0 0)
(293.653 0 0)
(293.619 0 0)
(293.598 0 0)
(293.596 0 0)
(293.594 0 0)
(293.575 0 0)
(293.549 0 0)
(293.539 0 0)
(293.545 0 0)
(293.545 0 0)
(293.53 0 0)
(293.514 0 0)
(293.511 0 0)
(293.52 0 0)
(293.525 0 0)
(293.513 0 0)
(293.5 0 0)
(293.503 0 0)
(293.516 0 0)
(293.516 0 0)
(293.504 0 0)
(293.497 0 0)
(293.502 0 0)
(293.51 0 0)
(293.509 0 0)
(293.499 0 0)
(293.494 0 0)
(293.5 0 0)
(293.511 0 0)
(293.508 0 0)
(293.497 0 0)
(293.494 0 0)
(293.502 0 0)
(293.51 0 0)
(293.501 0 0)
(293.484 0 0)
(293.481 0 0)
(293.499 0 0)
(293.51 0 0)
(293.498 0 0)
(293.476 0 0)
(293.465 0 0)
(293.486 0 0)
(293.514 0 0)
(293.505 0 0)
(293.472 0 0)
(293.457 0 0)
(293.474 0 0)
(293.507 0 0)
(293.518 0 0)
(293.498 0 0)
(293.48 0 0)
(293.507 0 0)
(293.568 0 0)
(293.616 0 0)
(293.636 0 0)
(293.652 0 0)
(293.698 0 0)
(293.781 0 0)
(293.868 0 0)
(293.904 0 0)
(293.896 0 0)
(293.882 0 0)
(293.873 0 0)
(293.826 0 0)
(293.695 0 0)
(293.483 0 0)
(293.265 0 0)
(293.151 0 0)
(293.15 0 0)
(293.185 0 0)
(293.202 0 0)
(293.224 0 0)
(293.301 0 0)
(293.397 0 0)
(293.435 0 0)
(293.399 0 0)
(293.356 0 0)
(293.371 0 0)
(293.425 0 0)
(293.457 0 0)
(293.425 0 0)
(293.368 0 0)
(293.371 0 0)
(293.428 0 0)
(293.462 0 0)
(293.432 0 0)
(293.38 0 0)
(293.379 0 0)
(293.431 0 0)
(293.47 0 0)
(293.447 0 0)
(293.398 0 0)
(293.39 0 0)
(293.434 0 0)
(293.472 0 0)
(293.454 0 0)
(293.408 0 0)
(293.398 0 0)
(293.438 0 0)
(293.474 0 0)
(293.464 0 0)
(293.427 0 0)
(293.413 0 0)
(293.446 0 0)
(293.482 0 0)
(293.473 0 0)
(293.434 0 0)
(293.417 0 0)
(293.442 0 0)
(293.469 0 0)
(293.461 0 0)
(293.425 0 0)
(293.404 0 0)
(293.423 0 0)
(293.449 0 0)
(293.441 0 0)
(293.405 0 0)
(293.384 0 0)
(293.396 0 0)
(293.414 0 0)
(293.404 0 0)
(293.367 0 0)
(293.339 0 0)
(293.342 0 0)
(293.352 0 0)
(293.336 0 0)
(293.295 0 0)
(293.262 0 0)
(293.255 0 0)
(293.252 0 0)
(293.229 0 0)
(293.181 0 0)
(293.136 0 0)
(293.113 0 0)
(293.097 0 0)
(293.058 0 0)
(292.994 0 0)
(292.934 0 0)
(292.887 0 0)
(292.842 0 0)
(292.782 0 0)
(292.685 0 0)
(292.58 0 0)
(292.492 0 0)
(292.41 0 0)
(292.315 0 0)
(292.164 0 0)
(291.986 0 0)
(291.83 0 0)
(291.689 0 0)
(291.535 0 0)
(291.295 0 0)
(290.981 0 0)
(290.69 0 0)
(290.422 0 0)
(290.137 0 0)
(289.715 0 0)
(289.063 0 0)
(288.301 0 0)
(287.475 0 0)
(286.46 0 0)
(285.086 0 0)
(282.964 0 0)
(279.802 0 0)
(275.543 0 0)
(269.536 0 0)
(259.909 0 0)
(242.335 0 0)
(204.065 0 0)
(119.848 0 0)
(29.6896 0 0)
(4.61833 0 0)
(0.69465 0 0)
(0.102242 0 0)
(0.0149631 0 0)
(0.00219169 0 0)
(0.000321029 0 0)
(4.70179e-05 0 0)
(6.88606e-06 0 0)
(1.00843e-06 0 0)
(1.47677e-07 0 0)
(2.16212e-08 0 0)
(3.16403e-09 0 0)
(4.59906e-10 0 0)
(6.48187e-11 0 0)
(6.4899e-12 0 0)
(-1.53604e-12 0 0)
(-4.08007e-12 0 0)
(-2.04368e-12 0 0)
(-2.46088e-12 0 0)
(-4.03923e-12 0 0)
(-1.85697e-12 0 0)
(-3.26318e-12 0 0)
(-5.25143e-14 0 0)
(-5.57236e-13 0 0)
(2.34856e-12 0 0)
(2.20414e-12 0 0)
(2.76867e-12 0 0)
(2.21727e-13 0 0)
(2.02326e-12 0 0)
(1.67754e-12 0 0)
(2.07578e-12 0 0)
(3.98234e-12 0 0)
(2.18664e-12 0 0)
(3.00207e-12 0 0)
(-1.22533e-13 0 0)
(-1.15677e-12 0 0)
(4.15739e-13 0 0)
(8.60652e-14 0 0)
(-1.23263e-12 0 0)
(-1.44852e-12 0 0)
(6.11209e-13 0 0)
(2.83432e-12 0 0)
(2.60384e-12 0 0)
(1.44706e-12 0 0)
(-9.93396e-13 0 0)
(1.21366e-12 0 0)
(-5.41189e-13 0 0)
(2.04514e-12 0 0)
(-6.25796e-13 0 0)
(-3.71977e-13 0 0)
(3.41343e-12 0 0)
(-5.77658e-13 0 0)
(-2.26979e-12 0 0)
(-1.66295e-13 0 0)
(-5.25143e-14 0 0)
(7.04567e-13 0 0)
(1.67462e-12 0 0)
(2.30042e-12 0 0)
(2.78618e-13 0 0)
(6.91439e-13 0 0)
(1.87301e-12 0 0)
(-5.28061e-13 0 0)
(9.48176e-14 0 0)
(4.12821e-13 0 0)
(1.93136e-12 0 0)
(-3.86564e-13 0 0)
(3.25589e-12 0 0)
(8.59193e-13 0 0)
(2.50756e-12 0 0)
(1.52583e-12 0 0)
(6.05228e-12 0 0)
(3.18441e-12 0 0)
(1.47478e-12 0 0)
(-1.40913e-12 0 0)
(-1.57689e-12 0 0)
(-2.86349e-12 0 0)
(-3.4995e-12 0 0)
(-2.96852e-12 0 0)
(-2.71178e-12 0 0)
(-3.91524e-12 0 0)
(-3.02541e-12 0 0)
(-3.86126e-12 0 0)
(-2.78326e-12 0 0)
(-3.21359e-12 0 0)
(-3.04875e-12 0 0)
(-1.54771e-12 0 0)
(-7.36659e-13 0 0)
(1.04299e-12 0 0)
(-1.32745e-12 0 0)
(-2.20998e-12 0 0)
(-4.39662e-12 0 0)
(-1.48207e-12 0 0)
(-1.75485e-12 0 0)
(5.7474e-13 0 0)
(-2.40253e-12 0 0)
(-3.93858e-14 0 0)
(-2.58196e-12 0 0)
(-2.19247e-12 0 0)
(-2.35731e-12 0 0)
(-2.31792e-12 0 0)
(-1.99263e-12 0 0)
(-7.83339e-13 0 0)
(-7.39577e-13 0 0)
(1.05466e-12 0 0)
(-1.81029e-12 0 0)
(3.07792e-13 0 0)
(-2.47547e-12 0 0)
(-2.14579e-12 0 0)
(-1.93136e-12 0 0)
(-2.25958e-12 0 0)
(-2.74387e-12 0 0)
(-2.63009e-12 0 0)
(-6.36007e-13 0 0)
(-2.37919e-12 0 0)
(-1.27347e-12 0 0)
(-1.70817e-12 0 0)
(4.65335e-13 0 0)
(3.96775e-13 0 0)
(-3.04875e-13 0 0)
(-2.76138e-12 0 0)
(-3.61911e-12 0 0)
(-3.2661e-12 0 0)
(-2.97144e-12 0 0)
(-3.16691e-12 0 0)
(-6.54971e-13 0 0)
(-9.49634e-13 0 0)
(-3.12169e-13 0 0)
(-1.22388e-12 0 0)
(7.43953e-13 0 0)
(1.0357e-13 0 0)
(3.98525e-12 0 0)
(2.49589e-12 0 0)
(3.87002e-12 0 0)
(1.64545e-12 0 0)
(3.47178e-12 0 0)
(1.98533e-12 0 0)
(1.57397e-12 0 0)
(8.86909e-13 0 0)
(8.94203e-13 0 0)
(9.35047e-13 0 0)
(1.9547e-13 0 0)
(-8.59193e-13 0 0)
(-1.70526e-12 0 0)
(-1.77674e-12 0 0)
(-3.13044e-12 0 0)
(-5.70364e-13 0 0)
(-2.91017e-12 0 0)
(-4.14134e-12 0 0)
(-2.33835e-12 0 0)
(2.47984e-14 0 0)
(-7.99385e-13 0 0)
(-1.11593e-12 0 0)
(-9.29212e-13 0 0)
(1.01674e-12 0 0)
(7.68752e-13 0 0)
(5.32437e-13 0 0)
(5.0618e-13 0 0)
(2.84599e-12 0 0)
(1.30556e-12 0 0)
(3.07792e-12 0 0)
(-1.28514e-12 0 0)
(1.76944e-12 0 0)
(1.5448e-12 0 0)
(1.02111e-14 0 0)
(-9.42341e-13 0 0)
(-1.93865e-12 0 0)
(1.39455e-12 0 0)
(-9.7735e-13 0 0)
(-1.68775e-12 0 0)
(2.8737e-13 0 0)
(4.93051e-13 0 0)
(1.23555e-12 0 0)
(1.76798e-12 0 0)
(2.80952e-12 0 0)
(2.06265e-12 0 0)
(2.98165e-12 0 0)
(5.16391e-13 0 0)
(4.62856e-12 0 0)
(4.66794e-14 0 0)
(1.02403e-12 0 0)
(-1.25451e-12 0 0)
(-1.29827e-13 0 0)
(-8.12514e-13 0 0)
(-4.09904e-13 0 0)
(1.92553e-12 0 0)
(-7.59999e-13 0 0)
(-9.23377e-13 0 0)
(1.70672e-13 0 0)
(2.34856e-13 0 0)
(7.97926e-13 0 0)
(5.05451e-12 0 0)
(1.23409e-12 0 0)
(1.95762e-12 0 0)
(3.25005e-12 0 0)
(2.56299e-12 0 0)
(5.20913e-12 0 0)
(3.96629e-12 0 0)
(5.41189e-12 0 0)
(4.49873e-12 0 0)
(4.32222e-12 0 0)
(3.80145e-12 0 0)
(5.81596e-12 0 0)
(6.05665e-12 0 0)
(5.65988e-12 0 0)
(4.63001e-12 0 0)
(3.88314e-12 0 0)
(3.54326e-12 0 0)
(3.16982e-12 0 0)
(1.49958e-12 0 0)
(2.16622e-12 0 0)
(1.37996e-12 0 0)
(1.7957e-12 0 0)
(9.99231e-13 0 0)
(1.6965e-12 0 0)
(2.92767e-12 0 0)
(5.08514e-12 0 0)
(1.84967e-12 0 0)
(2.12975e-12 0 0)
(1.14365e-12 0 0)
(-1.64837e-13 0 0)
(1.04883e-12 0 0)
(1.29973e-12 0 0)
(3.26464e-12 0 0)
(3.10564e-12 0 0)
(1.42372e-12 0 0)
(1.10864e-13 0 0)
(3.25151e-12 0 0)
(2.88245e-12 0 0)
(-6.28713e-13 0 0)
(8.40229e-13 0 0)
(2.6403e-13 0 0)
(2.92913e-12 0 0)
(3.53888e-12 0 0)
(1.39601e-12 0 0)
(2.76284e-12 0 0)
(2.94372e-12 0 0)
(4.0757e-12 0 0)
(4.51769e-12 0 0)
(4.34848e-12 0 0)
(1.87447e-12 0 0)
(3.97359e-12 0 0)
(1.32745e-12 0 0)
(2.28437e-12 0 0)
(1.40038e-12 0 0)
(7.43953e-13 0 0)
(2.34856e-12 0 0)
(9.68598e-13 0 0)
(3.02395e-12 0 0)
(4.97428e-12 0 0)
(4.2595e-12 0 0)
(2.99623e-12 0 0)
(3.17566e-12 0 0)
(4.13988e-12 0 0)
(4.11508e-12 0 0)
(5.14641e-12 0 0)
(4.24783e-12 0 0)
(4.2274e-12 0 0)
(3.25735e-12 0 0)
(2.7147e-12 0 0)
(4.39224e-12 0 0)
(4.20844e-12 0 0)
(5.38855e-12 0 0)
(5.41773e-12 0 0)
(6.68245e-12 0 0)
(5.28207e-12 0 0)
(6.34548e-12 0 0)
(4.6869e-12 0 0)
(6.49719e-12 0 0)
(5.25435e-12 0 0)
(5.77804e-12 0 0)
(6.115e-12 0 0)
(6.1821e-12 0 0)
(6.99462e-12 0 0)
(6.40383e-12 0 0)
(6.18065e-12 0 0)
)
;

boundaryField
{
    sides
    {
        type            zeroGradient;
    }
    empty
    {
        type            empty;
    }
}


// ************************************************************************* //
