/*--------------------------------*- C++ -*----------------------------------*\
  =========                 |
  \\      /  F ield         | OpenFOAM: The Open Source CFD Toolbox
   \\    /   O peration     | Website:  https://openfoam.org
    \\  /    A nd           | Version:  13
     \\/     M anipulation  |
\*---------------------------------------------------------------------------*/
FoamFile
{
    format      ascii;
    class       surfaceScalarField;
    location    "0.001";
    object      phi;
}
// * * * * * * * * * * * * * * * * * * * * * * * * * * * * * * * * * * * * * //

dimensions      [1 0 -1 0 0 0 0];

internalField   nonuniform List<scalar> 
999
(
-1.20082e-12
-1.12976e-12
-7.10543e-15
1.37845e-12
1.19371e-12
1.72662e-12
-1.25766e-12
-2.21689e-12
-1.13687e-13
-3.41061e-13
5.96856e-13
2.41585e-12
2.38032e-12
2.20979e-12
1.08002e-12
-2.39453e-12
-1.76925e-12
-6.82121e-13
-1.39977e-12
-1.20792e-13
-1.00187e-12
-3.05533e-13
2.57216e-12
-9.66338e-13
-1.61293e-12
1.46372e-12
-4.61853e-13
-1.10845e-12
6.6791e-13
8.10019e-13
1.72662e-12
-1.25766e-12
-2.21689e-12
-1.13687e-13
-3.41061e-13
5.96856e-13
2.41585e-12
2.38032e-12
2.20979e-12
1.08002e-12
-2.39453e-12
-1.76925e-12
-6.82121e-13
-1.39977e-12
-1.20792e-13
-1.00187e-12
-3.05533e-13
2.57216e-12
-9.66338e-13
-1.61293e-12
1.46372e-12
-4.61853e-13
-1.10845e-12
6.6791e-13
8.10019e-13
1.72662e-12
-1.25766e-12
-2.21689e-12
-1.13687e-13
-3.41061e-13
5.96856e-13
2.41585e-12
2.38032e-12
2.20979e-12
1.08002e-12
-2.39453e-12
-1.76925e-12
-6.82121e-13
-1.39977e-12
-1.20792e-13
-1.00187e-12
-3.05533e-13
2.57216e-12
-9.66338e-13
-1.61293e-12
1.46372e-12
-4.61853e-13
-1.10845e-12
6.6791e-13
8.10019e-13
1.72662e-12
-1.25766e-12
-2.47979e-12
0
-1.86162e-12
-3.67351e-12
-2.29505e-12
-1.3145e-12
-2.04636e-12
-7.38964e-13
-2.52243e-12
8.31335e-13
3.78009e-12
3.02691e-12
4.80327e-12
7.30438e-12
7.76623e-12
7.37543e-12
5.22959e-12
3.93641e-12
3.11218e-12
1.06581e-13
4.9738e-14
1.56319e-13
-2.55795e-13
8.31335e-13
-2.50111e-12
-5.00933e-12
-4.48352e-12
-2.52953e-12
-2.67164e-12
-1.82609e-12
-7.10543e-13
-4.54747e-13
-4.90274e-13
1.53477e-12
-5.40012e-13
-1.37135e-12
2.11031e-12
5.44986e-12
1.67688e-12
2.72848e-12
4.60432e-12
3.58114e-12
2.34479e-13
-2.71427e-12
-2.95586e-12
-1.15108e-12
-7.10543e-15
-2.77112e-12
-3.71614e-12
-5.38591e-12
-5.08749e-12
-2.04636e-12
1.98952e-13
1.9682e-12
1.53477e-12
1.42819e-12
1.07292e-12
-4.90274e-13
1.53477e-12
-5.40012e-13
-1.37135e-12
2.11031e-12
5.44986e-12
1.67688e-12
2.72848e-12
4.60432e-12
3.58114e-12
2.34479e-13
-2.71427e-12
-2.95586e-12
-1.15108e-12
-7.10543e-15
-2.77112e-12
-3.71614e-12
-5.38591e-12
-5.08749e-12
-2.04636e-12
1.98952e-13
1.9682e-12
1.53477e-12
1.42819e-12
1.07292e-12
-4.90274e-13
1.53477e-12
-5.40012e-13
-1.37135e-12
2.11031e-12
5.44986e-12
1.68399e-12
2.77112e-12
4.76064e-12
4.65405e-12
-8.81073e-13
-3.76588e-12
-2.76401e-12
-2.06057e-12
-2.78533e-12
-2.87059e-12
-2.36611e-12
-5.17986e-12
-3.13349e-12
-1.32161e-12
2.18847e-12
3.08376e-12
-1.42109e-13
9.45022e-13
2.01794e-12
1.88294e-12
1.30029e-12
2.46558e-12
3.22586e-12
2.75691e-12
3.52429e-12
4.05009e-12
3.46034e-12
3.09086e-12
9.02389e-13
-2.20268e-12
-4.29878e-12
-4.44089e-12
-1.54188e-12
-6.89226e-13
-1.15108e-12
1.3074e-12
2.30216e-12
9.9476e-13
-2.00373e-12
-2.32347e-12
-2.90612e-12
-2.65032e-12
-3.1406e-12
-3.58114e-12
1.56319e-13
2.60769e-12
2.52953e-12
1.20082e-12
2.15294e-12
3.21165e-12
1.63425e-13
1.29319e-12
4.38405e-12
1.21503e-12
-7.88702e-13
-3.09086e-12
-2.58638e-12
7.88702e-13
2.00373e-12
1.61293e-12
-2.06057e-13
6.53699e-13
9.23706e-13
1.81188e-12
-1.71951e-12
-1.64135e-12
-1.20792e-12
-2.42295e-12
-7.74492e-13
-2.49401e-12
-5.96856e-13
-1.29319e-12
-2.77112e-12
-2.86349e-12
-1.78346e-12
6.46594e-13
3.15481e-12
2.30216e-12
2.06057e-12
1.59162e-12
-1.10845e-12
2.84217e-14
1.26477e-12
-1.41398e-12
-1.37845e-12
-3.97904e-13
5.40012e-13
-1.80478e-12
-3.33955e-12
-1.74083e-12
1.02318e-12
1.88294e-12
2.17426e-12
9.09495e-13
-7.10543e-13
-2.20268e-13
9.80549e-13
1.71241e-12
7.31859e-13
-1.84741e-13
-2.02505e-12
-3.76588e-13
2.29505e-12
1.71241e-12
5.2367e-12
9.30811e-13
-7.17648e-13
-1.59872e-12
-1.73372e-12
-2.63611e-12
-3.84404e-12
-1.03739e-12
-2.03926e-12
-2.06057e-12
-1.24345e-12
7.17648e-13
1.98241e-12
2.3519e-12
4.76064e-13
-7.10543e-15
5.8975e-13
-8.52651e-14
-2.52953e-12
-2.76401e-12
-7.38964e-13
-1.0516e-12
2.00373e-12
4.67537e-12
2.16716e-12
1.02318e-12
-2.42295e-12
7.31859e-13
-1.08002e-12
-2.76401e-12
-1.54188e-12
-7.10543e-15
1.41398e-12
2.80664e-12
-7.10543e-14
-1.91847e-12
-7.67386e-13
-2.67875e-12
-1.42819e-12
2.34479e-13
-1.10134e-12
-2.25242e-12
6.39488e-14
1.37135e-12
1.35714e-12
2.28084e-12
1.15818e-12
1.39977e-12
-1.99663e-12
-7.10543e-14
2.52953e-12
4.83169e-13
-3.10507e-12
-4.05009e-13
4.47642e-13
-7.31859e-13
7.67386e-13
1.41398e-12
2.16716e-12
-8.52651e-14
-3.72324e-12
-3.25429e-12
-3.55271e-14
-2.04636e-12
9.23706e-14
1.73372e-12
2.70006e-13
2.11031e-12
2.08189e-12
2.03926e-12
1.90425e-12
2.43006e-12
5.61329e-13
1.34293e-12
1.12266e-12
-1.81188e-12
-5.35039e-12
-4.54037e-12
-2.089e-12
-1.4424e-12
-2.18847e-12
-5.96856e-13
2.77112e-12
1.45661e-12
1.05871e-12
1.27187e-12
1.02318e-12
-1.42109e-13
-1.12266e-12
1.79057e-12
2.58638e-12
1.74794e-12
2.49401e-12
2.77112e-12
1.39266e-12
2.08189e-12
1.09424e-12
9.59233e-13
-2.11031e-12
-1.79057e-12
-6.25278e-13
-1.37845e-12
-4.12115e-13
8.2423e-13
2.79954e-12
1.06581e-12
-2.2311e-12
-3.76588e-13
2.07478e-12
-5.04485e-13
-1.63425e-13
1.66978e-12
2.57927e-12
5.32907e-13
-1.46372e-12
-2.85638e-12
-1.65556e-12
-8.95284e-13
-1.84741e-13
3.90799e-13
1.47082e-12
4.12115e-13
-4.9738e-13
-9.66338e-13
-4.59011e-12
-2.79243e-12
-2.04636e-12
-4.99512e-12
-3.38218e-12
-2.6219e-12
-1.32871e-12
0
0
0
0
0
0
0
0
0
0
0
0
8.2423e-13
6.03961e-13
-6.39488e-13
-7.74492e-13
0
1.61293e-12
1.81188e-12
-1.80478e-12
-2.15294e-12
4.76064e-13
8.66862e-13
2.089e-12
1.0175e-11
3.60245e-11
1.27848e-10
4.58961e-10
1.62326e-09
5.62822e-09
1.91309e-08
6.37692e-08
2.08351e-07
6.66918e-07
2.09019e-06
6.41024e-06
1.92251e-05
5.63472e-05
0.000161277
0.000450428
0.00122648
0.00325293
0.00839503
0.0210577
0.0512733
0.121014
0.276389
0.609648
1.29548
2.64328
5.15441
9.53385
16.4219
25.8051
37.7683
52.1392
68.5533
86.5413
105.628
125.386
145.461
165.57
185.5
205.087
224.212
242.785
260.742
278.038
294.641
310.531
325.695
340.129
353.832
366.808
379.064
390.608
401.454
411.613
421.102
429.934
438.126
445.696
452.661
459.039
464.848
470.108
474.836
479.052
482.772
486.016
488.801
491.146
493.074
494.609
495.777
496.603
497.121
497.368
497.395
497.162
496.926
496.7
496.493
496.313
496.162
496.034
495.921
495.799
495.597
495.246
494.74
494.705
495.035
495.139
495.178
495.052
494.47
492.825
489.119
481.892
469.584
450.842
425.455
394.918
363.026
337.242
321.432
313.898
310.346
308.843
308.314
308.2
308.188
308.243
308.392
308.762
309.152
309.296
309.164
308.273
307.343
307.031
306.441
304.105
301.073
298.647
294.508
286.259
274.195
255.264
209.354
64.0389
13.3642
2.05477
0.303872
0.0442411
0.00643051
0.000935218
0.000136028
1.97928e-05
2.88071e-06
4.19268e-07
6.101e-08
8.87493e-09
1.29047e-09
1.87646e-10
2.74403e-11
3.97948e-12
5.13367e-13
4.79616e-14
0
0
0
0
0
0
0
0
-2.9754e-13
-3.8769e-13
4.20997e-13
3.41949e-13
-7.10543e-14
0
0
0
0
7.4607e-14
-2.66009e-13
-4.7029e-13
1.78524e-13
2.24709e-13
-2.24709e-13
-1.71418e-13
5.40457e-13
2.62901e-13
-1.43885e-13
0
0
0
0
0
0
2.50466e-13
2.98428e-13
5.41789e-14
3.17968e-13
1.48326e-13
-3.98792e-13
-6.88338e-13
-8.82405e-13
-9.51683e-13
-7.64722e-13
-5.9508e-14
3.10418e-13
-2.39808e-13
-9.05942e-14
9.10383e-13
8.58424e-13
5.12479e-13
7.63833e-14
-1.34115e-13
2.10498e-13
2.52243e-13
0
0
0
0
0
-1.15019e-13
3.55271e-14
-3.93463e-13
-7.84262e-13
-2.36255e-13
2.84217e-14
4.09894e-13
6.58584e-13
6.78568e-13
3.10862e-13
-1.06137e-13
-2.95763e-13
-2.2693e-13
-4.80505e-13
1.40332e-13
4.30767e-13
4.34319e-13
1.17684e-13
-3.92575e-13
-1.25677e-13
1.5099e-13
3.4639e-14
-1.95843e-13
-8.12683e-14
-7.38076e-13
-3.86802e-13
5.69322e-13
2.30038e-13
-1.93179e-13
-6.03961e-13
-8.5798e-13
-1.51434e-13
3.42837e-13
2.37144e-13
4.98712e-13
6.12399e-13
7.82485e-13
5.05818e-13
4.71179e-13
2.10054e-13
-2.88658e-13
-7.69607e-13
9.81437e-14
-1.28786e-13
-4.27214e-13
2.46025e-13
-1.15463e-13
-3.24629e-13
-3.69038e-13
-6.36824e-13
-9.09495e-13
-7.71383e-13
-3.51275e-13
-5.59552e-14
-3.47278e-13
-6.6791e-13
-1.82521e-13
1.50102e-13
-3.17968e-13
-3.1708e-13
1.1724e-13
6.29718e-13
4.08118e-13
4.55636e-13
5.57776e-13
7.51843e-13
4.41425e-13
4.86722e-13
6.44818e-13
5.15143e-13
2.45581e-13
-2.70894e-14
-6.21725e-14
-6.03961e-14
2.02505e-13
-4.70735e-14
-1.33227e-15
4.41425e-13
3.90799e-14
-2.22045e-13
-1.74971e-13
-1.47438e-13
1.58984e-13
-4.88498e-14
-8.88178e-16
1.82521e-13
5.06262e-14
3.27294e-13
3.37508e-14
3.30846e-13
1.58096e-13
-1.33227e-14
-2.99316e-13
-2.54019e-13
-4.4853e-13
-3.73035e-14
1.52767e-13
-1.24345e-13
-1.4122e-13
1.24345e-13
-5.32907e-14
-1.33227e-15
4.41425e-13
3.90799e-14
-2.22045e-13
-1.74971e-13
-1.47438e-13
1.58984e-13
-4.88498e-14
-8.88178e-16
1.82521e-13
-1.86517e-13
1.86517e-13
1.64313e-13
4.44089e-16
-3.4639e-13
-8.88178e-16
2.35811e-13
-1.78524e-13
-3.00204e-13
2.22489e-13
1.9007e-13
-1.19016e-13
-1.42109e-13
1.24345e-13
-5.24025e-14
-3.71259e-13
8.88178e-16
-8.88178e-16
5.24025e-14
6.66134e-14
1.95399e-14
2.54907e-13
-4.92939e-14
-3.63709e-13
0
0
6.35048e-14
4.35207e-14
3.40172e-13
-6.21725e-14
-8.88178e-16
8.88178e-16
-3.66818e-13
0
0
9.23706e-14
8.61533e-14
-1.59872e-14
2.34479e-13
-2.44249e-14
-2.64233e-13
1.07914e-13
1.65201e-13
-3.9968e-14
-2.79776e-13
6.21725e-15
2.50466e-13
-4.88498e-14
-3.63709e-13
0
0
6.35048e-14
4.35207e-14
3.40172e-13
-6.21725e-14
-8.88178e-16
8.88178e-16
-3.66818e-13
0
0
9.23706e-14
8.61533e-14
-1.59872e-14
2.34479e-13
-2.44249e-14
-2.64233e-13
1.08802e-13
1.65201e-13
-8.74856e-14
2.4869e-14
8.88178e-16
-8.88178e-16
8.88178e-16
-3.63709e-13
0
1.5099e-14
1.33227e-15
2.00728e-13
2.90434e-13
-1.54543e-13
5.32907e-14
-5.81757e-14
-3.60156e-13
0
0
8.9706e-14
8.61533e-14
-1.59872e-14
2.34479e-13
-2.75335e-14
-3.51275e-13
2.22045e-14
3.57048e-13
-4.30767e-14
-8.88178e-16
8.88178e-16
-8.88178e-16
8.88178e-16
-3.63709e-13
0
1.5099e-14
1.33227e-15
2.00728e-13
2.90434e-13
-1.54543e-13
5.32907e-14
-5.81757e-14
-3.60156e-13
0
0
8.9706e-14
8.61533e-14
-1.59872e-14
2.34479e-13
-2.75335e-14
-3.51275e-13
2.22045e-14
3.57048e-13
-4.30767e-14
-8.88178e-16
8.88178e-16
-8.88178e-16
8.88178e-16
-3.63709e-13
0
1.5099e-14
1.33227e-15
2.00728e-13
2.90434e-13
-1.54543e-13
5.32907e-14
-5.81757e-14
-3.60156e-13
0
0
8.9706e-14
8.61533e-14
-1.59872e-14
2.34479e-13
-2.75335e-14
-3.51275e-13
2.22045e-14
3.57048e-13
-4.30767e-14
-8.88178e-16
8.88178e-16
-8.88178e-16
8.88178e-16
-3.63709e-13
1.33227e-15
6.57252e-14
5.06262e-13
3.62821e-13
1.46549e-14
6.07514e-13
5.27578e-13
7.77156e-14
-3.42837e-13
-2.9754e-13
-1.69642e-13
-5.59552e-13
-2.63789e-13
1.75859e-13
-5.32907e-14
-3.70814e-13
-5.66658e-13
-4.14335e-13
-1.74971e-13
-2.99316e-13
7.30083e-13
1.05427e-12
5.94191e-13
3.4861e-13
4.1922e-13
3.5083e-13
-2.98428e-13
-7.28306e-13
-4.81393e-13
-9.9476e-14
0
-1.54543e-13
-3.2685e-13
-2.18492e-13
-6.21725e-15
3.63709e-13
7.9492e-13
4.00568e-13
7.84262e-13
6.07514e-13
1.69642e-13
2.72227e-13
2.0961e-13
5.06262e-14
-3.73035e-14
7.59393e-13
1.35003e-13
-2.88658e-13
1.57652e-13
8.88178e-15
-2.2915e-13
-5.08038e-13
-8.46434e-13
-1.06848e-12
-4.49418e-13
-2.80664e-13
-3.98792e-13
-3.2685e-13
-2.18492e-13
-6.21725e-15
3.63709e-13
7.9492e-13
4.00568e-13
7.84262e-13
6.07514e-13
1.69642e-13
2.72227e-13
2.0961e-13
5.06262e-14
-3.73035e-14
7.59393e-13
1.35003e-13
-2.88658e-13
1.57652e-13
8.88178e-15
-2.2915e-13
-5.08038e-13
-8.46434e-13
-1.06848e-12
-4.49418e-13
-2.80664e-13
-3.98792e-13
-3.2685e-13
-2.18492e-13
-6.21725e-15
3.63709e-13
7.9492e-13
4.00568e-13
7.84262e-13
6.0929e-13
1.69642e-13
2.71783e-13
2.12275e-13
5.9508e-14
-9.23706e-14
8.35776e-13
4.44089e-13
1.5099e-14
2.79332e-13
7.99361e-15
-1.86517e-14
2.69118e-13
8.73079e-13
1.44196e-12
1.75238e-12
)
;

boundaryField
{
    sides
    {
        type            calculated;
        value           nonuniform List<scalar> 2(1.54832e-12 5.82077e-15);
    }
    empty
    {
        type            empty;
    }
}


// ************************************************************************* //
