/*--------------------------------*- C++ -*----------------------------------*\
  =========                 |
  \\      /  F ield         | OpenFOAM: The Open Source CFD Toolbox
   \\    /   O peration     | Website:  https://openfoam.org
    \\  /    A nd           | Version:  13
     \\/     M anipulation  |
\*---------------------------------------------------------------------------*/
FoamFile
{
    format      ascii;
    class       volVectorField;
    location    "0.001";
    object      U;
}
// * * * * * * * * * * * * * * * * * * * * * * * * * * * * * * * * * * * * * //

dimensions      [0 1 -1 0 0 0 0];

internalField   nonuniform List<vector> 
1000
(
(-1.45873e-15 0 0)
(-6.14125e-13 0 0)
(1.45873e-15 0 0)
(0 0 0)
(6.47676e-13 0 0)
(1.37376e-26 0 0)
(8.09595e-13 0 0)
(-1.45873e-12 0 0)
(2.82994e-13 0 0)
(-3.28214e-13 0 0)
(1.29827e-13 0 0)
(2.20268e-13 0 0)
(9.24835e-13 0 0)
(3.45719e-13 0 0)
(7.38117e-13 0 0)
(-1.47332e-13 0 0)
(-1.01673e-12 0 0)
(1.79424e-13 0 0)
(-5.49941e-13 0 0)
(-9.04412e-14 0 0)
(8.75238e-15 0 0)
(-5.68905e-13 0 0)
(4.50747e-13 0 0)
(7.4687e-13 0 0)
(-1.17574e-12 0 0)
(3.38425e-13 0 0)
(3.16544e-13 0 0)
(-5.0472e-13 0 0)
(-9.04412e-14 0 0)
(4.39078e-13 0 0)
(1.29235e-26 0 0)
(8.09595e-13 0 0)
(-1.45873e-12 0 0)
(2.82994e-13 0 0)
(-3.28214e-13 0 0)
(1.29827e-13 0 0)
(2.20268e-13 0 0)
(9.24835e-13 0 0)
(3.45719e-13 0 0)
(7.38117e-13 0 0)
(-1.47332e-13 0 0)
(-1.01673e-12 0 0)
(1.79424e-13 0 0)
(-5.49941e-13 0 0)
(-9.04412e-14 0 0)
(8.75238e-15 0 0)
(-5.68905e-13 0 0)
(4.50747e-13 0 0)
(7.4687e-13 0 0)
(-1.17574e-12 0 0)
(3.38425e-13 0 0)
(3.16544e-13 0 0)
(-5.0472e-13 0 0)
(-9.04412e-14 0 0)
(4.39078e-13 0 0)
(1.29235e-26 0 0)
(8.09595e-13 0 0)
(-1.45873e-12 0 0)
(2.82994e-13 0 0)
(-3.28214e-13 0 0)
(1.29827e-13 0 0)
(2.20268e-13 0 0)
(9.24835e-13 0 0)
(3.45719e-13 0 0)
(7.38117e-13 0 0)
(-1.47332e-13 0 0)
(-1.01673e-12 0 0)
(1.79424e-13 0 0)
(-5.49941e-13 0 0)
(-9.04412e-14 0 0)
(8.75238e-15 0 0)
(-5.68905e-13 0 0)
(4.50747e-13 0 0)
(7.4687e-13 0 0)
(-1.17574e-12 0 0)
(3.38425e-13 0 0)
(3.16544e-13 0 0)
(-5.0472e-13 0 0)
(-9.04412e-14 0 0)
(4.39078e-13 0 0)
(1.29235e-26 0 0)
(8.09595e-13 0 0)
(-1.38871e-12 0 0)
(-1.45873e-15 0 0)
(2.47984e-14 0 0)
(-1.11155e-12 0 0)
(-6.05373e-13 0 0)
(-3.66141e-13 0 0)
(-4.77005e-13 0 0)
(-3.16544e-13 0 0)
(-1.89635e-13 0 0)
(-8.21265e-13 0 0)
(1.09842e-12 0 0)
(1.02403e-12 0 0)
(3.63224e-13 0 0)
(2.20268e-12 0 0)
(1.37412e-12 0 0)
(2.27416e-12 0 0)
(1.679e-12 0 0)
(8.41687e-13 0 0)
(1.05758e-12 0 0)
(5.99538e-13 0 0)
(-5.6307e-13 0 0)
(5.98079e-13 0 0)
(-5.35354e-13 0 0)
(4.37619e-13 0 0)
(-7.87714e-14 0 0)
(-1.09988e-12 0 0)
(-1.55938e-12 0 0)
(-5.19308e-13 0 0)
(-8.9566e-13 0 0)
(-2.77159e-13 0 0)
(-8.08136e-13 0 0)
(5.61611e-13 0 0)
(-8.65027e-13 0 0)
(6.68098e-13 0 0)
(1.70671e-13 0 0)
(-5.01803e-13 0 0)
(-1.06487e-13 0 0)
(1.26472e-12 0 0)
(1.15386e-12 0 0)
(-1.10863e-13 0 0)
(1.30265e-12 0 0)
(9.71514e-13 0 0)
(9.0733e-13 0 0)
(-8.16889e-13 0 0)
(-5.36812e-13 0 0)
(-8.86908e-13 0 0)
(2.62571e-13 0 0)
(-2.61113e-13 0 0)
(-1.07217e-12 0 0)
(-8.78155e-13 0 0)
(-1.70963e-12 0 0)
(-9.77349e-13 0 0)
(7.43952e-14 0 0)
(-8.75238e-15 0 0)
(1.11447e-12 0 0)
(-4.63876e-13 0 0)
(1.30556e-12 0 0)
(-8.65027e-13 0 0)
(6.68098e-13 0 0)
(1.70671e-13 0 0)
(-5.01803e-13 0 0)
(-1.06487e-13 0 0)
(1.26472e-12 0 0)
(1.15386e-12 0 0)
(-1.10863e-13 0 0)
(1.30265e-12 0 0)
(9.71514e-13 0 0)
(9.0733e-13 0 0)
(-8.16889e-13 0 0)
(-5.36812e-13 0 0)
(-8.86908e-13 0 0)
(2.62571e-13 0 0)
(-2.61113e-13 0 0)
(-1.07217e-12 0 0)
(-8.78155e-13 0 0)
(-1.70963e-12 0 0)
(-9.77349e-13 0 0)
(7.43952e-14 0 0)
(-8.75238e-15 0 0)
(1.11447e-12 0 0)
(-4.63876e-13 0 0)
(1.30556e-12 0 0)
(-8.65027e-13 0 0)
(6.68098e-13 0 0)
(1.70671e-13 0 0)
(-5.01803e-13 0 0)
(-1.06487e-13 0 0)
(1.26326e-12 0 0)
(1.15677e-12 0 0)
(-1.07946e-13 0 0)
(1.3114e-12 0 0)
(1.17282e-12 0 0)
(1.01965e-12 0 0)
(-1.38871e-12 0 0)
(-5.74739e-13 0 0)
(-8.78155e-13 0 0)
(-6.71016e-14 0 0)
(-1.38725e-12 0 0)
(-2.91746e-14 0 0)
(-1.08092e-12 0 0)
(-1.4456e-12 0 0)
(-1.89635e-13 0 0)
(-4.44913e-13 0 0)
(1.54917e-12 0 0)
(-1.07946e-13 0 0)
(7.14777e-14 0 0)
(3.15086e-13 0 0)
(7.30824e-13 0 0)
(3.35508e-13 0 0)
(2.21727e-13 0 0)
(1.11155e-12 0 0)
(4.60959e-13 0 0)
(1.04737e-12 0 0)
(5.90785e-13 0 0)
(1.32307e-12 0 0)
(6.28712e-13 0 0)
(7.58539e-13 0 0)
(-3.51554e-13 0 0)
(-6.25795e-13 0 0)
(-1.75631e-12 0 0)
(-2.85911e-13 0 0)
(-3.89481e-13 0 0)
(-4.66793e-14 0 0)
(-4.20114e-13 0 0)
(9.81725e-13 0 0)
(2.71324e-13 0 0)
(2.24644e-13 0 0)
(-1.26472e-12 0 0)
(-2.47984e-14 0 0)
(-1.27639e-12 0 0)
(-1.85259e-13 0 0)
(-1.25013e-12 0 0)
(-6.27254e-13 0 0)
(7.20612e-13 0 0)
(4.84298e-13 0 0)
(8.57733e-13 0 0)
(-2.59654e-13 0 0)
(1.22971e-12 0 0)
(4.49289e-13 0 0)
(-3.51554e-13 0 0)
(9.35046e-13 0 0)
(1.11593e-12 0 0)
(-4.09903e-13 0 0)
(-4.08444e-14 0 0)
(-1.43977e-12 0 0)
(9.19e-14 0 0)
(2.53819e-13 0 0)
(8.50439e-13 0 0)
(-1.09405e-13 0 0)
(-2.91746e-15 0 0)
(3.01957e-13 0 0)
(2.18809e-13 0 0)
(6.24336e-13 0 0)
(-1.396e-12 0 0)
(5.0472e-13 0 0)
(-1.15094e-12 0 0)
(-1.6046e-14 0 0)
(-4.25949e-13 0 0)
(-7.352e-13 0 0)
(3.99692e-13 0 0)
(-9.26293e-13 0 0)
(-7.48328e-13 0 0)
(-4.1282e-13 0 0)
(-5.79116e-13 0 0)
(9.39422e-13 0 0)
(5.65987e-13 0 0)
(5.0472e-13 0 0)
(6.06832e-13 0 0)
(2.61113e-13 0 0)
(-8.51898e-13 0 0)
(8.57733e-13 0 0)
(-1.69213e-13 0 0)
(-6.00997e-13 0 0)
(-1.57543e-13 0 0)
(1.45873e-14 0 0)
(2.04222e-13 0 0)
(-1.05758e-12 0 0)
(-7.22071e-13 0 0)
(-8.31476e-14 0 0)
(5.67446e-13 0 0)
(3.47178e-13 0 0)
(8.19806e-13 0 0)
(-4.27408e-13 0 0)
(1.07946e-13 0 0)
(-2.21727e-13 0 0)
(6.72474e-13 0 0)
(2.39232e-13 0 0)
(1.31286e-13 0 0)
(-2.14433e-13 0 0)
(-8.92743e-13 0 0)
(7.36658e-13 0 0)
(2.80076e-13 0 0)
(7.33741e-13 0 0)
(1.5375e-12 0 0)
(-9.30669e-13 0 0)
(4.84298e-13 0 0)
(-1.19324e-12 0 0)
(2.01305e-13 0 0)
(-1.39892e-12 0 0)
(-4.05527e-13 0 0)
(-2.20268e-13 0 0)
(-6.8852e-13 0 0)
(-4.18655e-13 0 0)
(-1.88176e-13 0 0)
(5.35354e-13 0 0)
(4.40536e-13 0 0)
(8.16889e-13 0 0)
(-6.25795e-13 0 0)
(6.30171e-13 0 0)
(-3.54471e-13 0 0)
(2.93205e-13 0 0)
(-1.35224e-12 0 0)
(-2.6403e-13 0 0)
(-2.62571e-14 0 0)
(-5.49941e-13 0 0)
(1.62502e-12 0 0)
(5.41189e-13 0 0)
(7.03108e-13 0 0)
(-2.93205e-13 0 0)
(-8.271e-13 0 0)
(1.11301e-12 0 0)
(-1.47769e-12 0 0)
(-2.72782e-13 0 0)
(-2.68406e-13 0 0)
(2.39232e-13 0 0)
(5.3973e-13 0 0)
(8.16889e-13 0 0)
(-8.66485e-13 0 0)
(-1.50249e-13 0 0)
(-2.757e-13 0 0)
(-9.14623e-13 0 0)
(6.41841e-14 0 0)
(6.85603e-14 0 0)
(-5.01803e-13 0 0)
(-8.06677e-13 0 0)
(8.56274e-13 0 0)
(-2.30479e-13 0 0)
(9.80266e-13 0 0)
(6.27254e-14 0 0)
(6.03914e-13 0 0)
(7.66828e-27 0 0)
(-8.82531e-13 0 0)
(8.1543e-13 0 0)
(6.11208e-13 0 0)
(-4.40536e-13 0 0)
(-9.35046e-13 0 0)
(6.76851e-13 0 0)
(-4.17197e-13 0 0)
(8.6065e-14 0 0)
(2.39232e-13 0 0)
(5.3973e-13 0 0)
(4.95968e-13 0 0)
(-5.45565e-13 0 0)
(-1.43247e-12 0 0)
(-2.47984e-14 0 0)
(-1.89635e-14 0 0)
(-8.97119e-13 0 0)
(9.49633e-13 0 0)
(-1.63378e-13 0 0)
(3.25297e-13 0 0)
(6.52052e-13 0 0)
(4.77005e-13 0 0)
(4.87216e-13 0 0)
(5.38271e-13 0 0)
(5.76198e-13 0 0)
(-2.66948e-13 0 0)
(8.50439e-13 0 0)
(-1.61919e-13 0 0)
(-8.69403e-13 0 0)
(-1.79278e-12 0 0)
(-3.82187e-13 0 0)
(-6.97273e-13 0 0)
(-8.16889e-14 0 0)
(-9.00036e-13 0 0)
(5.55776e-13 0 0)
(7.67292e-13 0 0)
(2.40705e-27 0 0)
(5.79116e-13 0 0)
(4.38228e-27 0 0)
(5.6307e-13 0 0)
(-6.62263e-13 0 0)
(1.838e-13 0 0)
(6.18501e-13 0 0)
(7.20612e-13 0 0)
(1.06487e-13 0 0)
(1.23263e-12 0 0)
(1.06487e-13 0 0)
(6.57887e-13 0 0)
(2.84452e-13 0 0)
(3.31132e-13 0 0)
(8.02301e-14 0 0)
(-1.03424e-12 0 0)
(5.68905e-14 0 0)
(-3.13627e-13 0 0)
(-4.62417e-13 0 0)
(2.81535e-13 0 0)
(1.73589e-13 0 0)
(1.05174e-12 0 0)
(-3.85105e-13 0 0)
(-9.0733e-13 0 0)
(7.73127e-13 0 0)
(1.79424e-13 0 0)
(-3.92398e-13 0 0)
(2.78617e-13 0 0)
(5.9662e-13 0 0)
(6.62263e-13 0 0)
(-3.51554e-13 0 0)
(-4.55124e-13 0 0)
(-8.48981e-13 0 0)
(-1.00652e-13 0 0)
(-2.62571e-13 0 0)
(1.42955e-13 0 0)
(4.08444e-14 0 0)
(6.75392e-13 0 0)
(-4.58041e-13 0 0)
(2.56736e-13 0 0)
(-8.13971e-13 0 0)
(-1.4208e-12 0 0)
(-1.6046e-14 0 0)
(-1.04591e-12 0 0)
(-1.35224e-12 0 0)
(-4.595e-13 0 0)
(-7.29365e-13 0 0)
(0 0 0)
(0 0 0)
(0 0 0)
(0 0 0)
(0 0 0)
(0 0 0)
(0 0 0)
(0 0 0)
(0 0 0)
(0 0 0)
(0 0 0)
(2.59493e-31 0 0)
(0 0 0)
(3.73435e-13 0 0)
(-2.18809e-14 0 0)
(-3.51554e-13 0 0)
(0 0 0)
(0 0 0)
(8.51898e-13 0 0)
(1.45873e-15 0 0)
(-8.53357e-13 0 0)
(-2.93205e-13 0 0)
(5.73281e-13 0 0)
(-8.75238e-14 0 0)
(1.25013e-12 0 0)
(4.43162e-12 0 0)
(1.57878e-11 0 0)
(5.60721e-11 0 0)
(2.01131e-10 0 0)
(7.05971e-10 0 0)
(2.43047e-09 0 0)
(8.20305e-09 0 0)
(2.71455e-08 0 0)
(8.80297e-08 0 0)
(2.79601e-07 0 0)
(8.69284e-07 0 0)
(2.64384e-06 0 0)
(7.86092e-06 0 0)
(2.28336e-05 0 0)
(6.47452e-05 0 0)
(0.000179067 0 0)
(0.00048263 0 0)
(0.00126641 0 0)
(0.00323167 0 0)
(0.00801031 0 0)
(0.0192596 0 0)
(0.0448475 0 0)
(0.10095 0 0)
(0.21915 0 0)
(0.457418 0 0)
(0.913971 0 0)
(1.73579 0 0)
(3.08509 0 0)
(5.06327 0 0)
(7.71793 0 0)
(11.0716 0 0)
(15.0987 0 0)
(19.7335 0 0)
(24.8906 0 0)
(30.4818 0 0)
(36.4265 0 0)
(42.6564 0 0)
(49.1159 0 0)
(55.7608 0 0)
(62.5559 0 0)
(69.4734 0 0)
(76.4912 0 0)
(83.5915 0 0)
(90.7598 0 0)
(97.984 0 0)
(105.254 0 0)
(112.561 0 0)
(119.898 0 0)
(127.258 0 0)
(134.634 0 0)
(142.022 0 0)
(149.417 0 0)
(156.812 0 0)
(164.204 0 0)
(171.587 0 0)
(178.956 0 0)
(186.307 0 0)
(193.635 0 0)
(200.933 0 0)
(208.197 0 0)
(215.42 0 0)
(222.596 0 0)
(229.717 0 0)
(236.77 0 0)
(243.742 0 0)
(250.615 0 0)
(257.367 0 0)
(263.972 0 0)
(270.398 0 0)
(276.609 0 0)
(282.561 0 0)
(288.207 0 0)
(293.484 0 0)
(298.406 0 0)
(300.862 0 0)
(300.97 0 0)
(300.998 0 0)
(300.915 0 0)
(300.693 0 0)
(300.31 0 0)
(299.754 0 0)
(299.022 0 0)
(298.133 0 0)
(297.117 0 0)
(296.021 0 0)
(294.902 0 0)
(293.826 0 0)
(293.218 0 0)
(293.119 0 0)
(293.126 0 0)
(293.205 0 0)
(293.372 0 0)
(293.618 0 0)
(293.921 0 0)
(294.246 0 0)
(294.562 0 0)
(294.831 0 0)
(294.985 0 0)
(294.938 0 0)
(294.559 0 0)
(293.893 0 0)
(293.24 0 0)
(292.886 0 0)
(292.852 0 0)
(292.942 0 0)
(293.032 0 0)
(293.084 0 0)
(293.073 0 0)
(292.992 0 0)
(292.843 0 0)
(292.643 0 0)
(292.406 0 0)
(292.124 0 0)
(291.768 0 0)
(291.285 0 0)
(290.63 0 0)
(289.806 0 0)
(288.779 0 0)
(287.388 0 0)
(285.436 0 0)
(282.766 0 0)
(279.044 0 0)
(273.529 0 0)
(264.977 0 0)
(250.723 0 0)
(222.459 0 0)
(154.294 0 0)
(52.0753 0 0)
(8.43398 0 0)
(1.29795 0 0)
(0.18986 0 0)
(0.0276228 0 0)
(0.0040183 0 0)
(0.000584387 0 0)
(8.50227e-05 0 0)
(1.2374e-05 0 0)
(1.80096e-06 0 0)
(2.62085e-07 0 0)
(3.81285e-08 0 0)
(5.54507e-09 0 0)
(8.05719e-10 0 0)
(1.17737e-10 0 0)
(1.72918e-11 0 0)
(2.27125e-12 0 0)
(2.6403e-13 0 0)
(8.91499e-30 0 0)
(8.442e-68 0 0)
(9.48178e-49 0 0)
(1.6884e-67 0 0)
(0 0 0)
(0 0 0)
(-1.29877e-34 0 0)
(3.37679e-32 0 0)
(-3.1744e-26 0 0)
(-1.26326e-12 0 0)
(-1.98388e-13 0 0)
(1.77965e-12 0 0)
(-3.18004e-13 0 0)
(-1.29877e-34 0 0)
(0 0 0)
(1.29877e-34 0 0)
(2.59753e-34 0 0)
(5.19506e-34 0 0)
(3.28215e-13 0 0)
(-1.45873e-12 0 0)
(-3.25297e-13 0 0)
(9.64222e-13 0 0)
(-5.67649e-29 0 0)
(-9.52552e-13 0 0)
(3.15086e-13 0 0)
(1.7461e-12 0 0)
(-6.17044e-13 0 0)
(0 0 0)
(0 0 0)
(2.59753e-34 0 0)
(0 0 0)
(0 0 0)
(0 0 0)
(0 0 0)
(1.09697e-12 0 0)
(-6.41842e-14 0 0)
(3.58848e-13 0 0)
(7.48329e-13 0 0)
(-7.29366e-15 0 0)
(-1.82779e-12 0 0)
(-7.89174e-13 0 0)
(-2.63301e-12 0 0)
(-1.47915e-12 0 0)
(-1.27347e-12 0 0)
(9.64222e-13 0 0)
(4.3762e-13 0 0)
(-1.52e-12 0 0)
(1.1772e-12 0 0)
(2.30042e-12 0 0)
(1.39017e-12 0 0)
(5.52859e-13 0 0)
(-2.23186e-13 0 0)
(-2.78618e-13 0 0)
(1.06925e-12 0 0)
(4.76319e-27 0 0)
(2.39451e-82 0 0)
(0 0 0)
(0 0 0)
(0 0 0)
(-4.18162e-28 0 0)
(-5.12015e-13 0 0)
(7.04567e-13 0 0)
(-2.39086e-12 0 0)
(-5.92245e-13 0 0)
(-4.95969e-13 0 0)
(6.82686e-13 0 0)
(7.11861e-13 0 0)
(1.95178e-12 0 0)
(1.09697e-12 0 0)
(3.35508e-14 0 0)
(-5.36813e-13 0 0)
(-5.12015e-13 0 0)
(-4.79923e-13 0 0)
(-1.23409e-12 0 0)
(1.64107e-12 0 0)
(3.48637e-13 0 0)
(1.32161e-12 0 0)
(-9.2046e-13 0 0)
(-5.84951e-13 0 0)
(6.56429e-14 0 0)
(5.87869e-13 0 0)
(-4.84299e-13 0 0)
(-1.98388e-13 0 0)
(-1.89635e-13 0 0)
(-2.65343e-12 0 0)
(1.26764e-12 0 0)
(7.67293e-13 0 0)
(2.6403e-13 0 0)
(-1.10134e-12 0 0)
(-1.13052e-12 0 0)
(-2.74533e-12 0 0)
(2.36315e-12 0 0)
(-1.28223e-12 0 0)
(2.42879e-12 0 0)
(-2.77159e-13 0 0)
(2.34272e-12 0 0)
(1.22096e-12 0 0)
(6.12667e-13 0 0)
(1.50395e-12 0 0)
(-8.47523e-13 0 0)
(-4.62418e-13 0 0)
(-2.09182e-12 0 0)
(2.29896e-12 0 0)
(-2.6724e-12 0 0)
(7.89174e-13 0 0)
(2.77159e-13 0 0)
(-8.12514e-13 0 0)
(-4.68253e-13 0 0)
(-8.43147e-13 0 0)
(-1.93574e-12 0 0)
(-1.55938e-12 0 0)
(-1.84092e-12 0 0)
(6.62264e-13 0 0)
(-9.24836e-13 0 0)
(-5.89328e-13 0 0)
(-2.1808e-12 0 0)
(1.57689e-12 0 0)
(-1.12614e-12 0 0)
(7.43953e-14 0 0)
(-1.47332e-12 0 0)
(1.85259e-12 0 0)
(7.77504e-13 0 0)
(7.65834e-13 0 0)
(1.30556e-12 0 0)
(7.27907e-13 0 0)
(2.20123e-12 0 0)
(-2.66948e-13 0 0)
(1.97221e-12 0 0)
(9.17542e-13 0 0)
(9.51093e-13 0 0)
(9.04414e-14 0 0)
(-2.15892e-13 0 0)
(2.04222e-14 0 0)
(-3.28215e-13 0 0)
(1.23846e-12 0 0)
(-1.45581e-12 0 0)
(1.45436e-12 0 0)
(2.05681e-13 0 0)
(-1.47237e-26 0 0)
(-9.52552e-13 0 0)
(1.2691e-13 0 0)
(-6.11209e-13 0 0)
(1.23263e-12 0 0)
(-1.45581e-12 0 0)
(1.45581e-12 0 0)
(-7.14779e-13 0 0)
(9.6568e-13 0 0)
(7.29366e-14 0 0)
(1.67754e-13 0 0)
(9.3213e-13 0 0)
(-1.05029e-13 0 0)
(-6.56429e-14 0 0)
(-8.22725e-13 0 0)
(-3.66142e-13 0 0)
(-1.28514e-12 0 0)
(1.11301e-12 0 0)
(-4.56583e-13 0 0)
(-1.12507e-26 0 0)
(-6.46218e-13 0 0)
(1.21075e-12 0 0)
(-1.45581e-12 0 0)
(1.45436e-12 0 0)
(2.05681e-13 0 0)
(-1.47237e-26 0 0)
(-9.52552e-13 0 0)
(1.2691e-13 0 0)
(-6.11209e-13 0 0)
(1.23263e-12 0 0)
(-1.45581e-12 0 0)
(1.45581e-12 0 0)
(-7.14779e-13 0 0)
(0 0 0)
(7.14779e-13 0 0)
(-1.45873e-15 0 0)
(-3.31564e-26 0 0)
(-1.45436e-12 0 0)
(1.45436e-12 0 0)
(-4.06986e-13 0 0)
(-4.81381e-13 0 0)
(-4.90134e-13 0 0)
(1.24284e-12 0 0)
(-4.27408e-13 0 0)
(-1.12688e-26 0 0)
(-6.47677e-13 0 0)
(1.21075e-12 0 0)
(-1.45436e-12 0 0)
(0 0 0)
(-7.65566e-48 0 0)
(0 0 0)
(1.80883e-13 0 0)
(1.44414e-13 0 0)
(-1.00652e-13 0 0)
(1.23117e-12 0 0)
(-1.45581e-12 0 0)
(0 0 0)
(0 0 0)
(0 0 0)
(2.20268e-13 0 0)
(-1.45873e-15 0 0)
(1.23555e-12 0 0)
(-1.45436e-12 0 0)
(1.45436e-12 0 0)
(-1.45436e-12 0 0)
(0 0 0)
(0 0 0)
(0 0 0)
(3.20921e-13 0 0)
(9.33588e-14 0 0)
(-1.92553e-13 0 0)
(1.23409e-12 0 0)
(-1.33036e-12 0 0)
(3.70518e-13 0 0)
(-5.83493e-14 0 0)
(8.91285e-13 0 0)
(-1.11009e-12 0 0)
(1.25451e-13 0 0)
(-1.21075e-13 0 0)
(1.23263e-12 0 0)
(-1.45581e-12 0 0)
(0 0 0)
(0 0 0)
(0 0 0)
(2.20268e-13 0 0)
(-1.45873e-15 0 0)
(1.23555e-12 0 0)
(-1.45436e-12 0 0)
(1.45436e-12 0 0)
(-1.45436e-12 0 0)
(0 0 0)
(0 0 0)
(0 0 0)
(3.20921e-13 0 0)
(9.33588e-14 0 0)
(-1.92553e-13 0 0)
(1.23409e-12 0 0)
(-1.33036e-12 0 0)
(3.70518e-13 0 0)
(-5.68905e-14 0 0)
(8.91285e-13 0 0)
(-1.33036e-12 0 0)
(1.45436e-12 0 0)
(-1.45436e-12 0 0)
(1.45581e-12 0 0)
(-1.45581e-12 0 0)
(0 0 0)
(0 0 0)
(7.00191e-14 0 0)
(-7.00191e-14 0 0)
(9.45258e-13 0 0)
(2.68407e-13 0 0)
(-9.45258e-13 0 0)
(1.18595e-12 0 0)
(-1.45436e-12 0 0)
(5.19506e-34 0 0)
(0 0 0)
(-2.59753e-34 0 0)
(3.19462e-13 0 0)
(9.48176e-14 0 0)
(-1.94011e-13 0 0)
(1.23555e-12 0 0)
(-1.36683e-12 0 0)
(-8.89826e-14 0 0)
(1.92553e-13 0 0)
(1.26326e-12 0 0)
(-1.45581e-12 0 0)
(1.45436e-12 0 0)
(-1.45436e-12 0 0)
(1.45581e-12 0 0)
(-1.45581e-12 0 0)
(0 0 0)
(0 0 0)
(7.00191e-14 0 0)
(-7.00191e-14 0 0)
(9.45258e-13 0 0)
(2.68407e-13 0 0)
(-9.45258e-13 0 0)
(1.18595e-12 0 0)
(-1.45436e-12 0 0)
(5.19506e-34 0 0)
(0 0 0)
(-2.59753e-34 0 0)
(3.19462e-13 0 0)
(9.48176e-14 0 0)
(-1.94011e-13 0 0)
(1.23555e-12 0 0)
(-1.36683e-12 0 0)
(-8.89826e-14 0 0)
(1.92553e-13 0 0)
(1.26326e-12 0 0)
(-1.45581e-12 0 0)
(1.45436e-12 0 0)
(-1.45436e-12 0 0)
(1.45581e-12 0 0)
(-1.45581e-12 0 0)
(0 0 0)
(0 0 0)
(7.00191e-14 0 0)
(-7.00191e-14 0 0)
(9.45258e-13 0 0)
(2.68407e-13 0 0)
(-9.45258e-13 0 0)
(1.18595e-12 0 0)
(-1.45436e-12 0 0)
(5.19506e-34 0 0)
(0 0 0)
(-2.59753e-34 0 0)
(3.19462e-13 0 0)
(9.48176e-14 0 0)
(-1.94011e-13 0 0)
(1.23555e-12 0 0)
(-1.36683e-12 0 0)
(-8.89826e-14 0 0)
(1.92553e-13 0 0)
(1.26326e-12 0 0)
(-1.45581e-12 0 0)
(1.45436e-12 0 0)
(-1.45436e-12 0 0)
(1.45581e-12 0 0)
(-1.45581e-12 0 0)
(-2.59753e-34 0 0)
(5.83493e-15 0 0)
(2.88829e-13 0 0)
(1.7534e-12 0 0)
(-2.34856e-13 0 0)
(2.88829e-13 0 0)
(2.05973e-12 0 0)
(1.37121e-13 0 0)
(1.3858e-13 0 0)
(-1.46311e-12 0 0)
(3.03416e-13 0 0)
(-1.04153e-12 0 0)
(-1.27639e-12 0 0)
(3.76353e-13 0 0)
(1.82341e-13 0 0)
(-3.41343e-13 0 0)
(-1.07363e-12 0 0)
(-1.44269e-12 0 0)
(6.85604e-14 0 0)
(-9.45258e-13 0 0)
(-1.85259e-13 0 0)
(3.28069e-12 0 0)
(1.14656e-12 0 0)
(7.9355e-13 0 0)
(9.78809e-13 0 0)
(5.13474e-13 0 0)
(7.35201e-13 0 0)
(-1.88322e-12 0 0)
(-1.25013e-12 0 0)
(-4.595e-13 0 0)
(1.45873e-15 0 0)
(-1.45873e-15 0 0)
(-6.6664e-13 0 0)
(-6.95815e-13 0 0)
(-7.87715e-14 0 0)
(2.91746e-14 0 0)
(1.59585e-12 0 0)
(1.32599e-12 0 0)
(3.98234e-13 0 0)
(2.59654e-12 0 0)
(-1.44414e-13 0 0)
(8.31477e-13 0 0)
(2.01305e-13 0 0)
(5.79116e-13 0 0)
(-3.51554e-13 0 0)
(2.45067e-13 0 0)
(2.47984e-12 0 0)
(-1.78986e-12 0 0)
(4.28867e-13 0 0)
(3.86564e-13 0 0)
(-4.05527e-13 0 0)
(-3.64683e-13 0 0)
(-1.58272e-12 0 0)
(-2.04077e-12 0 0)
(-1.96345e-12 0 0)
(2.91746e-15 0 0)
(-1.01674e-12 0 0)
(-6.6664e-13 0 0)
(-6.95815e-13 0 0)
(-7.87715e-14 0 0)
(2.91746e-14 0 0)
(1.59585e-12 0 0)
(1.32599e-12 0 0)
(3.98234e-13 0 0)
(2.59654e-12 0 0)
(-1.44414e-13 0 0)
(8.31477e-13 0 0)
(2.01305e-13 0 0)
(5.79116e-13 0 0)
(-3.51554e-13 0 0)
(2.45067e-13 0 0)
(2.47984e-12 0 0)
(-1.78986e-12 0 0)
(4.28867e-13 0 0)
(3.86564e-13 0 0)
(-4.05527e-13 0 0)
(-3.64683e-13 0 0)
(-1.58272e-12 0 0)
(-2.04077e-12 0 0)
(-1.96345e-12 0 0)
(2.91746e-15 0 0)
(-1.01674e-12 0 0)
(-6.6664e-13 0 0)
(-6.95815e-13 0 0)
(-7.87715e-14 0 0)
(2.91746e-14 0 0)
(1.59585e-12 0 0)
(1.32599e-12 0 0)
(3.98234e-13 0 0)
(2.59654e-12 0 0)
(-1.42956e-13 0 0)
(8.32936e-13 0 0)
(1.98388e-13 0 0)
(5.96621e-13 0 0)
(-3.31132e-13 0 0)
(2.62572e-14 0 0)
(2.97873e-12 0 0)
(-8.50441e-13 0 0)
(8.22725e-13 0 0)
(6.19961e-13 0 0)
(-6.62264e-13 0 0)
(6.50594e-13 0 0)
(5.51401e-13 0 0)
(2.49735e-12 0 0)
(3.75769e-12 0 0)
(3.10564e-12 0 0)
)
;

boundaryField
{
    sides
    {
        type            zeroGradient;
    }
    empty
    {
        type            empty;
    }
}


// ************************************************************************* //
