/*--------------------------------*- C++ -*----------------------------------*\
  =========                 |
  \\      /  F ield         | OpenFOAM: The Open Source CFD Toolbox
   \\    /   O peration     | Website:  https://openfoam.org
    \\  /    A nd           | Version:  13
     \\/     M anipulation  |
\*---------------------------------------------------------------------------*/
FoamFile
{
    format      ascii;
    class       volScalarField;
    location    "9";
    object      Ma;
}
// * * * * * * * * * * * * * * * * * * * * * * * * * * * * * * * * * * * * * //

dimensions      [];

internalField   nonuniform List<scalar> 
5250
(
2.99999
2.99996
2.99987
2.99969
2.99916
2.99804
2.99481
2.98808
2.96867
2.9259
2.81108
2.53738
1.93444
0.954992
0.391893
0.332608
0.345483
0.338476
0.304862
0.252233
0.203346
0.162353
0.12111
0.0755844
0.0419987
2.99999
2.99996
2.99987
2.99969
2.99917
2.99807
2.99486
2.98821
2.96902
2.92665
2.81315
2.54207
1.94384
0.9667
0.399644
0.333981
0.347059
0.340568
0.30744
0.255764
0.208095
0.168482
0.129467
0.0892021
0.0652732
2.99999
2.99996
2.99988
2.99969
2.99922
2.99804
2.99513
2.98819
2.97019
2.9277
2.81801
2.55179
1.96408
0.993018
0.417311
0.337801
0.351659
0.346755
0.315073
0.26581
0.22107
0.1849
0.150991
0.119351
0.103796
2.99999
2.99996
2.99989
2.99968
2.99929
2.998
2.99557
2.98803
2.97231
2.92867
2.82609
2.56593
1.99551
1.03445
0.444171
0.343084
0.35878
0.356752
0.327309
0.281586
0.240768
0.209133
0.181009
0.156693
0.145855
2.99999
2.99997
2.99989
2.99973
2.99925
2.99826
2.99547
2.98917
2.97279
2.9333
2.83345
2.58719
2.03782
1.09217
0.480117
0.349427
0.368149
0.37017
0.343487
0.301972
0.265574
0.238757
0.216233
0.197787
0.19023
3
2.99997
2.99989
2.99974
2.9993
2.99838
2.99574
2.98993
2.97442
2.93778
2.84397
2.61344
2.09181
1.16916
0.525705
0.357234
0.38016
0.387277
0.363649
0.32677
0.295155
0.273425
0.256555
0.24375
0.239652
3
2.99997
2.99991
2.99975
2.9994
2.99843
2.99621
2.99059
2.97666
2.94277
2.857
2.6451
2.15809
1.26896
0.581881
0.367891
0.395698
0.408546
0.387969
0.355909
0.329289
0.31302
0.302288
0.295993
0.297266
3
2.99998
2.99991
2.99979
2.99942
2.99868
2.9964
2.99191
2.97839
2.94965
2.87067
2.68261
2.23746
1.39528
0.649051
0.384562
0.417221
0.435223
0.417146
0.389873
0.368285
0.357955
0.354453
0.356975
0.368763
3
2.99998
2.99993
2.99981
2.99951
2.99878
2.99701
2.99247
2.98197
2.95429
2.88891
2.72092
2.32834
1.54897
0.728896
0.414565
0.448901
0.468907
0.452786
0.429636
0.413066
0.408618
0.413802
0.430567
0.46478
3
2.99998
2.99994
2.99983
2.99959
2.9989
2.99751
2.99332
2.98483
2.96024
2.90566
2.76139
2.42439
1.72873
0.820205
0.460891
0.493734
0.510077
0.496371
0.476266
0.464121
0.465204
0.483351
0.526957
0.628134
3
2.99999
2.99995
2.99986
2.99961
2.99913
2.9976
2.99472
2.98566
2.96724
2.91516
2.79421
2.49157
1.85421
0.904589
0.503032
0.526317
0.542166
0.538551
0.524614
0.517969
0.527068
0.56272
0.642945
0.801903
3
2.99999
2.99996
2.99988
2.99968
2.99923
2.99797
2.99533
2.98763
2.97142
2.92608
2.82104
2.55368
1.97611
1.03532
0.574638
0.548601
0.565124
0.572141
0.568409
0.570248
0.589258
0.638856
0.735336
0.891972
3
2.99999
2.99996
2.9999
2.99972
2.99934
2.99825
2.99601
2.98932
2.97556
2.93632
2.84663
2.61478
2.10076
1.19916
0.661174
0.565047
0.582962
0.598947
0.606359
0.61793
0.646302
0.701692
0.793348
0.921566
3
2.99999
2.99997
2.99992
2.99976
2.99945
2.99854
2.99659
2.99125
2.97899
2.94745
2.87061
2.67754
2.23166
1.397
0.764607
0.588127
0.604085
0.624478
0.641029
0.660337
0.694173
0.749378
0.830169
0.936223
3
3
2.99998
2.99993
2.99981
2.99955
2.99881
2.99727
2.99272
2.98342
2.95651
2.89683
2.73863
2.37261
1.63592
0.888082
0.632345
0.63816
0.655929
0.676813
0.699333
0.733915
0.786013
0.857652
0.948438
3.00001
3
2.99998
2.99995
2.99985
2.99965
2.99905
2.99782
2.99431
2.98664
2.96621
2.91826
2.79626
2.50525
1.88889
1.02938
0.694549
0.681135
0.695298
0.715665
0.737322
0.769894
0.817182
0.880334
0.959426
3.00001
3
2.99999
2.99996
2.99988
2.99972
2.99924
2.99826
2.99546
2.98926
2.97297
2.93432
2.83649
2.59796
2.06961
1.19387
0.769177
0.715662
0.729646
0.749165
0.771952
0.802567
0.845407
0.90102
0.969408
3.00001
3
2.99999
2.99997
2.99991
2.99976
2.99945
2.99851
2.99666
2.99098
2.9796
2.94667
2.87254
2.67951
2.24239
1.42947
0.882119
0.748556
0.757293
0.776058
0.801438
0.831386
0.870554
0.919764
0.979051
3.00001
3
3
2.99998
2.99993
2.99983
2.99955
2.99895
2.99721
2.99369
2.98322
2.96136
2.90081
2.75933
2.41518
1.7229
1.02388
0.798365
0.789587
0.80384
0.829066
0.858847
0.894076
0.937408
0.988377
3.00001
3
3
2.99998
2.99995
2.99987
2.99968
2.99917
2.998
2.9951
2.98787
2.97075
2.92721
2.82225
2.56504
2.01142
1.196
0.867112
0.827449
0.837206
0.858803
0.886304
0.917239
0.954263
0.998252
3.00001
3.00001
3
2.99999
2.99997
2.9999
2.99977
2.99936
2.99856
2.9962
2.99115
2.97754
2.94604
2.86546
2.67001
2.2233
1.4259
0.964522
0.862923
0.8673
0.885162
0.911015
0.938503
0.970306
1.00747
3.00001
3.00001
3
3
2.99998
2.99993
2.99983
2.99953
2.99896
2.99714
2.99372
2.98317
2.96128
2.90104
2.76021
2.41977
1.73736
1.10583
0.912079
0.898808
0.910319
0.932657
0.958567
0.986037
1.01708
3.00001
3.00001
3
3
2.99999
2.99996
2.99987
2.99969
2.99922
2.99807
2.99535
2.98833
2.97235
2.93054
2.83223
2.58919
2.06328
1.29378
0.984343
0.934423
0.939431
0.955912
0.978109
1.00159
1.0258
3.00001
3.00001
3.00001
3
2.99999
2.99997
2.99991
2.99979
2.99941
2.99871
2.99646
2.99221
2.97924
2.95211
2.87815
2.70524
2.30009
1.55682
1.09232
0.9724
0.966739
0.976325
0.995015
1.0147
1.03072
3.00001
3.00001
3.00001
3
3
2.99998
2.99994
2.99985
2.9996
2.9991
2.99756
2.99466
2.98558
2.96756
2.91628
2.80036
2.51494
1.92183
1.25254
1.02672
0.995887
0.99883
1.01048
1.02368
1.03024
3.00001
3.00001
3.00001
3.00001
3
2.99999
2.99996
2.9999
2.99972
2.99938
2.99833
2.99623
2.9902
2.97714
2.94254
2.86135
2.65959
2.20972
1.46419
1.10091
1.02356
1.01727
1.02116
1.0258
1.02228
3.00001
3.00001
3.00001
3.00001
3
3
2.99998
2.99994
2.99981
2.99958
2.99885
2.99742
2.99327
2.98434
2.96054
2.90521
2.76547
2.441
1.78939
1.23119
1.05962
1.03343
1.02667
1.01977
1.00583
3.00001
3.00001
3.00001
3.00001
3
3
2.99999
2.99996
2.99988
2.99971
2.99925
2.99825
2.99546
2.98969
2.97309
2.9379
2.84305
2.62525
2.13615
1.42301
1.12062
1.04978
1.02442
1.00351
0.977659
3.00001
3.00001
3.00001
3.00001
3.00001
3
2.99999
2.99998
2.99992
2.99981
2.99948
2.99883
2.99694
2.9929
2.98209
2.95729
2.89434
2.74297
2.38963
1.71568
1.22266
1.05967
1.00674
0.970199
0.936012
3.00001
3.00001
3.00001
3.00001
3.00001
3
3
2.99998
2.99995
2.99987
2.99967
2.9992
2.99796
2.99533
2.98781
2.97226
2.92884
2.83161
2.589
2.07075
1.37848
1.07684
0.972965
0.921718
0.889857
3.00001
3.00001
3.00001
3.00001
3.00001
3.00001
3
2.99999
2.99997
2.99992
2.99976
2.99947
2.99855
2.99682
2.99139
2.98072
2.95001
2.88175
2.70628
2.31251
1.5983
1.10177
0.915766
0.854501
0.839814
3.00001
3.00001
3.00001
3.00001
3.00001
3.00001
3
3
2.99998
2.99994
2.99985
2.99959
2.99903
2.99759
2.9941
2.98581
2.9646
2.91505
2.78927
2.49631
1.88983
1.15339
0.838189
0.769766
0.780002
3.00001
3.00001
3.00001
3.00001
3.00001
3.00001
3
3
2.99999
2.99995
2.99989
2.99968
2.99927
2.99805
2.99548
2.98845
2.97225
2.93085
2.82971
2.58083
2.03875
1.18987
0.733111
0.654076
0.697698
3.00001
3.00001
3.00001
3.00001
3.00001
3.00001
3.00001
3
2.99999
2.99996
2.99991
2.99974
2.9994
2.99833
2.99633
2.98987
2.97709
2.93962
2.85421
2.63179
2.13307
1.26421
0.650216
0.524429
0.604973
3.00001
3.00001
3.00001
3.00001
3.00001
3.00001
3.00001
3
2.99999
2.99997
2.99992
2.99978
2.99946
2.99858
2.99668
2.99115
2.97946
2.94613
2.86919
2.6668
2.20062
1.34432
0.599605
0.403248
0.518365
3.00001
3.00001
3.00001
3.00001
3.00001
3.00001
3.00001
3
2.99999
2.99998
2.99992
2.99981
2.99949
2.99874
2.99689
2.99211
2.98079
2.95107
2.87875
2.69208
2.25041
1.41143
0.578703
0.315176
0.456312
3.00001
3.00001
3.00001
3.00001
3.00001
3.00001
3.00001
3
3
2.99998
2.99993
2.99983
2.9995
2.9989
2.99693
2.99305
2.98137
2.95569
2.88542
2.71403
2.29471
1.48008
0.58745
0.270171
0.419124
3.00001
3.00001
3.00001
3.00001
3.00001
3.00001
3.00001
3
3
2.99998
2.99993
2.99983
2.99956
2.99888
2.99731
2.99297
2.98338
2.95682
2.89452
2.73047
2.33843
1.55096
0.614142
0.257355
0.402869
3.00001
3.00001
3.00001
3.00001
3.00001
3.00001
3.00001
3
3
2.99998
2.99994
2.99984
2.99955
2.99901
2.99721
2.99385
2.98309
2.96087
2.89787
2.74821
2.37671
1.621
0.649317
0.25945
0.398516
3.00001
3.00001
3.00001
3.00001
3.00001
3.00001
3.00001
3
3
2.99998
2.99994
2.99984
2.99959
2.99898
2.99749
2.99362
2.98464
2.96077
2.90416
2.75716
2.40507
1.67204
0.683448
0.268597
0.397752
3.00001
3.00001
3.00001
3.00001
3.00001
3.00001
3.00001
3
3
2.99998
2.99994
2.99985
2.99959
2.99905
2.99748
2.99401
2.98475
2.96275
2.90649
2.76661
2.42556
1.71138
0.718711
0.283533
0.397797
3.00001
3.00001
3.00001
3.00001
3.00001
3.00001
3.00001
3
3
2.99998
2.99994
2.99986
2.99959
2.9991
2.99747
2.99438
2.98476
2.96453
2.90831
2.77473
2.44248
1.74506
0.751441
0.300572
0.398722
3.00001
3.00001
3.00001
3.00001
3.00001
3.00001
3.00001
3
3
2.99998
2.99994
2.99986
2.99962
2.99906
2.99767
2.99417
2.98582
2.9642
2.91239
2.77929
2.45839
1.77456
0.781432
0.318962
0.399059
3.00001
3.00001
3.00001
3.00001
3.00001
3.00001
3.00001
3
3
2.99998
2.99995
2.99985
2.99965
2.99902
2.99785
2.99404
2.98654
2.96446
2.91509
2.78396
2.47147
1.80036
0.808352
0.336642
0.398726
3.00001
3.00001
3.00001
3.00001
3.00001
3.00001
3.00001
3
3
2.99998
2.99995
2.99985
2.99965
2.99907
2.9978
2.99437
2.98633
2.96593
2.9158
2.78956
2.48181
1.82317
0.832051
0.352621
0.39856
3.00001
3.00001
3.00001
3.00001
3.00001
3.00001
3.00001
3
3
2.99998
2.99995
2.99986
2.99965
2.99908
2.99786
2.99432
2.98698
2.96565
2.91862
2.79216
2.49185
1.84342
0.85206
0.366357
0.398625
3.00001
3.00001
3.00001
3.00001
3.00001
3.00001
3.00001
3
3
2.99998
2.99995
2.99986
2.99966
2.99908
2.99792
2.99436
2.98723
2.96614
2.91983
2.79543
2.49932
1.86032
0.868682
0.377134
0.39855
3.00001
3.00001
3.00001
3.00001
3.00001
3.00001
3.00001
3
3
2.99998
2.99995
2.99986
2.99965
2.99914
2.99779
2.99481
2.98647
2.96816
2.91843
2.80021
2.50366
1.87291
0.882096
0.384763
0.398108
3.00001
3.00001
3.00001
3.00001
3.00001
3.00001
3.00001
3
3
2.99998
2.99995
2.99986
2.99967
2.9991
2.99793
2.99458
2.98713
2.96743
2.92041
2.80042
2.50828
1.88081
0.89079
0.389902
0.397891
3.00001
3.00001
3.00001
3.00001
3.00001
3.00001
3.00001
3
3
2.99998
2.99995
2.99986
2.99967
2.99909
2.99799
2.99444
2.98753
2.96694
2.92155
2.80033
2.51078
1.88478
0.895216
0.392371
0.397568
0.976463
0.77467
0.258346
0.242948
0.31716
0.401231
0.43326
0.461445
0.49856
0.53391
0.561842
0.584499
0.601516
0.608798
0.608142
0.600443
0.584531
0.561385
0.532847
0.502096
0.470512
0.439149
0.408143
0.377602
0.347435
0.31746
0.28777
0.258147
0.228325
0.198291
0.168665
0.139736
0.1115
0.0838857
0.0568874
0.0314046
0.0148286
0.0314744
0.0553395
0.0800601
0.104337
0.127757
0.150363
0.171749
0.192958
0.215184
0.237223
0.25855
0.279164
0.299423
0.319175
0.338746
0.357861
0.376796
0.395349
0.413687
0.431703
0.449554
0.467025
0.484415
0.50141
0.518378
0.534887
0.551446
0.567547
0.58367
0.59945
0.615131
0.630579
0.645866
0.660926
0.675859
0.69051
0.705074
0.719314
0.733503
0.747313
0.76115
0.774526
0.788025
0.801
0.814141
0.826778
0.839515
0.851868
0.864166
0.876224
0.888096
0.899798
0.911237
0.922472
0.933431
0.944052
0.954334
0.964085
0.97328
0.98154
0.988698
0.993925
0.998063
0.958646
0.837377
0.568634
0.41898
0.280023
0.144793
0.0627289
0.154704
0.233062
0.286816
0.321068
0.341995
0.358379
0.365725
0.360593
0.348429
0.331614
0.30739
0.278914
0.249353
0.220139
0.191346
0.163185
0.135589
0.108676
0.0827458
0.0587211
0.039871
0.0349006
0.0489754
0.0699562
0.0933092
0.11713
0.140971
0.164344
0.187306
0.209347
0.230653
0.251537
0.27262
0.293384
0.313864
0.333685
0.352766
0.371334
0.390583
0.409975
0.428769
0.446993
0.46482
0.482427
0.499742
0.516776
0.533569
0.550086
0.566414
0.582478
0.598413
0.614047
0.629594
0.64486
0.65998
0.674936
0.689632
0.704291
0.718621
0.732959
0.746976
0.76098
0.774698
0.788368
0.801781
0.815101
0.828211
0.841156
0.853973
0.866528
0.879058
0.891242
0.903468
0.915336
0.927219
0.938828
0.950336
0.961697
0.972821
0.983903
0.99469
1.00544
1.0159
1.02631
1.03643
1.04635
1.05592
1.06503
1.0736
1.0813
1.08797
1.09279
1.09652
0.973343
0.940987
0.832492
0.738434
0.628556
0.513336
0.395841
0.294615
0.207454
0.130868
0.066097
0.0273552
0.0549631
0.0850007
0.0741459
0.0558422
0.0483251
0.044465
0.0504794
0.0633422
0.0802085
0.0992715
0.119736
0.140918
0.162527
0.184401
0.206404
0.228307
0.249644
0.270558
0.291171
0.311807
0.332188
0.352229
0.371915
0.39112
0.409781
0.427884
0.445709
0.463362
0.480906
0.498145
0.515097
0.531191
0.547002
0.563027
0.579632
0.595834
0.611573
0.626935
0.642081
0.657068
0.671807
0.686469
0.700813
0.715146
0.729161
0.743146
0.756879
0.770508
0.78397
0.797282
0.810465
0.82352
0.836419
0.849241
0.861861
0.874443
0.886785
0.899124
0.911173
0.923279
0.935017
0.946892
0.958311
0.969945
0.981052
0.992415
1.00325
1.01431
1.02493
1.03565
1.0461
1.05648
1.06676
1.07686
1.08704
1.09696
1.107
1.11669
1.1264
1.1357
1.14492
1.15364
1.16214
1.1699
1.17711
1.18312
1.18764
1.19079
1.00166
1.01582
0.980596
0.927567
0.858105
0.775109
0.691137
0.604587
0.52689
0.452333
0.38874
0.336335
0.296749
0.271758
0.264992
0.279371
0.294599
0.307234
0.321668
0.336697
0.351431
0.366075
0.381174
0.396633
0.412576
0.428879
0.4454
0.461953
0.478122
0.494134
0.509757
0.525416
0.540751
0.556016
0.570923
0.58558
0.599863
0.613883
0.627624
0.641385
0.654926
0.668625
0.681821
0.694742
0.70707
0.719872
0.733047
0.746557
0.7594
0.772259
0.784665
0.797287
0.809578
0.822002
0.834193
0.846382
0.858471
0.870429
0.882403
0.894161
0.906012
0.917609
0.929334
0.940784
0.95238
0.963682
0.975141
0.986296
0.997604
1.00861
1.01974
1.03057
1.04149
1.05213
1.06279
1.0732
1.08363
1.09378
1.10401
1.11388
1.12396
1.13357
1.14361
1.15307
1.16309
1.17241
1.18225
1.1913
1.20086
1.20964
1.21885
1.22728
1.23602
1.24395
1.25198
1.25907
1.26589
1.27142
1.27571
1.27853
1.02073
1.05923
1.06189
1.03945
1.00212
0.949017
0.889774
0.827185
0.764942
0.705766
0.648895
0.602402
0.569507
0.552456
0.551238
0.561668
0.577183
0.589421
0.597644
0.605856
0.613357
0.620905
0.628773
0.637293
0.646597
0.65632
0.666638
0.676785
0.687179
0.697104
0.70726
0.716992
0.727049
0.736725
0.746594
0.756097
0.76572
0.774992
0.784515
0.793817
0.80354
0.813157
0.823016
0.832351
0.841631
0.851023
0.861231
0.871764
0.882184
0.892369
0.902554
0.91267
0.922949
0.933124
0.943505
0.953703
0.964125
0.974319
0.98474
0.99491
1.0053
1.01543
1.02578
1.03588
1.04617
1.05624
1.06646
1.07651
1.08663
1.09666
1.10664
1.11662
1.12644
1.13635
1.14601
1.15579
1.16528
1.17491
1.18433
1.1939
1.20335
1.21284
1.22222
1.23155
1.24077
1.24992
1.25893
1.26788
1.2766
1.28529
1.29366
1.30199
1.3099
1.31769
1.32496
1.33189
1.33806
1.3435
1.34736
1.35022
1.03103
1.08097
1.10486
1.10619
1.09043
1.06046
1.02014
0.975374
0.926395
0.879214
0.835256
0.799069
0.776668
0.76678
0.771208
0.782397
0.79816
0.814284
0.825123
0.830111
0.832365
0.83329
0.834373
0.836501
0.839226
0.842656
0.846537
0.850767
0.855141
0.859586
0.864106
0.868822
0.873699
0.878819
0.884097
0.889613
0.895201
0.901109
0.907008
0.913428
0.919806
0.926872
0.933714
0.940817
0.947339
0.954531
0.962061
0.970602
0.978823
0.987356
0.995606
1.0042
1.01271
1.02152
1.03033
1.03934
1.04838
1.05754
1.06675
1.07603
1.08534
1.09471
1.10406
1.11351
1.12288
1.13239
1.14174
1.1513
1.16059
1.17015
1.17933
1.18883
1.19786
1.20727
1.21617
1.22547
1.23436
1.24362
1.25254
1.26163
1.2705
1.27939
1.28822
1.2969
1.30563
1.31411
1.32271
1.33097
1.33938
1.34738
1.35552
1.36319
1.37092
1.37811
1.38519
1.39159
1.39757
1.40259
1.40626
1.40888
1.0368
1.0904
1.12593
1.14247
1.14273
1.12887
1.10261
1.06897
1.03045
0.991174
0.956979
0.929709
0.915086
0.912895
0.923182
0.939632
0.957409
0.972403
0.984872
0.992102
0.992611
0.988421
0.983531
0.979689
0.977053
0.975848
0.97528
0.975667
0.976304
0.97722
0.978413
0.979879
0.981708
0.983896
0.986514
0.989432
0.992716
0.996302
1.00018
1.00448
1.00907
1.01418
1.01952
1.02491
1.03019
1.03575
1.04208
1.04906
1.05633
1.06358
1.07104
1.07841
1.0861
1.09369
1.10165
1.10948
1.11771
1.12578
1.13421
1.14249
1.15109
1.15955
1.16827
1.17688
1.18568
1.19443
1.20326
1.21212
1.22094
1.22987
1.23865
1.24759
1.2563
1.26525
1.27399
1.28293
1.29164
1.30045
1.3091
1.31775
1.32633
1.3348
1.34328
1.35155
1.35989
1.36797
1.37611
1.38398
1.39187
1.39947
1.40704
1.41429
1.42139
1.42812
1.43457
1.44049
1.44586
1.45039
1.45353
1.45585
1.04027
1.09371
1.13384
1.15931
1.16942
1.16567
1.14883
1.1215
1.08994
1.05744
1.02996
1.01029
1.0013
1.00663
1.02348
1.04576
1.06739
1.08417
1.09537
1.10386
1.10734
1.10463
1.09746
1.09005
1.08377
1.07933
1.07625
1.07428
1.07285
1.07188
1.07117
1.0708
1.07075
1.0711
1.07185
1.07308
1.07462
1.07667
1.07895
1.08176
1.08474
1.08839
1.09219
1.09619
1.10002
1.10422
1.10907
1.11466
1.12065
1.12679
1.13321
1.13964
1.14639
1.1531
1.1602
1.16726
1.17474
1.18215
1.18995
1.19767
1.20572
1.21369
1.22192
1.23011
1.23847
1.24686
1.25534
1.2639
1.27243
1.28109
1.28961
1.29834
1.3069
1.3156
1.32408
1.33267
1.34112
1.34959
1.35802
1.36633
1.37474
1.38287
1.39122
1.39915
1.4074
1.41513
1.42322
1.43071
1.43858
1.44578
1.45333
1.46013
1.4672
1.47343
1.47978
1.48516
1.49026
1.49418
1.49686
1.49882
1.04281
1.09324
1.13406
1.1626
1.17738
1.17798
1.1649
1.14103
1.11458
1.08902
1.06736
1.05362
1.05037
1.06294
1.08752
1.11459
1.13979
1.15903
1.17168
1.17908
1.18516
1.18641
1.18209
1.17425
1.16574
1.15844
1.15244
1.14808
1.14449
1.14173
1.13931
1.13733
1.13572
1.13444
1.13372
1.13331
1.13351
1.13409
1.13506
1.13652
1.13831
1.14075
1.14342
1.1464
1.14924
1.1525
1.15635
1.16099
1.16607
1.17146
1.17719
1.18302
1.18917
1.19535
1.20187
1.20844
1.21536
1.22234
1.22964
1.23699
1.24457
1.25224
1.26002
1.26797
1.27594
1.28414
1.29227
1.3007
1.30895
1.31756
1.32592
1.33458
1.3429
1.35151
1.35982
1.36833
1.37663
1.38502
1.39331
1.40155
1.40981
1.41789
1.42611
1.43402
1.44216
1.44987
1.45785
1.46532
1.47303
1.48018
1.48748
1.49418
1.50089
1.50695
1.5128
1.51783
1.52223
1.52565
1.52747
1.52927
1.04538
1.09074
1.12878
1.15619
1.17063
1.17077
1.15736
1.137
1.11529
1.09558
1.08107
1.07353
1.07772
1.09785
1.12792
1.1581
1.18428
1.20548
1.22041
1.22947
1.23548
1.23979
1.24036
1.23604
1.22878
1.22059
1.21291
1.20617
1.20074
1.19621
1.19261
1.1895
1.18703
1.18488
1.18329
1.18213
1.18148
1.18132
1.18159
1.18235
1.18347
1.18521
1.18731
1.18969
1.19207
1.19475
1.19809
1.20208
1.20663
1.21145
1.21672
1.2221
1.22785
1.23363
1.23979
1.24599
1.25254
1.25917
1.26608
1.27309
1.28029
1.28763
1.29505
1.30269
1.31031
1.31823
1.32603
1.3342
1.34218
1.35048
1.35847
1.36678
1.37479
1.38306
1.39107
1.39926
1.40727
1.41535
1.42337
1.4313
1.4393
1.44705
1.45497
1.46252
1.47032
1.47764
1.48525
1.49231
1.49961
1.50632
1.51316
1.51936
1.52554
1.53102
1.53618
1.54041
1.54389
1.54625
1.54704
1.54852
1.04803
1.08623
1.11891
1.14122
1.15091
1.14682
1.1334
1.11708
1.09991
1.08677
1.07923
1.08012
1.09443
1.12116
1.1522
1.18187
1.2079
1.22968
1.24678
1.25948
1.26776
1.27339
1.27733
1.27826
1.27501
1.26903
1.26199
1.25417
1.2469
1.24064
1.23551
1.2313
1.22786
1.22503
1.2228
1.22099
1.21975
1.21887
1.2185
1.21856
1.2191
1.22013
1.22174
1.2236
1.22558
1.22774
1.23061
1.23403
1.23809
1.24238
1.24725
1.2522
1.25766
1.26309
1.26902
1.27491
1.28127
1.28762
1.29439
1.30117
1.30828
1.31543
1.3228
1.33029
1.33789
1.34568
1.3535
1.36153
1.36944
1.37758
1.38557
1.39376
1.4018
1.40998
1.41807
1.42618
1.43429
1.44229
1.4504
1.45826
1.46634
1.47403
1.48205
1.48954
1.49742
1.50467
1.51229
1.51922
1.52643
1.53292
1.53948
1.54538
1.55111
1.55603
1.56039
1.56367
1.56602
1.56685
1.56674
1.56838
1.04929
1.07953
1.10305
1.11774
1.11983
1.1122
1.1003
1.08686
1.07594
1.0698
1.07049
1.08241
1.10563
1.13436
1.1637
1.19138
1.21617
1.23816
1.25684
1.27247
1.28435
1.29336
1.29895
1.30285
1.30441
1.30287
1.29873
1.29302
1.28557
1.27813
1.27143
1.26595
1.2614
1.25793
1.25505
1.2529
1.25123
1.25006
1.24938
1.24914
1.24937
1.25013
1.25143
1.25312
1.25483
1.25677
1.25931
1.26242
1.26611
1.27008
1.27462
1.27933
1.28457
1.28987
1.29562
1.30138
1.30754
1.31373
1.32025
1.32683
1.33367
1.34062
1.34774
1.35503
1.36242
1.37003
1.3776
1.38538
1.39307
1.40099
1.40877
1.41677
1.42462
1.43261
1.44048
1.4484
1.45628
1.46409
1.47197
1.47964
1.48751
1.49503
1.50282
1.51014
1.51773
1.52478
1.53204
1.53871
1.54544
1.55157
1.55753
1.56299
1.56783
1.57202
1.57514
1.57734
1.5779
1.5777
1.57676
1.57833
1.04864
1.06825
1.08143
1.0854
1.08111
1.07233
1.06231
1.05408
1.0496
1.05157
1.0637
1.08548
1.11156
1.13874
1.16517
1.19039
1.21424
1.23623
1.2563
1.27404
1.28924
1.30151
1.31116
1.31762
1.32193
1.32427
1.32443
1.32226
1.31806
1.31146
1.30454
1.29779
1.2924
1.28789
1.28448
1.28191
1.27991
1.27861
1.27759
1.27719
1.27709
1.27754
1.27858
1.27998
1.28153
1.2832
1.28546
1.28818
1.29161
1.29525
1.29954
1.30396
1.30898
1.31404
1.31961
1.32518
1.33119
1.33721
1.34361
1.35006
1.3568
1.36365
1.37068
1.37791
1.38518
1.39264
1.40004
1.40767
1.41522
1.42297
1.43068
1.43845
1.44628
1.454
1.46187
1.46954
1.47739
1.48501
1.49277
1.50037
1.50797
1.51552
1.52291
1.5303
1.53741
1.54445
1.5512
1.55766
1.56383
1.56951
1.57492
1.57951
1.58355
1.5864
1.58833
1.58862
1.58806
1.58704
1.58456
1.58538
1.04314
1.05095
1.0523
1.0477
1.04006
1.03156
1.02541
1.02258
1.02646
1.0404
1.06258
1.08712
1.11239
1.1369
1.161
1.18406
1.20693
1.22862
1.24961
1.26881
1.28652
1.30161
1.31468
1.32473
1.33284
1.33758
1.34096
1.34243
1.34208
1.33936
1.33434
1.32808
1.32212
1.31677
1.31261
1.30921
1.30682
1.305
1.30379
1.30314
1.30285
1.30313
1.30396
1.30522
1.30674
1.30829
1.31032
1.31277
1.31597
1.31938
1.32344
1.32762
1.33246
1.33731
1.34275
1.34814
1.35404
1.35989
1.36614
1.37243
1.379
1.38572
1.39262
1.3997
1.40678
1.41406
1.4213
1.42874
1.43613
1.44369
1.4512
1.45884
1.46642
1.47407
1.48169
1.48927
1.4969
1.50435
1.51194
1.51926
1.52673
1.53393
1.54116
1.54819
1.55504
1.56173
1.56801
1.5741
1.57956
1.58482
1.58921
1.59297
1.59558
1.59704
1.59714
1.59635
1.59495
1.59201
1.58688
1.58557
1.0308
1.02648
1.01815
1.00883
0.999669
0.994157
0.992334
0.998064
1.01392
1.03693
1.06139
1.08526
1.10864
1.13102
1.15328
1.17497
1.1971
1.21865
1.24015
1.26044
1.27976
1.29702
1.31271
1.32592
1.33733
1.34602
1.35263
1.35661
1.35929
1.36023
1.35935
1.35608
1.35114
1.34603
1.34123
1.33715
1.33396
1.33147
1.3299
1.32884
1.32845
1.32857
1.3292
1.33033
1.33189
1.33332
1.33523
1.3374
1.34044
1.34353
1.34741
1.35125
1.35589
1.36045
1.36572
1.37089
1.37665
1.38233
1.38847
1.39461
1.40108
1.40767
1.41444
1.42129
1.42824
1.43526
1.44238
1.44955
1.45682
1.46413
1.4715
1.47893
1.48632
1.49382
1.50117
1.50866
1.51595
1.52334
1.53058
1.53778
1.54494
1.55188
1.55885
1.56542
1.57199
1.57802
1.58389
1.58913
1.59406
1.59825
1.6016
1.60395
1.60483
1.60469
1.60374
1.60181
1.59846
1.5927
1.58414
1.58107
1.0119
0.997869
0.982695
0.97035
0.964088
0.962335
0.969212
0.98676
1.01113
1.03591
1.05949
1.08155
1.10294
1.12366
1.14457
1.16536
1.18681
1.2083
1.22997
1.25097
1.27123
1.29016
1.30775
1.32353
1.3377
1.34966
1.35976
1.36737
1.37299
1.37637
1.37873
1.37941
1.37795
1.37464
1.37043
1.36624
1.36234
1.35924
1.35699
1.35545
1.35474
1.35449
1.35489
1.35584
1.35725
1.3587
1.36035
1.36234
1.36493
1.36794
1.37143
1.3752
1.37948
1.38396
1.38892
1.39402
1.39949
1.4051
1.41098
1.41703
1.4233
1.42975
1.43627
1.44293
1.44967
1.45649
1.46345
1.47038
1.47753
1.48456
1.49183
1.49897
1.50628
1.51349
1.52074
1.52797
1.53508
1.54227
1.5492
1.55624
1.56294
1.5697
1.57609
1.58238
1.58826
1.59377
1.59886
1.60336
1.60736
1.61023
1.61224
1.61261
1.61208
1.61086
1.60865
1.60417
1.5974
1.589
1.57925
1.57581
0.986186
0.963955
0.945295
0.936844
0.934702
0.941793
0.960542
0.986225
1.01175
1.03527
1.05694
1.07729
1.097
1.11661
1.13645
1.15675
1.1776
1.19906
1.2206
1.24209
1.26286
1.28296
1.30184
1.31952
1.3358
1.35041
1.3634
1.37435
1.38338
1.39015
1.39499
1.39813
1.40037
1.40088
1.39924
1.39592
1.39221
1.38875
1.3857
1.3836
1.38209
1.38148
1.38141
1.38205
1.38328
1.38468
1.38624
1.38802
1.3903
1.39313
1.39629
1.39988
1.40376
1.40803
1.41261
1.41751
1.42268
1.42812
1.43378
1.43972
1.4458
1.45211
1.4584
1.46495
1.47142
1.47815
1.48478
1.49164
1.49845
1.50536
1.51234
1.51925
1.52633
1.53322
1.5403
1.54714
1.55411
1.56085
1.5676
1.57418
1.5806
1.58688
1.5928
1.59854
1.6037
1.60853
1.61271
1.61632
1.61889
1.62028
1.62034
1.61937
1.61786
1.61482
1.60981
1.60185
1.59284
1.58369
1.57433
1.57148
0.949894
0.926994
0.914826
0.911002
0.917295
0.936524
0.963463
0.989771
1.01366
1.03497
1.05469
1.07347
1.09213
1.11094
1.13024
1.15012
1.17062
1.19182
1.21314
1.23471
1.25567
1.27648
1.29613
1.31529
1.333
1.34983
1.36494
1.37875
1.39057
1.40074
1.40869
1.41472
1.41918
1.42251
1.4243
1.42445
1.42266
1.41955
1.41649
1.41349
1.41135
1.40978
1.40915
1.40919
1.41
1.41124
1.41276
1.41426
1.41629
1.41872
1.42165
1.42489
1.42852
1.43247
1.43681
1.44141
1.44638
1.45156
1.45709
1.46279
1.46873
1.47473
1.48089
1.48715
1.49346
1.49995
1.50638
1.51307
1.51959
1.52642
1.53303
1.53987
1.54657
1.55333
1.56006
1.56667
1.57332
1.57972
1.58616
1.59226
1.5983
1.60394
1.6093
1.61419
1.6185
1.62242
1.62546
1.62771
1.62838
1.62809
1.62694
1.62474
1.62116
1.61467
1.60649
1.59697
1.58748
1.57919
1.57146
1.56967
0.909194
0.894998
0.890116
0.895922
0.915579
0.943393
0.970475
0.994573
1.0159
1.03512
1.05321
1.07095
1.08887
1.10724
1.12614
1.14572
1.16589
1.18675
1.20782
1.22921
1.25035
1.27129
1.2916
1.31141
1.33032
1.34847
1.36538
1.38128
1.39545
1.40846
1.41927
1.42869
1.43563
1.44168
1.44586
1.44877
1.45021
1.45006
1.44801
1.44527
1.44235
1.44008
1.43836
1.4376
1.43752
1.43837
1.43966
1.44102
1.44261
1.44468
1.44728
1.45027
1.45357
1.45723
1.46122
1.46555
1.47023
1.47518
1.48052
1.48594
1.49167
1.49735
1.50338
1.50927
1.51552
1.52162
1.52803
1.53435
1.54083
1.54734
1.55382
1.56041
1.56685
1.57343
1.57977
1.58619
1.59237
1.59848
1.60441
1.61003
1.61549
1.62039
1.62503
1.62886
1.63237
1.635
1.63666
1.63687
1.63608
1.63455
1.63202
1.62713
1.6201
1.61098
1.60139
1.59192
1.5835
1.57712
1.57165
1.57099
0.873795
0.868698
0.875472
0.896625
0.925971
0.953918
0.978509
0.99978
1.0187
1.03623
1.05315
1.07027
1.08771
1.10582
1.12443
1.14376
1.16358
1.18401
1.20484
1.22588
1.24691
1.26779
1.28847
1.30867
1.32847
1.34746
1.36578
1.38301
1.39921
1.41413
1.42761
1.4396
1.4497
1.45805
1.46483
1.47061
1.47419
1.47645
1.4772
1.47634
1.47413
1.47128
1.46897
1.46695
1.46597
1.46567
1.46641
1.46757
1.46879
1.47032
1.47237
1.47504
1.47799
1.48139
1.48499
1.48909
1.49336
1.49816
1.50308
1.50839
1.51375
1.51936
1.52508
1.5309
1.5369
1.54288
1.54909
1.55522
1.56155
1.56778
1.57415
1.5804
1.58669
1.59291
1.59901
1.60509
1.61088
1.61665
1.62199
1.62716
1.63184
1.63598
1.63961
1.64248
1.64484
1.64571
1.64558
1.64436
1.64251
1.63897
1.63315
1.62498
1.61568
1.60585
1.59653
1.58855
1.58217
1.5781
1.57475
1.57509
0.838148
0.849078
0.875039
0.907732
0.937816
0.963262
0.984743
1.00359
1.02087
1.0376
1.05424
1.07125
1.08866
1.10664
1.12508
1.14411
1.16359
1.18363
1.204
1.22466
1.24542
1.26618
1.28689
1.30727
1.32745
1.34697
1.36611
1.38428
1.4019
1.41823
1.43371
1.44767
1.46037
1.47125
1.48041
1.48803
1.49477
1.4992
1.50182
1.50313
1.50326
1.50177
1.49922
1.49674
1.49436
1.49306
1.49231
1.49275
1.49366
1.49465
1.49608
1.49806
1.50079
1.50382
1.50724
1.51099
1.51505
1.51959
1.52424
1.52934
1.53443
1.53993
1.54537
1.55113
1.55688
1.56281
1.56878
1.57483
1.58097
1.58708
1.59327
1.59936
1.60548
1.61145
1.61732
1.62307
1.62849
1.63382
1.63853
1.64307
1.64675
1.65001
1.65244
1.65424
1.65461
1.65398
1.65254
1.65001
1.6454
1.63856
1.6297
1.62003
1.61014
1.60116
1.59348
1.58775
1.5838
1.58174
1.58018
1.58129
0.800787
0.838267
0.880628
0.916193
0.94448
0.96739
0.986939
1.00472
1.02164
1.03842
1.05533
1.07258
1.0902
1.1082
1.1266
1.14544
1.16467
1.18436
1.20435
1.22467
1.24511
1.26567
1.28619
1.30658
1.32679
1.34663
1.3661
1.385
1.40329
1.42082
1.4375
1.45306
1.46748
1.48045
1.49188
1.50141
1.5097
1.51691
1.52225
1.52523
1.52672
1.52722
1.52659
1.52455
1.52164
1.5192
1.51709
1.51613
1.51599
1.51664
1.51751
1.51876
1.52083
1.52337
1.52667
1.52999
1.53399
1.53804
1.54265
1.54736
1.55245
1.55771
1.56313
1.56878
1.57447
1.58037
1.58627
1.59227
1.59832
1.60432
1.61041
1.6163
1.62229
1.62793
1.63363
1.63886
1.64398
1.6486
1.65273
1.6563
1.65901
1.66124
1.66236
1.66243
1.66144
1.65968
1.65634
1.65068
1.64275
1.63357
1.62364
1.61404
1.6053
1.59818
1.59292
1.58949
1.58765
1.58694
1.58661
1.58848
0.756774
0.821381
0.871819
0.9092
0.937461
0.960394
0.98055
0.9994
1.01765
1.03569
1.05373
1.07182
1.09006
1.10841
1.12701
1.14587
1.16506
1.18455
1.20435
1.22439
1.24456
1.26482
1.28511
1.30533
1.32546
1.34533
1.36496
1.38412
1.40286
1.42088
1.43826
1.45468
1.47025
1.48454
1.49772
1.50941
1.51944
1.52803
1.53563
1.54133
1.5449
1.54642
1.54683
1.54658
1.545
1.54224
1.53961
1.537
1.5357
1.53505
1.53545
1.53616
1.53729
1.53922
1.54183
1.5451
1.54877
1.55272
1.55707
1.5616
1.56653
1.57162
1.57703
1.58257
1.5883
1.59416
1.60008
1.60613
1.6121
1.61819
1.62411
1.63003
1.63579
1.64132
1.64673
1.6516
1.65633
1.66019
1.66365
1.66605
1.66802
1.66864
1.66844
1.66737
1.66487
1.66062
1.6538
1.64539
1.63574
1.62589
1.61649
1.60824
1.60162
1.59682
1.59388
1.59242
1.59212
1.59235
1.59256
1.59486
0.700307
0.782095
0.839543
0.880205
0.911328
0.937533
0.961137
0.983322
1.00453
1.025
1.04503
1.06471
1.08417
1.10347
1.12274
1.14209
1.16155
1.1812
1.20106
1.22109
1.24121
1.26131
1.28143
1.30149
1.32143
1.3412
1.36071
1.37988
1.39864
1.41689
1.43458
1.45155
1.46777
1.483
1.49725
1.51012
1.52175
1.53166
1.54046
1.54807
1.55417
1.55822
1.56043
1.56096
1.56072
1.55964
1.55731
1.55434
1.55177
1.54977
1.54882
1.54883
1.54945
1.55049
1.55225
1.55501
1.55837
1.56227
1.56639
1.57089
1.57561
1.58068
1.58598
1.59151
1.59726
1.60309
1.60912
1.61513
1.62121
1.62727
1.63318
1.63912
1.64466
1.65018
1.6551
1.6598
1.66369
1.667
1.66931
1.67093
1.67143
1.67113
1.66981
1.66681
1.66123
1.65378
1.64481
1.63519
1.62547
1.61657
1.60885
1.60285
1.59857
1.59613
1.59509
1.59509
1.5955
1.59634
1.59702
1.59938
0.64235
0.728909
0.787815
0.831423
0.86713
0.898649
0.927518