/*--------------------------------*- C++ -*----------------------------------*\
  =========                 |
  \\      /  F ield         | OpenFOAM: The Open Source CFD Toolbox
   \\    /   O peration     | Website:  https://openfoam.org
    \\  /    A nd           | Version:  13
     \\/     M anipulation  |
\*---------------------------------------------------------------------------*/
FoamFile
{
    format      ascii;
    class       volScalarField;
    location    "9";
    object      p;
}
// * * * * * * * * * * * * * * * * * * * * * * * * * * * * * * * * * * * * * //

dimensions      [1 -1 -2 0 0 0 0];

internalField   nonuniform List<scalar> 
5250
(
1.00001
1.00004
1.00011
1.00027
1.00075
1.00168
1.00455
1.0103
1.02739
1.06455
1.16765
1.43096
2.19203
4.44081
10.374
11.2291
11.1001
11.0812
11.1726
11.3972
11.6143
11.754
11.8638
11.9506
12.0175
1.00001
1.00004
1.00011
1.00027
1.00074
1.00167
1.00449
1.01023
1.02702
1.06398
1.16563
1.42616
2.1776
4.39794
10.2876
11.2235
11.0949
11.0728
11.164
11.3883
11.6049
11.7451
11.8565
11.9446
12.0131
1.00001
1.00004
1.00011
1.00026
1.00071
1.00164
1.00438
1.00998
1.02649
1.06232
1.16205
1.4153
2.14819
4.30571
10.0944
11.2105
11.0799
11.0455
11.1339
11.3538
11.5673
11.7054
11.8161
11.9033
11.9714
1.00001
1.00004
1.0001
1.00027
1.00065
1.00168
1.00401
1.01007
1.02475
1.06136
1.15465
1.40113
2.10157
4.16776
9.79056
11.1965
11.0586
10.9996
11.0824
11.2935
11.5014
11.6349
11.742
11.8266
11.895
1.00001
1.00003
1.0001
1.00025
1.00063
1.00159
1.00378
1.00976
1.02305
1.05927
1.14561
1.38183
2.0387
3.98638
9.36984
11.187
11.0335
10.9363
11.0116
11.2102
11.4105
11.5371
11.6384
11.7193
11.7888
1.00001
1.00003
1.00009
1.00024
1.00059
1.00148
1.00356
1.00909
1.02163
1.05537
1.13605
1.3556
1.9632
3.75997
8.82069
11.1893
11.0076
10.8554
10.9208
11.1024
11.2914
11.4067
11.4976
11.5704
11.6401
1.00001
1.00003
1.00009
1.00021
1.00056
1.00131
1.00344
1.00789
1.02089
1.04898
1.1271
1.32149
1.8769
3.48991
8.13381
11.206
10.9834
10.7577
10.8106
10.9695
11.1417
11.2389
11.3109
11.3665
11.4301
1.00001
1.00002
1.00008
1.00019
1.00051
1.00116
1.0031
1.00713
1.0186
1.04427
1.11327
1.28696
1.77409
3.18694
7.30705
11.2411
10.9614
10.6438
10.6816
10.8105
10.9583
11.0275
11.0671
11.0858
11.1233
1
1.00002
1.00006
1.00018
1.00041
1.0011
1.00252
1.00671
1.01539
1.04046
1.09659
1.25193
1.66327
2.86387
6.37601
11.2495
10.9322
10.521
10.5371
10.6251
10.7381
10.7651
10.7521
10.6962
10.6444
1
1.00002
1.00006
1.00016
1.00036
1.00096
1.00218
1.00579
1.0133
1.0346
1.08289
1.21362
1.55627
2.53903
5.3852
11.1438
10.8505
10.4012
10.3708
10.4163
10.4752
10.4525
10.3579
10.14
9.82134
1
1.00002
1.00005
1.00012
1.00034
1.00077
1.00204
1.00473
1.01221
1.0291
1.07366
1.1836
1.48143
2.32326
4.79246
10.6491
10.5923
10.3005
10.1732
10.1839
10.1756
10.0932
9.84933
9.28531
7.85225
1
1.00001
1.00005
1.00011
1.00029
1.00067
1.00179
1.00404
1.0108
1.02487
1.06481
1.15804
1.4162
2.13263
4.23571
9.65012
10.3118
10.1617
9.97635
9.9415
9.87331
9.70459
9.32624
8.56823
7.11308
1
1.00001
1.00004
1.00009
1.00025
1.00057
1.00154
1.00348
1.00926
1.02138
1.05556
1.13517
1.35371
1.95415
3.70815
8.48441
10.1464
10.039
9.80789
9.70006
9.58084
9.33722
8.86894
8.11221
6.9851
1
1.00001
1.00003
1.00008
1.0002
1.00051
1.00122
1.00311
1.0073
1.01891
1.0449
1.11505
1.29063
1.78366
3.19677
7.1838
10.0467
9.93943
9.67032
9.47291
9.29916
9.01251
8.53835
7.85296
6.97114
1
1.00001
1.00003
1.00006
1.00017
1.00039
1.00105
1.00237
1.00634
1.01449
1.03793
1.09059
1.23473
1.61395
2.70181
5.78472
9.89848
9.82901
9.56627
9.2693
9.04416
8.7432
8.29457
7.68567
6.94876
1
1.00001
1.00002
1.00005
1.00013
1.00033
1.0008
1.00199
1.00476
1.01209
1.02879
1.07291
1.18035
1.47085
2.27273
4.5318
9.47098
9.64916
9.46044
9.09337
8.8244
8.52033
8.10208
7.55745
6.91749
1
1.00001
1.00002
1.00004
1.00011
1.00026
1.00064
1.0016
1.00381
1.00971
1.02295
1.05862
1.14332
1.37332
2.00174
3.80665
8.40569
9.38952
9.26116
8.9526
8.6408
8.33153
7.94201
7.45213
6.88718
1
1
1.00001
1.00004
1.00008
1.00022
1.00049
1.0013
1.00295
1.00777
1.01803
1.04631
1.11259
1.29073
1.77147
3.14455
6.86629
9.14578
9.0783
8.84666
8.4959
8.17275
7.80631
7.36427
6.86222
1
1
1.00001
1.00002
1.00007
1.00015
1.00041
1.00092
1.00245
1.00553
1.01459
1.03392
1.08715
1.2156
1.56841
2.54425
5.23543
8.87281
8.93713
8.77309
8.41027
8.04821
7.6933
7.29254
6.84489
1
1
1.00001
1.00002
1.00005
1.00012
1.0003
1.0007
1.00181
1.00414
1.0109
1.02505
1.06493
1.15686
1.40921
2.08619
3.95318
8.20031
8.80155
8.6672
8.3404
7.9504
7.60278
7.23723
6.83978
1
1
1.00001
1.00002
1.00004
1.00009
1.00022
1.00054
1.00132
1.00319
1.00803
1.01904
1.04835
1.11746
1.30271
1.79768
3.1901
6.78923
8.55572
8.49627
8.27895
7.88217
7.53573
7.19847
6.84316
1
1
1
1.00001
1.00003
1.00007
1.00015
1.00041
1.00093
1.00244
1.00566
1.01435
1.03459
1.08628
1.21614
1.56353
2.52047
5.08792
8.2198
8.34845
8.20959
7.87816
7.50695
7.18401
6.85704
1
1
1
1.00001
1.00002
1.00005
1.00011
1.00029
1.00067
1.00175
1.00397
1.01042
1.02386
1.06183
1.14837
1.38516
2.0094
3.69023
7.46889
8.22348
8.12764
7.87046
7.51051
7.19107
6.8916
1
1
1
1.00001
1.00001
1.00003
1.00009
1.00019
1.00051
1.00116
1.00302
1.00702
1.01776
1.0428
1.10678
1.26874
1.70436
2.89642
5.95702
7.99952
7.98959
7.85368
7.53994
7.22165
6.96403
1
1
1
1
1.00001
1.00002
1.00006
1.00013
1.00036
1.0008
1.0021
1.00481
1.01236
1.02908
1.07313
1.17975
1.4626
2.21326
4.15761
7.53668
7.93255
7.83946
7.6058
7.30148
7.09901
1
1
1
1
1.00001
1.00002
1.00004
1.00009
1.00024
1.00057
1.00141
1.00346
1.00826
1.02076
1.0495
1.12462
1.31191
1.81945
3.1727
6.45469
7.79526
7.78966
7.69145
7.47013
7.3172
1
1
1
1
1
1.00001
1.00003
1.00006
1.00017
1.00039
1.00097
1.00237
1.00567
1.01424
1.03383
1.08505
1.20986
1.54462
2.43596
4.74386
7.45692
7.79241
7.7667
7.68714
7.65296
1
1
1
1
1
1.00001
1.00002
1.00004
1.00011
1.00026
1.00068
1.00152
1.00403
1.00902
1.0237
1.0548
1.14028
1.34844
1.91031
3.36689
6.66464
7.75309
7.92928
7.97322
8.06171
1
1
1
1
1
1
1.00001
1.00003
1.00008
1.00018
1.00044
1.00108
1.00259
1.00648
1.01525
1.03852
1.09241
1.23467
1.60106
2.58894
5.08584
7.57185
8.22402
8.44382
8.65668
1
1
1
1
1
1
1.00001
1.00002
1.00005
1.00012
1.00031
1.00069
1.00182
1.00409
1.01074
1.02448
1.06313
1.1507
1.38835
2.00053
3.58577
7.04689
8.60455
9.12129
9.38935
1
1
1
1
1
1
1.00001
1.00001
1.00004
1.00008
1.00021
1.00048
1.00126
1.00289
1.00739
1.01742
1.04353
1.10619
1.26873
1.69854
2.86429
5.84727
9.00389
9.97941
10.1466
1
1
1
1
1
1
1
1.00001
1.00002
1.00006
1.00015
1.00035
1.0009
1.00205
1.00538
1.0122
1.03198
1.07468
1.19242
1.48797
2.30433
4.46896
9.14908
10.8873
10.8691
1
1
1
1
1
1
1
1.00001
1.00002
1.00005
1.00011
1.00028
1.00068
1.00164
1.00418
1.00982
1.02527
1.06032
1.15446
1.39523
2.07587
4.01512
8.97791
11.5355
11.4407
1
1
1
1
1
1
1
1.00001
1.00001
1.00004
1.00009
1.00024
1.00055
1.00144
1.00335
1.00871
1.02076
1.0529
1.13136
1.34274
1.93314
3.68199
8.55832
11.9635
11.7361
1
1
1
1
1
1
1
1.00001
1.00001
1.00003
1.00008
1.00021
1.00048
1.00128
1.00291
1.00786
1.01813
1.04802
1.11666
1.30904
1.83763
3.43642
8.13546
12.2748
11.8396
1
1
1
1
1
1
1
1
1.00001
1.00003
1.00007
1.00019
1.00043
1.00116
1.00266
1.00717
1.01661
1.04418
1.10723
1.28479
1.77021
3.25357
7.75209
12.4544
11.7788
1
1
1
1
1
1
1
1
1.00001
1.00003
1.00007
1.00016
1.00043
1.00101
1.00261
1.0064
1.01596
1.04023
1.10097
1.26317
1.71426
3.08583
7.31844
12.5502
11.6808
1
1
1
1
1
1
1
1
1.00001
1.00003
1.00006
1.00016
1.00038
1.00102
1.00232
1.00628
1.0145
1.03853
1.09326
1.2466
1.66092
2.92101
6.82278
12.6123
11.6459
1
1
1
1
1
1
1
1
1.00001
1.00002
1.00006
1.00015
1.00039
1.0009
1.00238
1.0056
1.01449
1.03517
1.08967
1.22862
1.61505
2.75858
6.28757
12.6073
11.634
1
1
1
1
1
1
1
1
1.00001
1.00002
1.00006
1.00015
1.00035
1.00094
1.00214
1.00574
1.01322
1.03502
1.08392
1.21995
1.5801
2.64608
5.87765
12.5107
11.6229
1
1
1
1
1
1
1
1
1.00001
1.00002
1.00006
1.00014
1.00035
1.00088
1.00212
1.00547
1.01293
1.03355
1.08132
1.2111
1.55591
2.56785
5.62351
12.2656
11.5762
1
1
1
1
1
1
1
1
1.00001
1.00002
1.00006
1.00013
1.00036
1.00082
1.00215
1.00512
1.01295
1.03187
1.0798
1.20294
1.537
2.50502
5.42375
12.0209
11.5142
1
1
1
1
1
1
1
1
1.00001
1.00002
1.00005
1.00014
1.00033
1.00086
1.00197
1.00527
1.01207
1.03204
1.07608
1.19888
1.51828
2.45348
5.25659
11.795
11.4355
1
1
1
1
1
1
1
1
1.00001
1.00002
1.00005
1.00014
1.00032
1.00084
1.00196
1.00505
1.01213
1.03053
1.0755
1.1922
1.5055
2.40787
5.11693
11.587
11.3436
1
1
1
1
1
1
1
1
1.00001
1.00002
1.00005
1.00013
1.00033
1.00078
1.00202
1.00472
1.01235
1.02912
1.07502
1.18652
1.49447
2.37046
5.00121
11.4027
11.2578
1
1
1
1
1
1
1
1
1.00001
1.00002
1.00005
1.00013
1.00031
1.00082
1.00185
1.00498
1.01134
1.03012
1.07128
1.18574
1.48139
2.34181
4.90737
11.2468
11.1828
1
1
1
1
1
1
1
1
1.00001
1.00002
1.00005
1.00013
1.0003
1.00081
1.00183
1.00489
1.01126
1.02941
1.0706
1.18218
1.47364
2.31742
4.83504
11.1239
11.1219
1
1
1
1
1
1
1
1
1.00001
1.00002
1.00005
1.00012
1.00032
1.00074
1.00197
1.00447
1.01194
1.02762
1.07201
1.17717
1.46997
2.29798
4.77951
11.0223
11.1051
1
1
1
1
1
1
1
1
1.00001
1.00002
1.00005
1.00013
1.00031
1.00075
1.0019
1.00453
1.01165
1.02773
1.07095
1.17629
1.46527
2.28555
4.74198
10.9519
11.0994
1
1
1
1
1
1
1
1
1.00001
1.00002
1.00005
1.00013
1.0003
1.00078
1.00181
1.00471
1.0112
1.02833
1.06962
1.17686
1.46186
2.27968
4.72249
10.916
11.0978
3.79046
3.2848
4.27564
4.29252
4.05548
3.95955
3.91061
3.8262
3.72662
3.63955
3.5699
3.50634
3.46551
3.44878
3.44543
3.46614
3.51566
3.58705
3.67277
3.76375
3.85615
3.94748
4.03694
4.12437
4.20966
4.29264
4.3728
4.4501
4.52481
4.59597
4.66224
4.72237
4.77661
4.82515
4.86832
4.90591
4.93901
4.96905
4.99335
5.01044
5.022
5.02878
5.0309
5.02965
5.02501
5.01491
5.00032
4.98269
4.96244
4.9393
4.91364
4.88537
4.85497
4.82236
4.78786
4.75149
4.71346
4.6738
4.63273
4.59021
4.54649
4.5015
4.4555
4.4084
4.36046
4.31163
4.26209
4.21187
4.16108
4.10982
4.05819
4.00629
3.95423
3.90211
3.85004
3.79812
3.74645
3.69511
3.64419
3.59375
3.54386
3.49459
3.44597
3.39806
3.35091
3.30456
3.25907
3.21447
3.17078
3.12813
3.08655
3.04612
3.00698
2.96936
2.93355
2.89992
2.86906
2.84188
2.81947
2.80494
4.69972
4.23387
4.37543
4.25143
4.02726
3.9879
3.96391
3.84267
3.71887
3.61727
3.54882
3.50395
3.46501
3.44586
3.4414
3.46042
3.50839
3.57976
3.66739
3.75898
3.85142
3.94261
4.03176
4.11869
4.20333
4.2856
4.36503
4.441
4.51556
4.58706
4.65373
4.71414
4.76892
4.81785
4.86138
4.89949
4.93303
4.96253
4.98678
5.00444
5.01643
5.02336
5.02561
5.02468
5.0209
5.01178
4.99626
4.97841
4.95835
4.93559
4.91009
4.88204
4.85169
4.81918
4.78473
4.74842
4.71042
4.67081
4.62975
4.58729
4.54358
4.49865
4.45266
4.40565
4.35773
4.30897
4.25947
4.20932
4.1586
4.10741
4.05585
4.00403
3.95205
3.90003
3.84805
3.79624
3.74467
3.69344
3.64262
3.59229
3.54249
3.4933
3.44475
3.39691
3.34981
3.30354
3.25812
3.21355
3.16984
3.12722
3.0857
3.04533
3.00628
2.96869
2.93285
2.89917
2.86822
2.84088
2.81815
2.80344
5.51907
4.80228
4.5381
4.29102
4.0705
3.99119
3.91385
3.8148
3.7082
3.61649
3.55309
3.5078
3.46581
3.43361
3.42268
3.44783
3.49869
3.56758
3.65791
3.74794
3.84102
3.93261
4.02212
4.10955
4.19465
4.27738
4.35748
4.43457
4.50913
4.58018
4.64661
4.70721
4.76213
4.81138
4.85519
4.89371
4.92735
4.9564
4.98031
4.99825
5.01045
5.01747
5.01956
5.01882
5.01573
5.00797
4.99241
4.97374
4.95327
4.93062
4.90537
4.87748
4.84721
4.81473
4.78027
4.74394
4.70592
4.66628
4.62518
4.5827
4.53896
4.49404
4.44805
4.40106
4.35317
4.30446
4.25501
4.20491
4.15426
4.10316
4.0517
3.99999
3.94814
3.89626
3.84443
3.79279
3.74138
3.69033
3.63967
3.58951
3.53986
3.49082
3.44245
3.39475
3.34775
3.30162
3.25637
3.21197
3.16861
3.12605
3.08458
3.04426
3.00528
2.96774
2.93195
2.89826
2.86724
2.83974
2.81663
2.80172
5.88152
5.1049
4.66312
4.37494
4.1551
4.01823
3.9236
3.82379
3.72083
3.62796
3.55933
3.50515
3.46684
3.44499
3.44218
3.45569
3.49739
3.56909
3.65367
3.74276
3.83431
3.92553
4.01511
4.10264
4.18769
4.27031
4.35008
4.42669
4.5003
4.57034
4.63604
4.69636
4.75114
4.80033
4.84411
4.88262
4.91613
4.94482
4.96843
4.98649
4.99897
5.00614
5.00822
5.0076
5.00505
4.99849
4.98467
4.96512
4.94394
4.92117
4.89618
4.8686
4.83856
4.80624
4.77188
4.73562
4.69765
4.65807
4.61701
4.57459
4.53091
4.48607
4.44016
4.39326
4.34548
4.29687
4.24756
4.19759
4.14709
4.09614
4.04486
3.99333
3.9417
3.89004
3.83848
3.7871
3.736
3.68523
3.63488
3.585
3.53566
3.48682
3.43875
3.39134
3.34479
3.29884
3.25375
3.20947
3.16622
3.12386
3.0826
3.04245
3.00364
2.96627
2.93066
2.89709
2.86613
2.83862
2.81523
2.80021
6.0652
5.32469
4.82335
4.4917
4.25605
4.0854
3.96796
3.86736
3.77107
3.68662
3.62341
3.57413
3.53735
3.51121
3.49956
3.50385
3.5248
3.57467
3.65301
3.73816
3.8272
3.91811
4.00842
4.09659
4.18222
4.26475
4.34392
4.4198
4.49222
4.56099
4.62541
4.68493
4.73903
4.78777
4.83109
4.86927
4.90239
4.93066
4.95392
4.97196
4.98462
4.99204
4.99414
4.9936
4.99143
4.98583
4.97387
4.95441
4.9327
4.90956
4.88455
4.85721
4.82743
4.79533
4.76111
4.72496
4.68706
4.64754
4.60655
4.5642
4.5206
4.47584
4.43004
4.38325
4.3356
4.28714
4.23798
4.18819
4.13788
4.08714
4.03608
3.98484
3.93347
3.88215
3.8309
3.7799
3.72918
3.67878
3.62876
3.57925
3.53032
3.48203
3.43432
3.38726
3.34094
3.29531
3.25047
3.20648
3.16344
3.12138
3.08038
3.04054
3.00202
2.96498
2.92969
2.89648
2.8658
2.83857
2.81517
2.80033
6.18005
5.50873
4.99814
4.63445
4.3767
4.19151
4.0607
3.96235
3.88084
3.81441
3.76212
3.71883
3.6802
3.64536
3.61828
3.60415
3.60586
3.61916
3.65577
3.72994
3.8133
3.90753
4.00224
4.09316
4.18008
4.26228
4.34
4.41356
4.48339
4.54972
4.61212
4.67017
4.72329
4.77124
4.81395
4.85157
4.88422
4.91201
4.93495
4.95288
4.96572
4.97342
4.97574
4.97528
4.97341
4.9686
4.95825
4.93974
4.91805
4.8946
4.86941
4.84214
4.8126
4.78077
4.74678
4.71083
4.67307
4.63369
4.59282
4.55059
4.50712
4.4625
4.41685
4.37024
4.32276
4.27451
4.22554
4.17598
4.12589
4.07543
4.02464
3.97374
3.92269
3.8718
3.82094
3.77039
3.72014
3.67039
3.62104
3.57215
3.52374
3.47588
3.42857
3.38187
3.33589
3.29062
3.24615
3.20251
3.15982
3.11811
3.07752
3.03811
3.00008
2.96357
2.92888
2.89631
2.86626
2.83972
2.8168
2.80287
6.25877
5.66017
5.16648
4.79119
4.51601
4.32098
4.1868
4.09976
4.04148
3.99959
3.96517
3.93063
3.89214
3.84731
3.79656
3.74635
3.70641
3.69453
3.70241
3.73058
3.79353
3.88354
3.98544
4.08355
4.17467
4.25812
4.33509
4.40627
4.47349
4.53709
4.59712
4.65329
4.70512
4.75206
4.794
4.831
4.86308
4.89035
4.91289
4.93059
4.94348
4.95141
4.954
4.9536
4.95196
4.94773
4.93864
4.92146
4.90039
4.87694
4.85158
4.82425
4.79483
4.76324
4.72953
4.69382
4.6563
4.6171
4.57642
4.53437
4.49109
4.44668
4.40124
4.35486
4.30762
4.25961
4.21091
4.16163
4.11185
4.06173
4.01131
3.96083
3.91015
3.85983
3.80975
3.75999
3.71045
3.66128
3.61248
3.56409
3.51615
3.4687
3.42184
3.37557
3.33003
3.28518
3.24118
3.19799
3.1558
3.11459
3.07457
3.03578
2.99847
2.96277
2.929
2.89738
2.8684
2.84324
2.8215
2.8096
6.31687
5.78491
5.3221
4.95238
4.67423
4.47767
4.35149
4.28472
4.25602
4.24133
4.22673
4.20373
4.16657
4.10647
4.01891
3.92188
3.83644
3.78105
3.76946
3.77748
3.80476
3.86605
3.95886
4.06154
4.15963
4.248
4.32683
4.39761
4.46265
4.52343
4.58068
4.6344
4.68436
4.73002
4.77097
4.80726
4.83866
4.86537
4.88748
4.90509
4.91797
4.92616
4.92899
4.92863
4.92711
4.92324
4.91497
4.89914
4.87905
4.85597
4.83059
4.80316
4.77374
4.74227
4.7088
4.67336
4.63612
4.59719
4.55677
4.51495
4.47193
4.42775
4.38258
4.33647
4.28951
4.24179
4.1934
4.14445
4.09501
4.04529
3.99535
3.94542
3.89578
3.84619
3.7968
3.74771
3.69883
3.65025
3.60201
3.55416
3.50679
3.4599
3.41361
3.3679
3.32293
3.27863
3.23522
3.19263
3.15109
3.11057
3.07134
3.03342
2.99713
2.96262
2.93008
2.89998
2.87282
2.84992
2.8303
2.82178
6.36542
5.89257
5.46857
5.11924
4.85399
4.67099
4.56851
4.53437
4.53511
4.53848
4.53586
4.52288
4.48683
4.40774
4.26204
4.11215
3.98504
3.89531
3.84887
3.84935
3.85817
3.88506
3.94466
4.0334
4.12871
4.22145
4.30539
4.37938
4.44532
4.50523
4.56059
4.6121
4.65998
4.70406
4.74394
4.7795
4.81013
4.83644
4.85817
4.87557
4.88833
4.8967
4.89984
4.89954
4.89819
4.8947
4.88723
4.87273
4.85388
4.83163
4.80662
4.77929
4.74991
4.71855
4.68529
4.65014
4.61323
4.57464
4.53456
4.49308
4.45037
4.40653
4.36168
4.3159
4.26927
4.22189
4.17383
4.12526
4.07622
4.02708
3.97794
3.92894
3.88004
3.83127
3.78261
3.73417
3.68594
3.63801
3.59041
3.54321
3.49648
3.45022
3.40458
3.3595
3.31517
3.27153
3.22881
3.18696
3.14623
3.1066
3.06839
3.03165
2.99677
2.9637
2.93295
2.90514
2.88064
2.86102
2.84476
2.84079
6.41334
5.99418
5.61431
5.29896
5.06419
4.91332
4.85341
4.85536
4.8661
4.88851
4.88546
4.86725
4.81422
4.69554
4.49841
4.3097
4.15464
4.0407
3.96819
3.937
3.93785
3.94595
3.96965
4.02155
4.09771
4.18091
4.26593
4.34484
4.41569
4.47862
4.53483
4.5857
4.63219
4.67477
4.71338
4.74792
4.77805
4.8039
4.82539
4.84261
4.85547
4.86402
4.86759
4.86734
4.86613
4.86295
4.85612
4.84276
4.82515
4.80392
4.77957
4.75256
4.72332
4.69206
4.65895
4.62404
4.58744
4.54922
4.50952
4.46844
4.42613
4.38269
4.33821
4.29281
4.24654
4.19955
4.15187
4.1038
4.05556
4.00731
3.95904
3.91085
3.86268
3.81464
3.76669
3.71897
3.67146
3.62426
3.5774
3.53092
3.48492
3.43939
3.39449
3.35015
3.3066
3.26377
3.22191
3.18099
3.14129
3.10284
3.06596
3.03083
2.99764
2.96657
2.93838
2.91363
2.89285
2.87763
2.86668
2.86685
6.46628
6.10004
5.77241
5.50661
5.32058
5.22043
5.21376
5.22336
5.2487
5.26356
5.25348
5.21448
5.11922
4.92802
4.71121
4.51073
4.34462
4.21571
4.12234
4.06263
4.03243
4.02818
4.03257
4.04859
4.08587
4.14952
4.21604
4.29218
4.36737
4.43616
4.49703
4.55058
4.59799
4.64027
4.67807
4.7117
4.74122
4.76665
4.78809
4.80525
4.81842
4.82739
4.83149
4.83129
4.83021
4.82733
4.82113
4.80885
4.79243
4.77235
4.74894
4.7226
4.69376
4.66275
4.62986
4.5952
4.55894
4.52112
4.48187
4.44126
4.39942
4.35644
4.31241
4.26742
4.22155
4.17497
4.12794
4.08073
4.03339
3.98601
3.93855
3.89114
3.84374
3.79646
3.7493
3.70235
3.65564
3.60923
3.56317
3.51749
3.4723
3.42758
3.38351
3.34003
3.29738
3.2555
3.21469
3.17492
3.13653
3.09958
3.06449
3.03137
3.00033
2.97217
2.94747
2.92696
2.91138
2.90222
2.89893
2.90004
6.53156
6.22505
5.96041
5.76018
5.63888
5.60573
5.61296
5.63409
5.65633
5.64877
5.61463
5.5268
5.34767
5.12719
4.91131
4.71512
4.5495
4.41212
4.30207
4.21855
4.15965
4.12414
4.10705
4.10841
4.11681
4.13988
4.18776
4.23887
4.30529
4.37555
4.44191
4.50118
4.55283
4.59749
4.63622
4.6699
4.69918
4.72443
4.74587
4.76344
4.77702
4.78656
4.79151
4.79139
4.79051
4.78801
4.78251
4.77144
4.75612
4.73719
4.7149
4.68948
4.66132
4.63078
4.59823
4.56389
4.52798
4.49057
4.45179
4.41169
4.37038
4.3279
4.28436
4.2398
4.19444
4.1486
4.10246
4.05616
4.00968
3.96314
3.91651
3.8699
3.82333
3.77688
3.73057
3.68447
3.63863
3.59307
3.54789
3.50308
3.4588
3.415
3.37188
3.32942
3.28783
3.24714
3.2076
3.1693
3.13257
3.09759
3.06479
3.03394
3.00604
2.98169
2.96169
2.94674
2.93802
2.93675
2.93786
2.94204
6.624
6.38733
6.19977
6.07897
6.03079
6.03464
6.04862
6.06578
6.05781
6.02211
5.93096
5.74699
5.53066
5.31367
5.11083
4.92858
4.76376
4.61998
4.49664
4.39327
4.31004
4.24675
4.20245
4.17529
4.16763
4.17085
4.18366
4.21376
4.25338
4.30776
4.37188
4.43489
4.4919
4.54152
4.5839
4.61981
4.6503
4.67623
4.69816
4.71628
4.73057
4.74067
4.74679
4.74709
4.74646
4.74439
4.73967
4.73004
4.71585
4.69814
4.67708
4.65278
4.62558
4.59578
4.56382
4.52995
4.49449
4.45754
4.41927
4.37971
4.33895
4.29702
4.25396
4.21
4.16546
4.12056
4.07535
4.02994
3.98434
3.93866
3.89291
3.84718
3.8015
3.75594
3.71055
3.66535
3.62043
3.5758
3.53156
3.48773
3.44443
3.40169
3.35965
3.31838
3.27804
3.23879
3.20082
3.16438
3.12978
3.09743
3.06706
3.03958
3.01589
2.99658
2.98291
2.97512
2.97539
2.9775
2.98374
2.99872
6.76364
6.61004
6.51221
6.47176
6.4755
6.48868
6.49618
6.4853
6.44202
6.33714
6.13855
5.92037
5.7051
5.50202
5.31377
5.14007
4.97892
4.83112
4.6974
4.57831
4.47519
4.38867
4.31945
4.26681
4.2318
4.21095
4.21113
4.21587
4.23069
4.26069
4.30259
4.35884
4.41594
4.46954
4.51699
4.55752
4.59163
4.62013
4.64376
4.66304
4.67835
4.68933
4.69663
4.69833
4.69784
4.69618
4.69229
4.6843
4.6715
4.6551
4.63537
4.61237
4.58637
4.55761
4.52652
4.49337
4.45852
4.42214
4.38444
4.34545
4.30526
4.26385
4.22144
4.17838
4.13481
4.09088
4.04662
4.00214
3.95747
3.91271
3.86789
3.8231
3.77836
3.73376
3.68932
3.6451
3.60117
3.55755
3.51436
3.47161
3.42944
3.3879
3.34713
3.30727
3.26848
3.23098
3.19503
3.16096
3.12923
3.09955
3.07273
3.04989
3.03173
3.01923
3.01352
3.01414
3.01716
3.02529
3.04256
3.07844
6.97573
6.91259
6.90885
6.91902
6.94455
6.94732
6.93237
6.87784
6.75062
6.53613
6.30634
6.08733
5.88416
5.69523
5.51829
5.35065
5.19091
5.03948
4.89748
4.76619
4.64751
4.54256
4.45256
4.37773
4.31864
4.27472
4.24713
4.23411
4.23543
4.24265
4.25942
4.29169
4.33628
4.38686
4.43598
4.48091
4.52026
4.55342
4.58063
4.60241
4.61952
4.63195
4.64057
4.6443
4.64404
4.64291
4.64001
4.63389
4.62265
4.60768
4.5894
4.56788
4.54332
4.51589
4.48597
4.45381
4.41981
4.38417
4.34715
4.30879
4.26916
4.22843
4.18695
4.1449
4.10237
4.05944
4.0162
3.9727
3.92904
3.88526
3.84145
3.79765
3.75393
3.71034
3.66693
3.62377
3.5809
3.53842
3.49636
3.45484
3.41395
3.3738
3.33456
3.29637
3.25951
3.22421
3.19085
3.15994
3.13119
3.10526
3.08353
3.0666
3.05572
3.05219
3.05332
3.05739
3.06804
3.09053
3.12133
3.1768
7.28829
7.30233
7.34601
7.41319
7.41805
7.39927
7.33345
7.18272
6.94353
6.69698
6.4679
6.25995
6.06963
5.89148
5.7215
5.55692
5.39691
5.24158
5.09285
4.95231
4.82175
4.70253
4.59591
4.50259
4.42327
4.35796
4.30733
4.27126
4.2489
4.24185
4.24387
4.25174
4.27021
4.30711
4.3482
4.39301
4.43591
4.4741
4.50634
4.53233
4.55261
4.56778
4.57825
4.58439
4.58504
4.58442
4.58245
4.57799
4.56894
4.5556
4.53892
4.51906
4.49615
4.47032
4.44184
4.41099
4.3781
4.34344
4.30725
4.2696
4.23071
4.19096
4.15053
4.10957
4.06812
4.02627
3.9841
3.94168
3.89908
3.85636
3.81362
3.77088
3.72824
3.68572
3.64343
3.60141
3.55972
3.51847
3.47771
3.43759
3.39819
3.3597
3.32228
3.2862
3.25174
3.21928
3.18938
3.16181
3.137
3.11661
3.1014
3.0919
3.09108
3.0927
3.09817
3.11131
3.13809
3.17937
3.21865
3.27952
7.68058
7.75828
7.87258
7.90377
7.88327
7.80905
7.63781
7.36921
7.09867
6.85366
6.6361
6.44052
6.25997
6.08825
5.92136
5.75721
5.59551
5.43647
5.28223
5.1345
4.99472
4.86443
4.74467
4.63645
4.54041
4.45694
4.38649
4.3295
4.28583
4.25588
4.23923
4.23552
4.2374
4.24599
4.26606
4.30283
4.34231
4.38245
4.4191
4.45034
4.4756
4.49502
4.50883
4.51757
4.52117
4.52083
4.51951
4.51633
4.50971
4.49834
4.48352
4.46554
4.4445
4.42051
4.39377
4.3645
4.33303
4.29961
4.26445
4.22775
4.18994
4.15133
4.11207
4.07226
4.03196
3.99128
3.95026
3.90899
3.86753
3.82597
3.78436
3.74276
3.70129
3.65995
3.61888
3.57811
3.53775
3.49788
3.45863
3.42011
3.3825
3.346
3.31086
3.27742
3.24605
3.21739
3.19121
3.16781
3.14893
3.13576
3.12865
3.12909
3.13175
3.13939
3.15604
3.18922
3.23067
3.28052
3.32171
3.3781
8.20952
8.34479
8.40067
8.3812
8.30275
8.11668
7.81586
7.51669
7.25052
7.01865
6.81395
6.62783
6.4528
6.28334
6.11633
5.95053
5.78606
5.62345
5.46472
5.31126
5.16426
5.02532
4.89524
4.77519
4.6656
4.56722
4.48024
4.40519
4.34233
4.2921
4.25443
4.23092
4.2184
4.21282
4.21573
4.22629
4.24958
4.28411
4.32014
4.35508
4.38593
4.41107
4.43019
4.44291
4.45057
4.45181
4.45116
4.44915
4.4447
4.43576
4.42295
4.40699
4.38803
4.36612
4.34137
4.31399
4.28423
4.25234
4.2185
4.18313
4.1467
4.10942
4.07145
4.0329
3.99385
3.95441
3.91462
3.8746
3.83436
3.79403
3.75365
3.71332
3.67309
3.63307
3.59334
3.55399
3.51513
3.47685
3.43935
3.40276
3.36732
3.33329
3.30103
3.27097
3.24377
3.2192
3.19754
3.18041
3.16942
3.16546
3.16656
3.1707
3.18138
3.20375
3.24036
3.28568
3.33392
3.38305
3.41949
3.46559
8.84798
8.92499
8.90509
8.81941
8.61407
8.28168
7.95232
7.66193
7.41227
7.19503
7.00025
6.81912
6.64525
6.47456
6.30504
6.13622
5.96848
5.80196
5.63971
5.48167
5.32909
5.18339
5.04532
4.91587
4.79549
4.68486
4.58421
4.49415
4.41487
4.34692
4.29048
4.24624
4.21485
4.19568
4.17992
4.17971
4.18352
4.19495
4.21915
4.25103
4.28412
4.31411
4.33904
4.35796
4.37047
4.377
4.37695
4.37608
4.37353
4.3679
4.35733
4.3434
4.32653
4.3068
4.28426
4.25903
4.23131
4.20123
4.16913
4.13553
4.10076
4.06501
4.0285
3.99133
3.95367
3.91555
3.87712
3.8384
3.79951
3.76051
3.72148
3.68252
3.6437
3.60515
3.56694
3.52921
3.49208
3.45571
3.42029
3.38605
3.35332
3.32242
3.29386
3.26837
3.24568
3.22585
3.2113
3.20191
3.2019
3.2037
3.20976
3.22397
3.2528
3.29333
3.34079
3.3907
3.4371
3.47869
3.50534
3.53901
9.49524
9.47334
9.37409
9.13667
8.76547
8.40317
8.08775
7.81932
7.5879
7.38192
7.19193
7.011
6.83452
6.66003
6.48646
6.31389
6.14272
5.97437
5.8077
5.64554
5.48857
5.33755
5.19326
5.05632
4.92737
4.80678
4.69507
4.59256
4.49958
4.41653
4.34376
4.28178
4.23111
4.19284
4.16591
4.14449
4.13195
4.13317
4.13872
4.15193
4.17843
4.20679
4.2351
4.25966
4.27861
4.29141
4.29733
4.29721
4.29609
4.29306
4.28659
4.27504
4.26013
4.24248
4.22219
4.19933
4.17393
4.14609
4.1162
4.08469
4.05183
4.01787
3.98301
3.94742
3.91126
3.87462
3.83764
3.80036
3.76293
3.72539
3.68786
3.65043
3.61322
3.57632
3.53988
3.50405
3.46897
3.43489
3.40203
3.37075
3.34143
3.31459
3.29103
3.27053
3.25285
3.2407
3.23521
3.23597
3.23947
3.24886
3.26878
3.30375
3.3476
3.39686
3.44683
3.49302
3.53079
3.56076
3.5764
3.59879
10.1153
9.98848
9.6942
9.26915
8.86632
8.52381
8.23718
7.99207
7.7747
7.5746
7.38444
7.19989
7.01832
6.83859
6.66035
6.48382
6.30935
6.13764
5.96852
5.80351
5.64306
5.48784
5.33853
5.19561
5.0597
4.93108
4.8103
4.6974
4.59304
4.49728
4.41066
4.33343
4.26627
4.20969
4.16436
4.13135
4.10188
4.08063
4.076
4.07782
4.08452
4.0996
4.12433
4.14966
4.1735
4.19282
4.20615
4.21258
4.2125
4.21148
4.2084
4.20164
4.18923
4.17358
4.15543
4.13491
4.11196
4.08669
4.05939
4.03032
3.99969
3.96779
3.93483
3.90103
3.86654
3.83154
3.79614
3.76047
3.72464
3.68873
3.65288
3.61719
3.58179
3.54682
3.51245
3.47887
3.4463
3.41504
3.3854
3.35788
3.333
3.31169
3.29346
3.27872
3.26856
3.26759
3.26926
3.27498
3.28853
3.31609
3.35527
3.40262
3.45351
3.50328
3.54807
3.58408
3.60993
3.62761
3.63414
3.64735
10.7125
10.3328
9.80555
9.33993
8.96413
8.65995
8.40375
8.17673
7.96697
7.7671
7.573
7.38254
7.19486
7.00967
6.82693
6.64679
6.46938
6.29505
6.12374
5.95617
5.79282
5.6342
5.48079
5.33302
5.19137
5.05612
4.92769
4.80631
4.69227
4.58581
4.48739
4.39738
4.31609
4.24414
4.18213
4.13048
4.09087
4.05418
4.02692
4.01179
4.01148
4.01371
4.02097
4.03682
4.05944
4.08193
4.10136
4.11547
4.1231
4.12369
4.12275
4.11978
4.11316
4.10042
4.08462
4.0663
4.04577
4.02313
3.99857
3.97216
3.94408
3.91454
3.88377
3.852
3.81943
3.78626
3.75266
3.71877
3.68472
3.65066
3.61671
3.58301
3.54974
3.51704
3.48516
3.45432
3.42485
3.39712
3.37163
3.34895
3.33026
3.3145
3.30269
3.29657
3.29732
3.30083
3.31021
3.33005
3.36474
3.40852
3.45841
3.5102
3.5595
3.6025
3.63591
3.65956
3.67382
3.68094
3.68283
3.68746
11.0857
10.3966
9.83211
9.4041
9.07832
8.81402
8.58194
8.36551
8.15684
7.95288
7.7527
7.55608
7.36302
7.17338
6.98709
6.80402
6.62416
6.44754
6.2743
6.10424
5.93841
5.77691
5.62003
5.46812
5.32156
5.18064
5.04572
4.91702
4.79486
4.67949
4.57122
4.4703
4.37714
4.29208
4.2155
4.1481
4.09069
4.04459
4.00267
3.96818
3.94738
3.9373
3.93771
3.94076
3.94906
3.96617
3.98636
4.00564
4.02042
4.02929
4.03106
4.03034
4.02781
4.02181
4.00981
3.99417
3.97596
3.95585
3.93395
3.91029
3.88496
3.85807
3.82979
3.80035
3.76997
3.73888
3.7073
3.67541
3.64339
3.61142
3.57964
3.54827
3.51748
3.48751
3.45865
3.43122
3.40565
3.38247
3.36231
3.34638
3.33389
3.32442
3.32341
3.32532
3.33135
3.34576
3.37459
3.41403
3.46205
3.51433
3.56669
3.61494
3.65593
3.68722
3.70833
3.71999
3.72487
3.72472
3.7239
3.72457
11.0921
10.366
9.84579
9.48621
9.21343
8.97948
8.76003
8.54574
8.33408
8.12526
7.92003
7.71906
7.52244
7.33002
7.14141
6.95633
6.77454
6.59597
6.42063
6.24838
6.08013
5.91589
5.75584
5.60019
5.44926
5.30333
5.16271
5.02767
4.89848
4.77539
4.65866
4.54852
4.44532
4.34931
4.26099
4.1807
4.10904
4.04637
3.99436
3.9467
3.90664
3.87872
3.86229
3.85633
3.85729
3.86145
3.87127
3.88914
3.90676
3.92186
3.93208
3.93592
3.9355
3.93354
3.92854
3.91821
3.90329
3.88566
3.86617
3.84513
3.82257
3.79849
3.77297
3.74616
3.71829
3.68961
3.66036
3.63077
3.60108
3.5715
3.54226
3.51361
3.48579
3.45915
3.43401
3.41089
3.39024
3.37298
3.36004
3.35082
3.34569
3.34666
3.35071
3.36151
3.38379
3.41954
3.46454
3.51582
3.56976
3.62215
3.66916
3.70788
3.737
3.7558
3.7656
3.7676
3.76697
3.76473
3.75937
3.75932
10.9547
10.2921
9.87332
9.58805
9.35482
9.13641
8.9205
8.70513
8.49139
8.28061
8.07405
7.87178
7.67386
7.48014
7.29024
7.10378
6.92046
6.74014
6.56279
6.38852
6.21731
6.05019
5.88702
5.72788
5.57294
5.42249
5.27679
5.13615
5.00083
4.87108
4.74712
4.62921
4.51755
4.4124
4.31405
4.22284
4.13919
4.0636
3.99657
3.93939
3.88711
3.84203
3.80868
3.78668
3.77348
3.77142
3.77298
3.77826
3.78983
3.80645
3.8219
3.83324
3.83968
3.83953
3.83829
3.83467
3.82683
3.81284
3.79617
3.77764
3.75764
3.73626
3.71354
3.68959
3.66453
3.63859
3.61203
3.58511
3.55813
3.53137
3.50514
3.47975
3.45557
3.43303
3.41256
3.39493
3.38047
3.37166
3.36495
3.36522
3.36783
3.37525
3.39183
3.42395
3.46513
3.51455
3.5688
3.62394
3.67593
3.72135
3.75784
3.78454
3.80116
3.80964
3.80998
3.80909
3.80655
3.80076
3.78935
3.78836
10.7768
10.2269
9.91706
9.68992
9.47884
9.26646
9.05219
8.83837
8.62673
8.41838
8.21361
8.01284
7.81592
7.6225
7.43227
7.24497
7.06038
6.87839
6.69902
6.52226
6.34827
6.17808
6.0117
5.84917
5.69047
5.53592
5.3857
5.24013
5.09949
4.96401
4.83392
4.70941
4.59066
4.47787
4.37124
4.27105
4.17759
4.09128
4.01258
3.94192
3.88053
3.82402
3.77463
3.73683
3.70915
3.69219
3.6835
3.68392
3.68654
3.69334
3.7072
3.72194
3.73453
3.74259
3.74451
3.74386
3.74156
3.7358
3.72421
3.70906
3.69155
3.67259
3.65251
3.63142
3.60934
3.58645
3.56294
3.53914
3.51533
3.49192
3.46927
3.44787
3.42811
3.41072
3.39606
3.38534
3.3794
3.37797
3.37949
3.38516
3.39842
3.42537
3.46285
3.50984
3.56333
3.61991
3.67575
3.72705
3.77079
3.80512
3.82968
3.8447
3.85151
3.85134
3.85015
3.84696
3.84011
3.83036
3.81608
3.81409
10.6792
10.2022
9.95935
9.76667
9.56853
9.36228
9.15393
8.94675
8.74167
8.53899
8.33887
8.14145
7.94671
7.75443
7.56454
7.37682
7.19128
7.00785
6.82667
6.64779
6.47127
6.2977