/*--------------------------------*- C++ -*----------------------------------*\
  =========                 |
  \\      /  F ield         | OpenFOAM: The Open Source CFD Toolbox
   \\    /   O peration     | Website:  https://openfoam.org
    \\  /    A nd           | Version:  13
     \\/     M anipulation  |
\*---------------------------------------------------------------------------*/
FoamFile
{
    format      ascii;
    class       surfaceScalarField;
    location    "9";
    object      phi;
}
// * * * * * * * * * * * * * * * * * * * * * * * * * * * * * * * * * * * * * //

dimensions      [1 0 -1 0 0 0 0];

internalField   nonuniform List<scalar> 
10325
(
0.00840002
6.68187e-11
0.00840006
4.49642e-10
0.00839993
1.56408e-09
0.00840027
4.25731e-09
0.00839945
1.21043e-08
0.0084014
2.72028e-08
0.00839696
7.90642e-08
0.00840646
1.72287e-07
0.00838759
4.94025e-07
0.00841489
1.15362e-06
0.0083771
3.21218e-06
0.00839918
9.13596e-06
0.00834652
3.01078e-05
0.00823079
0.000123107
0.00763452
0.000587326
0.00702138
0.000613493
0.00641286
0.000609003
0.00578155
0.000631324
0.00511783
0.000663692
0.00440734
0.000710295
0.00363984
0.000767363
0.00281487
0.000824774
0.00193656
0.00087824
0.00100186
0.000934581
0.00100164
0.00840002
1.115e-10
0.00840006
1.07782e-09
0.00839994
2.79632e-09
0.00840026
1.0725e-08
0.00839948
2.13422e-08
0.00840133
7.27816e-08
0.00839711
1.31355e-07
0.00840591
4.56882e-07
0.00838853
8.37692e-07
0.00841314
2.67389e-06
0.00837831
6.26693e-06
0.00839718
1.9056e-05
0.00834534
6.11576e-05
0.00822718
0.000247767
0.00762721
0.00117845
0.00700956
0.00123154
0.00641015
0.00120892
0.00578427
0.00125721
0.00512316
0.00132477
0.00440607
0.00142719
0.00363065
0.00154265
0.00279714
0.00165809
0.00190686
0.00176844
0.000966858
0.00187446
0.00196827
0.00840003
3.13446e-10
0.00840005
1.17316e-09
0.00839997
6.29708e-09
0.00840014
1.12805e-08
0.00839967
4.52952e-08
0.00840083
8.08831e-08
0.00839775
2.63937e-07
0.00840446
5.55815e-07
0.00839015
1.52015e-06
0.00841092
3.68409e-06
0.00838061
9.88269e-06
0.00839576
2.83063e-05
0.00834532
9.20463e-05
0.00823296
0.000366635
0.00764483
0.00175821
0.00702464
0.00185224
0.00643325
0.00180081
0.00581581
0.00187464
0.00515975
0.00198083
0.00444536
0.00214139
0.00366743
0.00232041
0.00282821
0.0024971
0.0019268
0.0026698
0.000974282
0.00282684
0.00294231
0.00840003
4.25294e-10
0.00840002
1.71018e-09
0.00840009
7.96214e-09
0.00839989
1.64663e-08
0.00840032
5.9031e-08
0.00839935
1.04229e-07
0.00840097
3.89407e-07
0.00839761
6.21141e-07
0.0084022
2.34465e-06
0.00839282
4.35283e-06
0.00839999
1.39803e-05
0.00837967
3.65487e-05
0.008355
0.000122647
0.0082419
0.000475091
0.00767963
0.00231397
0.0070634
0.00246942
0.00648242
0.00238236
0.00587642
0.00248062
0.00523045
0.00262671
0.00452431
0.0028474
0.00375189
0.00309271
0.00290912
0.00333971
0.00199538
0.00358336
0.00101473
0.00380739
0.00395678
0.00840003
3.75558e-10
0.00840002
2.40676e-09
0.00840003
8.2243e-09
0.00840002
2.39354e-08
0.00840005
6.1369e-08
0.00839967
1.61641e-07
0.00840059
3.91075e-07
0.00839748
1.00034e-06
0.00840294
2.44746e-06
0.00839207
6.23534e-06
0.00840015
1.63502e-05
0.00838026
4.64761e-05
0.0083611
0.000149705
0.00825485
0.000573755
0.00773676
0.00282479
0.00712657
0.00308093
0.00655543
0.00295427
0.00596387
0.00307218
0.00533324
0.00325729
0.00464162
0.00353892
0.00387822
0.003856
0.00303536
0.00418229
0.00210347
0.00451521
0.00108279
0.00482789
0.00503933
0.00840003
3.24786e-10
0.00840003
3.51776e-09
0.00840002
8.27066e-09
0.00840003
3.40042e-08
0.00840001
6.18759e-08
0.00839981
2.23001e-07
0.00840026
3.87373e-07
0.00839821
1.37388e-06
0.00840157
2.51946e-06
0.00839407
8.10909e-06
0.00839804
1.84256e-05
0.00838332
5.58473e-05
0.00836357
0.000174029
0.008274
0.00065711
0.00783923
0.0032516
0.00722904
0.00369268
0.00666297
0.00352129
0.00608717
0.003648
0.00547575
0.00386872
0.0048055
0.00420903
0.00405666
0.00460478
0.00321631
0.00502251
0.00226563
0.00546585
0.00118815
0.00590519
0.00622718
0.00840003
5.63923e-10
0.00840004
3.16227e-09
0.00840001
1.17632e-08
0.00840004
3.08101e-08
0.00839987
8.79875e-08
0.00840041
2.00808e-07
0.00839849
5.71943e-07
0.00840296
1.22865e-06
0.00839271
3.55643e-06
0.00840829
7.99308e-06
0.00838414
2.25516e-05
0.0083979
6.089e-05
0.00836041
0.000195382
0.00830849
0.000714966
0.00802891
0.00352061
0.00739778
0.00432572
0.00682631
0.0040938
0.00626117
0.00421323
0.0056705
0.00445945
0.00502577
0.00485379
0.00429858
0.0053319
0.0034663
0.00585464
0.0024997
0.0064323
0.00135405
0.00705066
0.0075809
0.00840003
6.42178e-10
0.00840005
3.06073e-09
0.00839997
1.33591e-08
0.00840019
3.02466e-08
0.00839968
9.8475e-08
0.00840087
2.10904e-07
0.00839821
6.06492e-07
0.00840376
1.36498e-06
0.00839257
3.66421e-06
0.0084101
8.83876e-06
0.00838334
2.36601e-05
0.00840614
6.4905e-05
0.0083763
0.000203085
0.00836809
0.000731649
0.00835658
0.00352076
0.00770258
0.00498183
0.00708294
0.00471474
0.00651542
0.00478097
0.00594424
0.00503078
0.00532335
0.00547467
0.00462321
0.00603211
0.00380967
0.00666806
0.00284227
0.00739968
0.0016275
0.00826528
0.00920803
0.00840003
5.05242e-10
0.00840002
3.5422e-09
0.00840007
1.1333e-08
0.00839995
3.43837e-08
0.00840024
8.49369e-08
0.00839944
2.29125e-07
0.00840147
5.39488e-07
0.00839675
1.43914e-06
0.00840713
3.38251e-06
0.00838844
9.02303e-06
0.0084158
2.25272e-05
0.0083888
6.31875e-05
0.00842199
0.000191982
0.0084612
0.000678133
0.00889676
0.00307865
0.00820318
0.00567677
0.00747195
0.00544708
0.00689586
0.00535744
0.00631533
0.00561164
0.00572319
0.00606688
0.00505223
0.00670318
0.00430119
0.00741898
0.0033908
0.00830988
0.00210667
0.0095492
0.0113143
0.00840003
4.37736e-10
0.00840002
3.16622e-09
0.00840009
9.56072e-09
0.00839992
3.06983e-08
0.00840035
7.18182e-08
0.00839942
1.96924e-07
0.00840178
4.69345e-07
0.0083971
1.17961e-06
0.00840782
2.95336e-06
0.00839133
7.17901e-06
0.00842164
1.85955e-05
0.00840501
4.90924e-05
0.00847714
0.000144982
0.00865631
0.000483888
0.00966805
0.00206538
0.00898848
0.00635459
0.00801052
0.0064247
0.00743812
0.00593003
0.00683069
0.00621932
0.00625531
0.00664227
0.0056548
0.00730379
0.00500103
0.00807277
0.00415941
0.00915137
0.00294148
0.0107668
0.0142552
0.00840003
4.03433e-10
0.00840005
2.67724e-09
0.00839999
8.93742e-09
0.00840013
2.63387e-08
0.00839984
6.59173e-08
0.00840058
1.75599e-07
0.00839907
4.08053e-07
0.00840262
1.08332e-06
0.00839601
2.47389e-06
0.00840945
6.54417e-06
0.0083924
1.57373e-05
0.00842278
4.27712e-05
0.00842364
0.000121624
0.00851701
0.000401176
0.00892844
0.00164776
0.00891483
0.00636352
0.00855494
0.00678173
0.00788327
0.00660175
0.00735923
0.00674341
0.00685345
0.007148
0.00639269
0.00776445
0.00589367
0.00857154
0.00544748
0.00959717
0.00538725
0.0108264
0.0113648
0.00827635
0.00840003
4.00162e-10
0.00840004
2.40009e-09
0.0084
8.56699e-09
0.00840012
2.35093e-08
0.00839983
6.31676e-08
0.0084006
1.5631e-07
0.00839883
3.95396e-07
0.00840324
9.58933e-07
0.00839416
2.4182e-06
0.00841266
5.89964e-06
0.00838451
1.50786e-05
0.00842372
3.92647e-05
0.00839846
0.000112045
0.00846043
0.000361965
0.00868941
0.001405
0.00880878
0.00623892
0.00853889
0.0070509
0.0081027
0.00703788
0.00771802
0.00712799
0.00732773
0.00753804
0.00698278
0.00810919
0.00670552
0.0088486
0.00659384
0.0097083
0.00696795
0.0104514
0.0104762
0.00785475
0.00840003
4.12426e-10
0.00840004
2.13958e-09
0.0084
8.58479e-09
0.00840011
2.09618e-08
0.00839985
6.36303e-08
0.00840053
1.40475e-07
0.00839899
4.00647e-07
0.00840273
8.79974e-07
0.00839488
2.43254e-06
0.00841077
5.55083e-06
0.0083853
1.48891e-05
0.00842003
3.75139e-05
0.00839133
0.000106886
0.00843883
0.000337929
0.00857271
0.00125685
0.00889724
0.00590894
0.00861994
0.0073287
0.00829232
0.0073657
0.00800784
0.00741262
0.0077553
0.00779048
0.00752797
0.00833612
0.00741404
0.00896175
0.00755688
0.00956532
0.00799613
0.010011
0.0099482
0.00852187
0.00840003
3.07881e-10
0.00840003
2.43561e-09
0.00840003
7.14573e-09
0.00840004
2.35989e-08
0.00840003
5.35463e-08
0.00839999
1.54991e-07
0.00840019
3.40345e-07
0.0083994
9.56343e-07
0.00840145
2.12085e-06
0.00839715
5.81382e-06
0.00840506
1.36802e-05
0.00839731
3.69088e-05
0.00841065
0.00010028
0.00842852
0.000313517
0.00856145
0.00112528
0.00927363
0.00518765
0.00896488
0.00763853
0.0085955
0.00773574
0.00833287
0.00767555
0.00815788
0.00796493
0.00805168
0.00844212
0.00806828
0.00894491
0.00825343
0.00937849
0.0086267
0.00963692
0.00951227
0.00906014
0.00840003
3.54472e-10
0.00840004
1.85806e-09
0.00840002
7.32693e-09
0.00840008
1.82892e-08
0.00839992
5.40109e-08
0.00840038
1.23201e-07
0.00839936
3.39545e-07
0.00840206
7.68112e-07
0.00839655
2.07273e-06
0.00840945
4.81496e-06
0.00838878
1.27559e-05
0.00842523
3.17192e-05
0.00840181
8.75569e-05
0.00848254
0.000261467
0.00868577
0.000904537
0.010056
0.00381151
0.00954537
0.00814957
0.00912691
0.00815467
0.00876954
0.00803353
0.00858163
0.00815275
0.00852481
0.00849817
0.00858308
0.00888593
0.00877573
0.00918515
0.00909353
0.00931787
0.00915308
0.00945072
0.00840003
2.49378e-10
0.00840003
1.67566e-09
0.00840003
5.51625e-09
0.00840005
1.62115e-08
0.00840003
4.11517e-08
0.00840008
1.0613e-07
0.0084001
2.58942e-07
0.00840011
6.50287e-07
0.00840101
1.57741e-06
0.00840038
3.93789e-06
0.00840621
9.68025e-06
0.00840964
2.44798e-05
0.00843546
6.43636e-05
0.00851063
0.000184281
0.00881666
0.000599262
0.0102343
0.00238811
0.0101341
0.00824622
0.00977215
0.00851614
0.00927006
0.00853506
0.00903703
0.00838607
0.00897437
0.00856051
0.00902882
0.0088309
0.00919116
0.00902117
0.00945118
0.00905617
0.00886512
0.00973741
0.00840003
2.13428e-10
0.00840003
1.3432e-09
0.00840003
4.73391e-09
0.00840005
1.32025e-08
0.00840002
3.48451e-08
0.00840009
8.8762e-08
0.00840007
2.14815e-07
0.00840002
5.51772e-07
0.00840093
1.28795e-06
0.00839929
3.37519e-06
0.00840573
7.86581e-06
0.00840163
2.07454e-05
0.00842308
5.21255e-05
0.00844975
0.000148242
0.00858982
0.000467071
0.00919436
0.0017744
0.0101795
0.00725272
0.0099819
0.00871294
0.00969724
0.00881946
0.00944385
0.0086387
0.00936398
0.00863997
0.00941072
0.00878329
0.00954277
0.00888861
0.00974238
0.00885449
0.00864084
0.00996397
0.00840003
1.72257e-10
0.00840003
1.2364e-09
0.00840004
3.82411e-09
0.00840001
1.20329e-08
0.0084001
2.86294e-08
0.0083999
7.83647e-08
0.00840045
1.82787e-07
0.00839936
4.76248e-07
0.00840229
1.13559e-06
0.00839681
2.85784e-06
0.0084094
7.06058e-06
0.00839282
1.7642e-05
0.00842528
4.57437e-05
0.00841935
0.000125263
0.00852123
0.000386586
0.00889547
0.00138633
0.0102509
0.00589039
0.0102035
0.00876058
0.010003
0.00902007
0.00977476
0.00886729
0.00969892
0.0087151
0.0097322
0.00874883
0.00983688
0.0087817
0.00998873
0.00870126
0.00847001
0.010157
0.00840003
1.55276e-10
0.00840003
9.54078e-10
0.00840003
3.37107e-09
0.00840005
9.32527e-09
0.0084
2.49533e-08
0.00840017
6.22076e-08
0.00839981
1.55223e-07
0.00840087
3.85846e-07
0.00839887
9.39524e-07
0.00840449
2.36954e-06
0.00839521
5.71535e-06
0.00841711
1.46488e-05
0.00839862
3.65082e-05
0.00845534
9.91348e-05
0.00852432
0.000290254
0.00893561
0.000987056
0.0109047
0.00390784
0.0106788
0.00898517
0.0105251
0.00917419
0.0102438
0.00914864
0.0100618
0.00889651
0.0100393
0.00877049
0.0101054
0.00871411
0.0102129
0.00859018
0.00834582
0.0103336
0.00840003
1.22775e-10
0.00840003
7.29544e-10
0.00840003
2.64738e-09
0.00840003
7.13074e-09
0.00840004
1.95497e-08
0.00840006
4.71607e-08
0.00840002
1.21738e-07
0.0084004
2.8973e-07
0.00839961
7.30821e-07
0.00840287
1.75562e-06
0.00839787
4.38117e-06
0.00841448
1.0727e-05
0.00840318
2.70135e-05
0.00845776
7.00637e-05
0.00852623
0.000197092
0.0089008
0.000627109
0.0104183
0.00238031
0.0111622
0.00823673
0.0109592
0.00937597
0.010669
0.00943786
0.0104345
0.00913035
0.0103461
0.00885715
0.0103645
0.00869373
0.0104318
0.00852061
0.00825329
0.0105186
0.00840003
9.67498e-11
0.00840003
5.79506e-10
0.00840004
2.0709e-09
0.00840003
5.65602e-09
0.00840006
1.52959e-08
0.00840001
3.73177e-08
0.00840013
9.59731e-08
0.00840006
2.27687e-07
0.00840025
5.8192e-07
0.0084008
1.37323e-06
0.00840047
3.50116e-06
0.00840545
8.4045e-06
0.00840613
2.14327e-05
0.00842753
5.42608e-05
0.00846922
0.00014967
0.00864227
0.000458725
0.00934496
0.00167021
0.0110718
0.00650014
0.0111436
0.00930282
0.0110038
0.00957656
0.0107495
0.00938318
0.0106354
0.00896951
0.0106132
0.00871216
0.0106423
0.00848774
0.00819076
0.0106995
0.00840003
7.36336e-11
0.00840003
4.59841e-10
0.00840004
1.5729e-09
0.00840003
4.49386e-09
0.00840006
1.16486e-08
0.0084
2.94803e-08
0.00840018
7.39661e-08
0.00839989
1.78543e-07
0.0084008
4.53473e-07
0.00839943
1.07313e-06
0.00840348
2.75864e-06
0.00839905
6.51546e-06
0.00841409
1.68987e-05
0.00841053
4.16138e-05
0.00846597
0.000113018
0.00857854
0.000328606
0.00913421
0.00112043
0.0113976
0.00422315
0.011491
0.00920647
0.0114214
0.00964491
0.0112103
0.00959293
0.0109676
0.00921001
0.0108808
0.00879556
0.0108767
0.00848535
0.00817513
0.0108853
0.00840003
5.04451e-11
0.00840003
3.53546e-10
0.00840003
1.13022e-09
0.00840003
3.4541e-09
0.00840004
8.37453e-09
0.00840004
2.27002e-08
0.00840009
5.23546e-08
0.00839999
1.37664e-07
0.00840054
3.18029e-07
0.00839962
8.18149e-07
0.00840343
1.92599e-06
0.00839815
4.86268e-06
0.00841759
1.17814e-05
0.00840507
2.97068e-05
0.0084729
7.63787e-05
0.00855715
0.000213295
0.00902397
0.000671363
0.0107684
0.00246714
0.0118626
0.00810575
0.0117722
0.00973223
0.0115412
0.00982099
0.0112812
0.00946702
0.0111719
0.00890003
0.0111221
0.00852951
0.00819891
0.0110889
0.00840003
3.98343e-11
0.00840003
2.53405e-10
0.00840003
8.71632e-10
0.00840004
2.469e-09
0.00840003
6.46109e-09
0.00840007
1.62031e-08
0.0084
4.04079e-08
0.00840023
9.93994e-08
0.00839989
2.43075e-07
0.00840107
6.00289e-07
0.00839948
1.45987e-06
0.00840474
3.62264e-06
0.00840012
8.84487e-06
0.00841978
2.22391e-05
0.00842145
5.63424e-05
0.00850198
0.000152969
0.00869392
0.000461238
0.00952259
0.00164333
0.0117026
0.00591032
0.0119184
0.00951234
0.0119141
0.0098214
0.0117147
0.0096626
0.0114592
0.00914956
0.0113591
0.00862055
0.00823632
0.0113075
0.00840003
2.95074e-11
0.00840003
1.77682e-10
0.00840003
6.34557e-10
0.00840004
1.7331e-09
0.00840003
4.68556e-09
0.00840006
1.14003e-08
0.00840001
2.91554e-08
0.00840018
6.93507e-08
0.00839993
1.74972e-07
0.00840088
4.15625e-07
0.00839962
1.04115e-06
0.00840453
2.48961e-06
0.00839924
6.21756e-06
0.00842067
1.51333e-05
0.00841586
3.82674e-05
0.00849728
9.93915e-05
0.00864725
0.000282319
0.0093862
0.000917671
0.0119855
0.00328999
0.0123976
0.00909437
0.0122821
0.00993214
0.0120319
0.00990713
0.0117847
0.00938902
0.0116305
0.00876247
0.00827694
0.0115702
0.00840003
2.04006e-11
0.00840003
1.28607e-10
0.00840003
4.4578e-10
0.00840004
1.2546e-09
0.00840003
3.28879e-09
0.00840005
8.24873e-09
0.00840003
2.03791e-08
0.00840011
5.01414e-08
0.00840003
1.2183e-07
0.00840036
2.99864e-07
0.00840038
7.23295e-07
0.00840115
1.78867e-06
0.00840321
4.31044e-06
0.00840631
1.07326e-05
0.00842001
2.63824e-05
0.00844941
6.77532e-05
0.00854751
0.000183835
0.00889617
0.00056537
0.0101627
0.00201886
0.0123017
0.00694348
0.0123634
0.00986182
0.0124164
0.00984438
0.0121973
0.00959515
0.0119617
0.00897871
0.00832597
0.0118845
0.00840003
1.42943e-11
0.00840003
9.14523e-11
0.00840003
3.14784e-10
0.00840003
8.91955e-10
0.00840003
2.31978e-09
0.00840004
5.89745e-09
0.00840003
1.42701e-08
0.00840009
3.61076e-08
0.00840003
8.49926e-08
0.00840028
2.16902e-07
0.00840026
5.03542e-07
0.00840082
1.29953e-06
0.00840226
3.00096e-06
0.00840399
7.76908e-06
0.00841394
1.84009e-05
0.00843106
4.76997e-05
0.00849174
0.000123809
0.00869177
0.000361788
0.00949045
0.00121806
0.0121525
0.00426325
0.0126898
0.00931164
0.0124833
0.0100342
0.0124331
0.00962733
0.0122723
0.00911463
0.00841893
0.0121341
0.00840003
1.02186e-11
0.00840003
6.14906e-11
0.00840003
2.18978e-10
0.00840003
5.99132e-10
0.00840003
1.61779e-09
0.00840004
3.90933e-09
0.00840003
1.0102e-08
0.00840007
2.35491e-08
0.00840001
6.06215e-08
0.00840032
1.39732e-07
0.00839986
3.59703e-07
0.00840188
8.292e-07
0.00839914
2.13098e-06
0.00841031
4.95812e-06
0.00839904
1.26749e-05
0.00844458
3.05807e-05
0.008449
7.97734e-05
0.0086303
0.000217206
0.00914289
0.000677163
0.0110192
0.00238485
0.0127858
0.00752084
0.0127264
0.010073
0.0125967
0.00972826
0.0125627
0.00910864
0.0083107
0.0126162
0.00840003
6.7007e-12
0.00840003
4.27178e-11
0.00840003
1.47351e-10
0.00840003
4.17763e-10
0.00840003
1.08321e-09
0.00840004
2.75482e-09
0.00840003
6.65205e-09
0.00840006
1.67817e-08
0.00840004
3.94534e-08
0.00840014
1.00541e-07
0.00840018
2.33072e-07
0.00840042
5.97813e-07
0.00840129
1.38361e-06
0.00840171
3.55206e-06
0.00840811
8.32528e-06
0.00841286
2.13051e-05
0.00844519
5.23938e-05
0.00851409
0.000141135
0.00878154
0.000411872
0.00973085
0.00142285
0.0124373
0.00478345
0.0129833
0.00949618
0.012939
0.00972188
0.0129342
0.009048
0.00812067
0.0130502
0.00840003
4.44944e-12
0.00840003
2.7758e-11
0.00840003
9.62489e-11
0.00840003
2.7133e-10
0.00840003
7.08132e-10
0.00840003
1.76568e-09
0.00840003
4.40064e-09
0.00840005
1.05669e-08
0.00840003
2.63148e-08
0.00840015
6.22271e-08
0.00839999
1.55327e-07
0.00840086
3.6621e-07
0.00839969
9.13599e-07
0.00840508
2.15764e-06
0.00839899
5.38997e-06
0.00842561
1.28909e-05
0.00841319
3.25495e-05
0.008512
8.25325e-05
0.00864903
0.000229788
0.00936503
0.000724532
0.0115848
0.00253154
0.0131098
0.00791571
0.0133089
0.00944324
0.0133879
0.00888032
0.00785501
0.013576
0.00840003
2.94196e-12
0.00840003
1.7542e-11
0.00840003
6.36743e-11
0.00840003
1.70748e-10
0.00840003
4.66425e-10
0.00840003
1.12053e-09
0.00840003
2.85108e-09
0.00840005
6.8085e-09
0.00840003
1.66941e-08
0.00840013
4.06586e-08
0.0084
9.71027e-08
0.00840055
2.41589e-07
0.00839993
5.63728e-07
0.00840271
1.43245e-06
0.00840025
3.30441e-06
0.00841257
8.49546e-06
0.00841054
2.00012e-05
0.0084581
5.21151e-05
0.00852358
0.000137152
0.00884182
0.000414732
0.00987352
0.0014601
0.0127571
0.00494676
0.0134196
0.00864436
0.0137209
0.00847212
0.0074453
0.0140749
0.00840003
1.77922e-12
0.00840003
1.07731e-11
0.00840003
3.84346e-11
0.00840003
1.04864e-10
0.00840003
2.81086e-10
0.00840003
6.79618e-10
0.00840004
1.7214e-09
0.00840003
4.04105e-09
0.00840004
1.01448e-08
0.00840006
2.3492e-08
0.00840006
5.87655e-08
0.00840029
1.366e-07
0.00840001
3.3744e-07
0.00840191
7.93114e-07
0.00839971
1.93531e-06
0.00841115
4.61792e-06
0.008403
1.12655e-05
0.00845044
2.76914e-05
0.00847923
7.16382e-05
0.00870798
0.000201378
0.00946026
0.000659494
0.0118625
0.00244922
0.0130655
0.00718119
0.0138485
0.00761149
0.00673405
0.0144927
0.00840003
1.0899e-12
0.00840003
6.63758e-12
0.00840003
2.32074e-11
0.00840003
6.44169e-11
0.00840003
1.69082e-10
0.00840003
4.12652e-10
0.00840004
1.04203e-09
0.00840003
2.4161e-09
0.00840005
6.13747e-09
0.00840003
1.3881e-08
0.0084001
3.5608e-08
0.00840007
7.90034e-08
0.0084002
2.05159e-07
0.00840059
4.52381e-07
0.0084003
1.16666e-06
0.0084041
2.61718e-06
0.00840249
6.63451e-06
0.00841996
1.55956e-05
0.00843483
4.02307e-05
0.00851935
0.000108669
0.00880623
0.000339199
0.00984169
0.0013031
0.0117488
0.00496855
0.0131564
0.00617137
0.00580852
0.0140675
0.00840003
6.06212e-13
0.00840003
4.17318e-12
0.00840003
1.33553e-11
0.00840003
4.05158e-11
0.00840003
9.88117e-11
0.00840003
2.58303e-10
0.00840003
6.12416e-10
0.00840003
1.51241e-09
0.00840005
3.64613e-09
0.00840001
8.63552e-09
0.00840012
2.14003e-08
0.00839992
4.92442e-08
0.00840048
1.24663e-07
0.00839943
2.79686e-07
0.00840226
7.24736e-07
0.00839714
1.59838e-06
0.00840892
4.19721e-06
0.00839387
9.55617e-06
0.00842408
2.52847e-05
0.00842326
6.67897e-05
0.00853525
0.000206044
0.00895161
0.000761604
0.0102247
0.00330269
0.0117959
0.00466023
0.0047419
0.0129255
0.00840003
3.52644e-13
0.00840003
2.48742e-12
0.00840003
8.01479e-12
0.00840003
2.44355e-11
0.00840003
5.88217e-11
0.00840003
1.60289e-10
0.00840003
3.61752e-10
0.00840003
9.52001e-10
0.00840004
2.17565e-09
0.00840002
5.50921e-09
0.00840008
1.30093e-08
0.00839992
3.1708e-08
0.00840039
7.789e-08
0.0083992
1.81751e-07
0.00840231
4.63786e-07
0.00839534
1.05566e-06
0.00840977
2.7314e-06
0.00838403
6.38151e-06
0.00841711
1.68011e-05
0.00838407
4.47572e-05
0.00843365
0.000137965
0.00855487
0.000502073
0.00905744
0.00233934
0.010315
0.00354676
0.00401295
0.0111667
0.00840003
1.99189e-13
0.00840003
1.63344e-12
0.00840003
4.73241e-12
0.00840003
1.61478e-11
0.00840003
3.47301e-11
0.00840003
1.05798e-10
0.00840003
2.13636e-10
0.00840003
6.54255e-10
0.00840003
1.26029e-09
0.00840003
3.97413e-09
0.00840004
7.63573e-09
0.00839996
2.3541e-08
0.0084002
4.72714e-08
0.00839939
1.37015e-07
0.00840132
2.9848e-07
0.00839613
7.91989e-07
0.00840566
1.89951e-06
0.00838524
4.80049e-06
0.00840464
1.23905e-05
0.00836874
3.41804e-05
0.00837372
0.000106336
0.00833141
0.000394147
0.00828032
0.00189813
0.00914463
0.00287835
0.00329058
0.0100121
0.00840003
2.13287e-13
0.00840003
7.76917e-13
0.00840003
4.06923e-12
0.00840003
7.44941e-12
0.00840003
3.0338e-11
0.00840003
4.82179e-11
0.00840003
1.90581e-10
0.00840004
2.93811e-10
0.00840002
1.14821e-09
0.00840005
1.84012e-09
0.00839999
6.74803e-09
0.00840013
1.21249e-08
0.00839981
3.96649e-08
0.00840032
8.22863e-08
0.00839915
2.32414e-07
0.00840029
5.65721e-07
0.00839649
1.40888e-06
0.00839832
3.81221e-06
0.00838398
9.59649e-06
0.00837883
2.80671e-05
0.00834337
8.7642e-05
0.00825186
0.000336262
0.00798354
0.00165957
0.00852079
0.00254271
0.00274105
0.00921547
0.00840003
8.98197e-14
0.00840003
9.08689e-13
0.00840003
1.93774e-12
0.00840003
8.99919e-12
0.00840003
1.38105e-11
0.00840003
6.07313e-11
0.00840003
8.00137e-11
0.00840003
3.7646e-10
0.00840003
4.62853e-10
0.00840002
2.27027e-09
0.00840006
2.88358e-09
0.00839993
1.34261e-08
0.00840024
2.00777e-08
0.00839934
7.81259e-08
0.0084014
1.44594e-07
0.00839604
4.65544e-07
0.00840578
1.04232e-06
0.00838434
2.86008e-06
0.00840457
7.59306e-06
0.0083626
2.19257e-05
0.00835965
7.10976e-05
0.0082518
0.000276816
0.00807797
0.00138674
0.00840162
0.002372
0.00241605
0.00883719
0.00840003
1.30736e-13
0.00840003
4.35494e-13
0.00840003
2.33087e-12
0.00840003
4.29399e-12
0.00840003
1.72047e-11
0.00840003
2.6023e-11
0.00840003
1.15029e-10
0.00840004
1.37417e-10
0.00840002
7.2963e-10
0.00840005
7.76894e-10
0.00839999
4.46488e-09
0.00840013
5.10112e-09
0.00839978
2.63957e-08
0.00840056
3.81529e-08
0.00839867
1.52865e-07
0.00840228
2.77566e-07
0.00839404
8.94357e-07
0.00840572
2.03875e-06
0.00838212
5.68965e-06
0.00839675
1.59261e-05
0.00836372
5.04229e-05
0.00833107
0.000190386
0.00835077
0.000943436
0.0084768
0.00231327
0.00226671
0.00870373
0.00840003
4.31259e-14
0.00840003
5.53828e-13
0.00840003
1.22136e-12
0.00840003
5.3326e-12
0.00840003
9.15282e-12
0.00840003
3.51808e-11
0.00840003
5.68044e-11
0.00840003
2.19946e-10
0.00840003
3.49824e-10
0.00840003
1.30514e-09
0.00840005
2.32422e-09
0.00839996
7.45327e-09
0.00840018
1.56096e-08
0.00839948
4.34165e-08
0.00840111
1.04736e-07
0.00839684
2.58238e-07
0.00840526
6.96759e-07
0.00838765
1.64897e-06
0.00840862
4.6289e-06
0.00837656
1.2491e-05
0.0083881
3.94865e-05
0.00836429
0.000141754
0.0084443
0.00067037
0.00851641
0.00212171
0.00215414
0.00865581
0.00840003
4.58468e-14
0.00840003
4.00566e-13
0.00840003
1.04899e-12
0.00840003
3.96884e-12
0.00840003
7.85342e-12
0.00840003
2.7323e-11
0.00840003
4.63016e-11
0.00840003
1.76081e-10
0.00840003
2.72795e-10
0.00840004
1.1211e-09
0.00840002
1.61208e-09
0.00840004
7.03499e-09
0.0084
1.02199e-08
0.00839987
4.31526e-08
0.00840022
7.07764e-08
0.00839849
2.5569e-07
0.00840162
5.13775e-07
0.00839392
1.53086e-06
0.00840095
3.70556e-06
0.00838685
1.07294e-05
0.0083862
3.2634e-05
0.00836864
0.000115877
0.00836959
0.000535265
0.00847183
0.00186727
0.00199026
0.00862112
0.00840003
6.71572e-14
0.00840003
1.76894e-13
0.00840003
1.22202e-12
0.00840003
1.75965e-12
0.00840003
9.10175e-12
0.00840003
1.19885e-11
0.00840003
5.89496e-11
0.00840004
7.39513e-11
0.00840003
3.91766e-10
0.00840005
4.04339e-10
0.00839999
2.53184e-09
0.00840012
2.4202e-09
0.00839983
1.54982e-08
0.00840044
1.77075e-08
0.00839907
9.33196e-08
0.00840139
1.49647e-07
0.00839642
5.39666e-07
0.00840341
1.15873e-06
0.00838927
3.35084e-06
0.00840092
8.97543e-06
0.00838033
2.78825e-05
0.0083748
9.78543e-05
0.00836182
0.00044391
0.00845476
0.00164386
0.00184104
0.0085902
0.00840003
6.48487e-14
0.00840003
5.16794e-14
0.00840003
1.24902e-12
0.00840003
4.98055e-13
0.00840003
8.92564e-12
0.00840003
5.85431e-12
0.00840003
5.01335e-11
0.00840003
6.58607e-11
0.00840003
2.54594e-10
0.00840003
6.20957e-10
0.00840003
1.29209e-09
0.00839999
5.07918e-09
0.00840013
6.49231e-09
0.00839958
3.6872e-08
0.00840098
3.67761e-08
0.00839728
2.44728e-07
0.00840506
2.25842e-07
0.00838914
1.46478e-06
0.00841042
2.16867e-06
0.00838177
8.54376e-06
0.00839752
2.29885e-05
0.00837338
8.3004e-05
0.00836838
0.00036857
0.00846353
0.00142538
0.00163285
0.00862642
0.00840003
1.23063e-14
0.00840003
2.18639e-13
0.00840003
4.45723e-13
0.00840003
2.17987e-12
0.00840003
3.45972e-12
0.00840003
1.65705e-11
0.00840003
2.36877e-11
0.00840003
1.14802e-10
0.00840004
1.31791e-10
0.00840002
7.83192e-10
0.00840007
6.44858e-10
0.00839995
5.07167e-09
0.00840023
4.33379e-09
0.00839959
3.10948e-08
0.00840088
3.36996e-08
0.00839806
1.84396e-07
0.00840285
2.83866e-07
0.00839366
1.03313e-06
0.00840533
2.31496e-06
0.00838609
6.7952e-06
0.00839671
2.03449e-05
0.00837773
6.96322e-05
0.00837344
0.00030337
0.00847258
0.00120959
0.00139461
0.0086599
0.00840003
2.99176e-14
0.00840003
2.02691e-13
0.00840003
4.17852e-13
0.00840003
1.89764e-12
0.00840003
3.83782e-12
0.00840003
1.05785e-11
0.00840003
3.49803e-11
0.00840003
5.47738e-11
0.00840004
2.8027e-10
0.00840003
2.44417e-10
0.00840004
2.10356e-09
0.00840002
1.10779e-09
0.00839999
1.44516e-08
0.00840012
6.04092e-09
0.00839942
9.21585e-08
0.00840109
3.14361e-08
0.0083967
5.33774e-07
0.00840387
4.55669e-07
0.00839205
2.63986e-06
0.00840087
5.21153e-06
0.00838805
1.78784e-05
0.00838518
5.84627e-05
0.00837676
0.000245747
0.0084753
0.0010025
0.0011422
0.00867568
0.00840003
2.85991e-14
0.00840003
3.83005e-14
0.00840003
5.39344e-13
0.00840003
4.58404e-13
0.00840003
3.88784e-12
0.00840003
5.09219e-12
0.00840003
2.51571e-11
0.00840003
4.57247e-11
0.00840003
1.51366e-10
0.00840002
3.86917e-10
0.00840006
8.73486e-10
0.00839995
2.75563e-09
0.00840025
5.78579e-09
0.00839945
1.77266e-08
0.00840148
3.58931e-08
0.00839676
1.18247e-07
0.00840727
2.21818e-07
0.00838672
7.62575e-07
0.00841691
1.59976e-06
0.00837841
4.98001e-06
0.00840605
1.41405e-05
0.00838696
4.78499e-05
0.00838004
0.00019531
0.00847332
0.000809625
0.000867567
0.0086946
0.00840003
-3.33762e-14
0.00840003
1.85307e-13
0.00840003
-1.57413e-13
0.00840003
1.91943e-12
0.00840003
-6.48521e-13
0.00840003
1.55876e-11
0.00840003
-8.19027e-12
0.00840003
1.17161e-10
0.00840004
-6.50187e-11
0.00840002
7.94809e-10
0.00840007
-4.16782e-10
0.00839994
4.97694e-09
0.00840028
-2.07246e-09
0.00839947
2.82423e-08
0.00840139
-2.65172e-09
0.00839708
1.55122e-07
0.00840594
8.08681e-08
0.00838922
7.4023e-07
0.00841295
1.08089e-06
0.00838191
3.84264e-06
0.00840464
1.06055e-05
0.00839643
3.60659e-05
0.00838333
0.000149102
0.00847078
0.000627422
0.000602793
0.00871172
0.00840003
3.68472e-14
0.00840003
-1.20329e-14
0.00840003
6.03173e-13
0.00840003
-1.41882e-13
0.00840003
4.64056e-12
0.00840003
-8.80226e-13
0.00840003
2.99559e-11
0.00840003
-4.7497e-12
0.00840003
1.84046e-10
0.00840004
-4.8608e-11
0.00840001
1.11889e-09
0.0084001
2.42714e-10
0.00839984
5.45368e-09
0.0084005
6.77868e-09
0.00839881
2.74114e-08
0.00840291
5.96622e-08
0.00839394
1.3708e-07
0.00841042
4.01582e-07
0.00838421
7.83355e-07
0.00841246
2.57725e-06
0.00838429
6.73357e-06
0.0084065
2.42776e-05
0.0083901
0.00010004
0.00849909
0.000430153
0.000391731
0.00869275
0.00840003
2.2029e-14
0.00840003
2.52662e-15
0.00840003
2.90659e-13
0.00840003
1.3325e-13
0.00840003
1.95973e-12
0.00840003
6.71947e-13
0.00840003
1.56977e-11
0.00840003
-1.61182e-12
0.00840004
1.10378e-10
0.00840002
-1.36235e-11
0.00840005
7.3732e-10
0.0084
-2.24183e-10
0.00840005
4.71405e-09
0.00840001
-1.35236e-09
0.00839976
2.68203e-08
0.0084005
-5.4075e-09
0.00839808
1.31744e-07
0.00840236
5.53594e-08
0.00839528
6.05628e-07
0.00840038
9.53123e-07
0.00839329
3.63112e-06
0.00840152
1.1952e-05
0.00839097
5.03486e-05
0.00851977
0.000219338
0.000192912
0.00869704
0.00840003
0.00840003
0.00840003
0.00840003
0.00840003
0.00840003
0.00840003
0.00840003
0.00840004
0.00840002
0.00840007
0.00839995
0.00840023
0.00839961
0.00840099
0.00839803
0.0084035
0.00839358
0.00840773
0.00838753
0.00840352
0.00839481
0.00839146
0.00852919
0.00869987
0.00393057
0.00434375
0.00149422
0.00242795
-0.000779307
0.00226963
-0.00171965
0.000940429
-0.00238762
0.000667413
-0.00270786
0.000320465
-0.00281109
0.000104185
-0.00295319
0.000143284
-0.0031173
0.000165031
-0.00325197
0.000135595
-0.00333301
8.198e-05
-0.00336819
3.50006e-05
-0.00340419
3.31478e-05
-0.00343888
3.10692e-05
-0.00344799
4.78172e-06
-0.00342185
-3.21042e-05
-0.00336596
-6.23649e-05
-0.00328328
-8.98186e-05
-0.00317505
-0.000115033
-0.00305176
-0.000129733
-0.00291779
-0.000139771
-0.00277603
-0.000147076
-0.00262761
-0.000152854
-0.0024732
-0.000158823
-0.00231171
-0.000165306
-0.00214373
-0.000172163
-0.00196742
-0.000180303
-0.00178467
-0.000187134
-0.00159179
-0.000197806
-0.00139087
-0.00020606
-0.00118468
-0.00021165
-0.00097717
-0.000213125
-0.000768124
-0.000214677
-0.000556858
-0.000217061
-0.000342437
-0.00021988
-0.000124553
-0.000222693
0.000100785
-0.000229907
0.00032065
-0.000224122
0.000531739
-0.000214746
0.00073627
-0.000207566
0.000936163
-0.000202207
0.00113001
-0.000195719
0.0013176
-0.00018872
0.00149826
-0.000181659
0.00167528
-0.000177136
0.00185196
-0.000175957
0.0020241
-0.000170945
0.00219066
-0.00016467
0.00235126
-0.000157803
0.00250595
-0.000151546
0.00265491
-0.00014522
0.00279901
-0.000139582
0.00293769
-0.000133744
0.00307157
-0.000128251
0.00320004
-0.000122719
0.00332349
-0.0001174
0.00344217
-0.000112164
0.00355565
-0.000107154
0.00366429
-0.000102171
0.00376812
-9.7475e-05
0.00386732
-9.27987e-05
0.00396155
-8.84125e-05
0.00405107
-8.39975e-05
0.00413618
-7.99054e-05
0.00421636
-7.57641e-05
0.00429269
-7.18939e-05
0.00436416
-6.80292e-05
0.00443168
-6.43333e-05
0.00449483