/*--------------------------------*- C++ -*----------------------------------*\
  =========                 |
  \\      /  F ield         | OpenFOAM: The Open Source CFD Toolbox
   \\    /   O peration     | Website:  https://openfoam.org
    \\  /    A nd           | Version:  13
     \\/     M anipulation  |
\*---------------------------------------------------------------------------*/
FoamFile
{
    format      ascii;
    class       volScalarField;
    location    "9";
    object      rho;
}
// * * * * * * * * * * * * * * * * * * * * * * * * * * * * * * * * * * * * * //

dimensions      [1 -3 0 0 0 0 0];

internalField   nonuniform List<scalar> 
5250
(
1.40001
1.40003
1.40008
1.40019
1.40053
1.4012
1.40318
1.40737
1.41883
1.4441
1.50595
1.63731
1.91576
2.62595
5.34368
5.73622
5.68007
5.6651
5.68761
5.76838
5.85213
5.90477
5.94547
5.97881
6.00533
1.40001
1.40003
1.40008
1.40019
1.40052
1.4012
1.40313
1.40734
1.41854
1.44378
1.50473
1.63518
1.91113
2.61048
5.30547
5.73439
5.67863
5.66235
5.685
5.76592
5.8497
5.90269
5.9443
5.97852
6.00611
1.40001
1.40003
1.40008
1.40018
1.40053
1.40112
1.40318
1.40689
1.41867
1.44195
1.50355
1.62952
1.9024
2.57794
5.2204
5.73064
5.67451
5.65312
5.67516
5.7542
5.8374
5.88924
5.93114
5.96464
5.99217
1.40001
1.40003
1.40008
1.40018
1.40049
1.40112
1.40302
1.40673
1.41794
1.44067
1.49995
1.62265
1.88781
2.53009
5.08592
5.7275
5.6692
5.63731
5.65744
5.73361
5.81422
5.86578
5.906
5.94013
5.96786
1.40001
1.40003
1.40007
1.4002
1.40042
1.4012
1.40255
1.40715
1.41562
1.44109
1.49249
1.61586
1.86595
2.46905
4.89829
5.72756
5.664
5.61551
5.633
5.70493
5.78235
5.83077
5.86946
5.90165
5.93102
1.40001
1.40003
1.40006
1.40018
1.40039
1.40112
1.40239
1.40669
1.4146
1.43863
1.48674
1.60379
1.84054
2.39439
4.65149
5.73489
5.66052
5.58815
5.60222
5.66754
5.74183
5.78574
5.82113
5.85151
5.88194
1.40001
1.40002
1.40007
1.40014
1.40042
1.40088
1.40254
1.40538
1.41495
1.433
1.48342
1.58546
1.81235
2.3075
4.33983
5.75203
5.66132
5.5557
5.56528
5.62028
5.68882
5.72667
5.75474
5.77929
5.81043
1.40001
1.40002
1.40006
1.40014
1.40036
1.40085
1.40213
1.40523
1.41264
1.43112
1.4735
1.5702
1.77464
2.21479
3.9588
5.78427
5.66947
5.52147
5.52486
5.56717
5.62466
5.65257
5.66945
5.68151
5.7082
1.40001
1.40002
1.40005
1.40014
1.40029
1.40081
1.40175
1.40481
1.41071
1.4281
1.4638
1.55246
1.73357
2.11945
3.52479
5.81486
5.68332
5.48904
5.48186
5.50638
5.54942
5.55916
5.55671
5.54258
5.54758
1.40001
1.40002
1.40004
1.40011
1.40026
1.40067
1.40159
1.40399
1.40963
1.42357
1.45623
1.53163
1.69334
2.02817
3.05423
5.80604
5.68711
5.46859
5.43836
5.44175
5.46072
5.44993
5.41828
5.34904
5.29391
1.40001
1.40002
1.40004
1.4001
1.40024
1.40058
1.40138
1.40354
1.40821
1.42097
1.44874
1.51651
1.6598
1.9605
2.78808
5.59172
5.58679
5.45027
5.37901
5.36957
5.35789
5.324
5.2335
5.02283
4.4279
1.40001
1.40001
1.40004
1.40008
1.40021
1.40048
1.40126
1.40291
1.40748
1.41764
1.4436
1.50123
1.631
1.89954
2.57167
5.14149
5.46341
5.40268
5.31199
5.28945
5.25524
5.18672
5.04121
4.74632
4.11855
1.40001
1.40001
1.40003
1.40007
1.40018
1.40041
1.40107
1.40253
1.40637
1.41531
1.4374
1.48807
1.60173
1.83992
2.38714
4.61117
5.39444
5.35763
5.25309
5.20331
5.15322
5.05597
4.86814
4.56351
4.08457
1.40001
1.40001
1.40003
1.40007
1.40014
1.40039
1.40081
1.40233
1.40492
1.41372
1.43015
1.47648
1.57048
1.78012
2.22258
4.0099
5.36854
5.33018
5.21001
5.12363
5.05154
4.93711
4.74789
4.46519
4.09284
1.40001
1.40001
1.40002
1.40005
1.40013
1.40028
1.40074
1.40172
1.40439
1.41044
1.42581
1.46107
1.54275
1.71603
2.07409
3.34693
5.34219
5.31201
5.19203
5.05683
4.96288
4.83775
4.65527
4.40798
4.09609
1.40001
1.40001
1.40002
1.40005
1.40009
1.40025
1.40054
1.40151
1.40321
1.4089
1.41947
1.45033
1.51288
1.65875
1.94712
2.74566
5.18996
5.26964
5.18529
5.00909
4.89041
4.76454
4.58718
4.36116
4.09348
1.40001
1.40001
1.40002
1.40004
1.40008
1.4002
1.40043
1.40121
1.40257
1.40715
1.41557
1.44087
1.49144
1.61361
1.85821
2.44579
4.698
5.17285
5.12093
4.976
4.83102
4.70123
4.53617
4.32784
4.08808
1.40001
1.40001
1.40001
1.40003
1.40006
1.40016
1.40036
1.4009
1.40218
1.40529
1.41309
1.43122
1.47491
1.57145
1.77692
2.21488
3.96536
5.08295
5.05742
4.95402
4.79037
4.64858
4.49252
4.30173
4.08588
1.40001
1.40001
1.40001
1.40002
1.40005
1.40011
1.40029
1.40066
1.40171
1.40403
1.41004
1.42405
1.45785
1.53392
1.69849
2.02795
3.16507
4.99862
5.02283
4.95198
4.77935
4.61513
4.45911
4.28499
4.08738
1.40001
1.40001
1.40001
1.40002
1.40004
1.40008
1.40023
1.40048
1.40134
1.40287
1.40787
1.41728
1.44477
1.50011
1.63155
1.88718
2.54156
4.71462
5.0005
4.93836
4.7832
4.59552
4.438
4.2743
4.09958
1.40001
1.40001
1.40001
1.40002
1.40003
1.40007
1.40017
1.40037
1.401
1.40215
1.40595
1.4129
1.43417
1.47609
1.5802
1.78726
2.24394
4.02386
4.91229
4.88462
4.78568
4.59301
4.42781
4.27343
4.11141
1.40001
1.40001
1.40001
1.40001
1.40002
1.40005
1.40012
1.40029
1.40071
1.40164
1.40425
1.40969
1.42487
1.45687
1.53515
1.6967
2.0215
3.16464
4.7901
4.84526
4.78179
4.62146
4.44021
4.28755
4.13387
1.40001
1.40001
1.40001
1.40001
1.40002
1.40004
1.40008
1.40022
1.40046
1.40128
1.40278
1.40746
1.41668
1.44251
1.49575
1.62075
1.86022
2.46226
4.45586
4.82624
4.77744
4.65108
4.46937
4.31252
4.16682
1.40001
1.40001
1.40001
1.40001
1.40002
1.40003
1.40007
1.40015
1.40035
1.40088
1.40204
1.40526
1.412
1.43058
1.46968
1.56343
1.75325
2.15061
3.68692
4.75296
4.73788
4.67181
4.51305
4.34996
4.21617
1.40001
1.40001
1.40001
1.40001
1.40001
1.40002
1.40005
1.4001
1.40025
1.4006
1.40144
1.40362
1.40836
1.42118
1.44864
1.51574
1.65558
1.92476
2.7293
4.55884
4.74838
4.6972
4.57395
4.41112
4.29655
1.40001
1.40001
1.40001
1.40001
1.40001
1.40002
1.40003
1.40008
1.40017
1.40044
1.40095
1.40262
1.40557
1.41523
1.43327
1.48332
1.58359
1.79818
2.2658
4.00707
4.70955
4.69541
4.64305
4.51354
4.41508
1.40001
1.40001
1.40001
1.40001
1.40001
1.40001
1.40003
1.40005
1.40012
1.4003
1.40066
1.4018
1.40384
1.41052
1.42291
1.45853
1.52992
1.69277
1.99824
3.08855
4.56119
4.72176
4.69418
4.63417
4.58852
1.40001
1.40001
1.40001
1.40001
1.40001
1.40001
1.40002
1.40004
1.40009
1.40019
1.4005
1.40109
1.40285
1.40654
1.41642
1.43833
1.4911
1.60416
1.82618
2.36459
4.16453
4.72437
4.78798
4.77782
4.78716
1.40001
1.40001
1.40001
1.40001
1.40001
1.40001
1.40001
1.40003
1.40006
1.40014
1.4003
1.40082
1.40176
1.40483
1.41042
1.42759
1.46118
1.54637
1.71442
2.05698
3.29922
4.62657
4.93489
4.99788
5.06492
1.40001
1.40001
1.40001
1.40001
1.40001
1.40001
1.40001
1.40002
1.40004
1.40009
1.40023
1.4005
1.4013
1.40298
1.40752
1.41761
1.44295
1.49867
1.62385
1.85719
2.47333
4.33112
5.09843
5.31426
5.41019
1.40001
1.40001
1.40001
1.40001
1.40001
1.40001
1.40001
1.40002
1.40003
1.40006
1.40015
1.40037
1.40086
1.40219
1.40502
1.41289
1.42949
1.47219
1.56277
1.75744
2.16128
3.6244
5.2313
5.67708
5.74845
1.40001
1.40001
1.40001
1.40001
1.40001
1.40001
1.40001
1.40001
1.40002
1.40005
1.40012
1.40024
1.40068
1.40142
1.40396
1.40854
1.42278
1.45073
1.52335
1.67082
1.9724
2.82238
5.17523
6.03268
6.03981
1.40001
1.40001
1.40001
1.40001
1.40001
1.40001
1.40001
1.40001
1.40002
1.40004
1.40009
1.40019
1.40053
1.40111
1.40315
1.40671
1.41839
1.4408
1.50147
1.626
1.8973
2.57441
4.91141
6.19475
6.21119
1.40001
1.40001
1.40001
1.40001
1.40001
1.40001
1.40001
1.40001
1.40002
1.40003
1.40007
1.40017
1.40041
1.40099
1.40255
1.4059
1.41534
1.43571
1.48763
1.59982
1.84363
2.43918
4.54324
6.22538
6.22382
1.40001
1.40001
1.40001
1.40001
1.40001
1.40001
1.40001
1.40001
1.40001
1.40003
1.40006
1.40016
1.40034
1.40092
1.40212
1.40553
1.41307
1.43311
1.47781
1.58385
1.80596
2.36183
4.2356
6.23158
6.15066
1.40001
1.40001
1.40001
1.40001
1.40001
1.40001
1.40001
1.40001
1.40001
1.40003
1.40005
1.40015
1.4003
1.40086
1.40186
1.40523
1.41163
1.43113
1.4711
1.57221
1.77861
2.30144
3.99819
6.23815
6.04588
1.40001
1.40001
1.40001
1.40001
1.40001
1.40001
1.40001
1.40001
1.40001
1.40002
1.40005
1.40013
1.40029
1.40078
1.40175
1.40484
1.41081
1.42902
1.46641
1.56147
1.75644
2.24186
3.78026
6.25312
5.9587
1.40001
1.40001
1.40001
1.40001
1.40001
1.40001
1.40001
1.40001
1.40001
1.40003
1.40005
1.40013
1.40027
1.40074
1.40166
1.40447
1.41033
1.42685
1.46271
1.55143
1.73651
2.17343
3.56373
6.2838
5.92523
1.40001
1.40001
1.40001
1.40001
1.40001
1.40001
1.40001
1.40001
1.40001
1.40002
1.40005
1.40011
1.40027
1.40069
1.4016
1.40424
1.40977
1.42541
1.45916
1.54231
1.71754
2.10294
3.35558
6.29223
5.90915
1.40001
1.40001
1.40001
1.40001
1.40001
1.40001
1.40001
1.40001
1.40001
1.40002
1.40004
1.40012
1.40025
1.40069
1.4015
1.40415
1.40928
1.42457
1.4563
1.53665
1.70307
2.05637
3.19541
6.24844
5.89609
1.40001
1.40001
1.40001
1.40001
1.40001
1.40001
1.40001
1.40001
1.40001
1.40002
1.40004
1.40011
1.40024
1.40067
1.40143
1.40407
1.40882
1.42401
1.45393
1.53232
1.69232
2.02846
3.09477
6.14499
5.87523
1.40001
1.40001
1.40001
1.40001
1.40001
1.40001
1.40001
1.40001
1.40001
1.40002
1.40005
1.40011
1.40024
1.40063
1.40144
1.40387
1.40871
1.42304
1.45269
1.52788
1.68421
2.00764
3.01461
6.04469
5.85073
1.40001
1.40001
1.40001
1.40001
1.40001
1.40001
1.40001
1.40001
1.40001
1.40002
1.40004
1.40011
1.40023
1.40064
1.40136
1.40384
1.40837
1.42264
1.4509
1.52506
1.6763
1.99154
2.94746
5.95285
5.82047
1.40001
1.40001
1.40001
1.40001
1.40001
1.40001
1.40001
1.40001
1.40001
1.40002
1.40004
1.4001
1.40024
1.40057
1.40149
1.40339
1.40899
1.42058
1.45204
1.51943
1.67227
1.97698
2.89173
5.86861
5.78478
1.40001
1.40001
1.40001
1.40001
1.40001
1.40001
1.40001
1.40001
1.40001
1.40002
1.40005
1.40009
1.40025
1.40053
1.40152
1.40321
1.40901
1.41982
1.45144
1.51639
1.66733
1.96772
2.84552
5.79387
5.7512
1.40001
1.40001
1.40001
1.40001
1.40001
1.40001
1.40001
1.40001
1.40001
1.40002
1.40004
1.4001
1.40022
1.40059
1.40133
1.40348
1.40817
1.42069
1.44868
1.51656
1.66069
1.96432
2.80716
5.73093
5.72243
1.40001
1.40001
1.40001
1.40001
1.40001
1.40001
1.40001
1.40001
1.40001
1.40002
1.40004
1.4001
1.40022
1.40057
1.40134
1.40336
1.40822
1.42003
1.44849
1.5142
1.65749
1.96142
2.77811
5.68082
5.69832
1.40001
1.40001
1.40001
1.40001
1.40001
1.40001
1.40001
1.40001
1.40001
1.40002
1.40004
1.40009
1.40024
1.40052
1.40141
1.40318
1.40838
1.41938
1.44865
1.51197
1.65565
1.95772
2.7562
5.63967
5.69406
1.40001
1.40001
1.40001
1.40001
1.40001
1.40001
1.40001
1.40001
1.40001
1.40002
1.40004
1.40009
1.40024
1.40051
1.40144
1.40305
1.40856
1.41876
1.44895
1.51038
1.65433
1.95394
2.74014
5.61189
5.6946
1.40001
1.40001
1.40001
1.40001
1.40001
1.40001
1.40001
1.40001
1.40001
1.40002
1.40004
1.40009
1.40023
1.40053
1.40137
1.40316
1.4083
1.41907
1.44818
1.51068
1.65268
1.95234
2.73146
5.59763
5.6955
2.25472
1.84731
2.14735
1.97236
1.8752
1.8526
1.83878
1.80725
1.77233
1.74297
1.71971
1.69745
1.68533
1.68079
1.67975
1.68979
1.70943
1.73923
1.77299
1.80977
1.84624
1.88325
1.91867
1.95375
1.98836
2.02166
2.05558
2.08681
2.11928
2.14971
2.17929
2.20684
2.23206
2.25624
2.27837
2.29765
2.31392
2.32993
2.34448
2.35545
2.36574
2.37356
2.3794
2.38425
2.38684
2.38912
2.38785
2.38664
2.38333
2.38037
2.37419
2.36895
2.36108
2.35367
2.34432
2.33475
2.32374
2.31295
2.30009
2.28805
2.27388
2.26083
2.24514
2.23104
2.21442
2.19899
2.18202
2.16527
2.14783
2.13022
2.11203
2.09398
2.07514
2.05676
2.03748
2.01893
1.99932
1.98086
1.96102
1.9428
1.92299
1.90495
1.88553
1.86754
1.84881
1.83085
1.8129
1.7952
1.7779
1.76075
1.74408
1.72772
1.71174
1.69642
1.68156
1.66773
1.65466
1.64324
1.63321
1.62738
2.77903
2.40865
2.34085
2.09651
1.88744
1.8409
1.78363
1.72158
1.66876
1.62864
1.60331
1.58606
1.57075
1.56339
1.5598
1.56795
1.58908
1.62088
1.66022
1.70183
1.74513
1.78867
1.83219
1.87533
1.91889
1.96021
1.99849
2.03791
2.07554
2.11481
2.15011
2.18569
2.21769
2.24855
2.27548
2.30231
2.32509
2.34926
2.36831
2.38692
2.40172
2.41537
2.42552
2.43536
2.44251
2.44881
2.45127
2.45281
2.45295
2.45136
2.44908
2.44527
2.44006
2.43381
2.42617
2.41785
2.40821
2.39833
2.38684
2.37537
2.36248
2.34913
2.33523
2.32008
2.30521
2.2887
2.27273
2.25527
2.23824
2.22004
2.2021
2.18332
2.16464
2.14551
2.12622
2.107
2.08723
2.0681
2.04809
2.02904
2.00913
1.99006
1.97056
1.95142
1.93246
1.91341
1.89503
1.87631
1.85835
1.84028
1.82297
1.80579
1.78925
1.77319
1.75772
1.74317
1.72949
1.71742
1.70672
1.70042
3.27935
2.82017
2.57731
2.37912
2.14204
2.01751
1.86218
1.75384
1.67257
1.62066
1.58799
1.55102
1.52468
1.50906
1.50326
1.51476
1.53959
1.57439
1.61924
1.66574
1.71518
1.76458
1.8143
1.86367
1.9122
1.96023
2.0081
2.05652
2.10371
2.15127
2.19617
2.2401
2.28141
2.31992
2.35644
2.39021
2.42167
2.45054
2.47709
2.50006
2.52058
2.53739
2.55276
2.56456
2.57616
2.58413
2.58978
2.59285
2.59474
2.59486
2.59334
2.59034
2.58529
2.57961
2.57157
2.56345
2.55308
2.5425
2.53023
2.51728
2.50331
2.48843
2.47283
2.45653
2.4394
2.42193
2.40342
2.38485
2.36515
2.34565
2.32491
2.3048
2.28322
2.26276
2.2406
2.21999
2.19751
2.17679
2.15435
2.13347
2.1114
2.09037
2.06892
2.04787
2.02708
2.00625
1.98633
1.96605
1.94689
1.92728
1.90874
1.88999
1.87236
1.85467
1.83827
1.82207
1.80756
1.79388
1.78238
1.77465
3.53015
3.07437
2.7697
2.56416
2.377
2.22477
2.11074
1.96233
1.83745
1.71594
1.65057
1.60237
1.56835
1.54874
1.54492
1.55444
1.58028
1.6228
1.67151
1.72309
1.77782
1.83322
1.89015
1.94651
2.00309
2.05951
2.11538
2.17096
2.2243
2.27738
2.32683
2.37498
2.41886
2.46086
2.499
2.53453
2.56678
2.59654
2.62261
2.64629
2.66533
2.68291
2.69532
2.70757
2.71651
2.72503
2.72828
2.73031
2.72894
2.72854
2.72451
2.72085
2.71382
2.7067
2.69724
2.68705
2.67558
2.66271
2.64943
2.63439
2.6195
2.60277
2.58647
2.56835
2.55079
2.53145
2.51277
2.49239
2.47273
2.45154
2.43102
2.40922
2.38798
2.36574
2.34393
2.32138
2.29931
2.27652
2.25452
2.23152
2.20986
2.18673
2.16563
2.14271
2.12228
2.09969
2.07964
2.05755
2.03803
2.01666
1.99772
1.97729
1.95917
1.93999
1.92305
1.90557
1.89046
1.87571
1.86348
1.85497
3.66236
3.2581
2.95047
2.72375
2.55407
2.40132
2.28781
2.17529
2.06255
1.96344
1.86954
1.79824
1.7476
1.71559
1.7043
1.71104
1.73107
1.76919
1.82004
1.87666
1.93471
1.99534
2.05588
2.11623
2.17677
2.23532
2.29396
2.3488
2.40347
2.4533
2.50248
2.54575
2.58798
2.62437
2.65912
2.68863
2.7165
2.73949
2.76134
2.77818
2.7941
2.80531
2.8153
2.82209
2.82891
2.83314
2.83507
2.8326
2.829
2.82405
2.81839
2.81084
2.80265
2.79224
2.78164
2.76871
2.75596
2.74088
2.72615
2.70919
2.69268
2.67412
2.65605
2.63617
2.61676
2.59585
2.57526
2.55356
2.53193
2.50971
2.48721
2.46472
2.44162
2.41905
2.39564
2.37306
2.34963
2.32705
2.30386
2.28142
2.25878
2.23665
2.21455
2.19271
2.17107
2.14969
2.12842
2.10764
2.08683
2.06677
2.04656
2.02731
2.00799
1.98977
1.97178
1.95508
1.93911
1.92503
1.91207
1.90429
3.74351
3.3963
3.10657
2.87994
2.70484
2.56199
2.44542
2.35161
2.25761
2.18044
2.11094
2.05005
2.00885
1.97258
1.95956
1.95796
1.97181
1.99355
2.02698
2.07734
2.13185
2.19094
2.24943
2.30748
2.3624
2.4146
2.46367
2.51034
2.55458
2.59648
2.63577
2.67272
2.70652
2.73754
2.76536
2.79073
2.81281
2.83326
2.8499
2.86572
2.87697
2.88787
2.89347
2.89991
2.90266
2.90657
2.90549
2.9027
2.89586
2.89008
2.88164
2.87368
2.86342
2.85293
2.84068
2.82786
2.81378
2.799
2.78323
2.76676
2.74935
2.73137
2.71242
2.69317
2.67283
2.65254
2.63091
2.60973
2.58691
2.56499
2.54116
2.51867
2.4941
2.47124
2.44636
2.42325
2.39859
2.37553
2.35138
2.32827
2.30468
2.28156
2.2586
2.23563
2.21335
2.19075
2.16919
2.14715
2.12638
2.10514
2.08526
2.06502
2.04623
2.02731
2.00992
1.99282
1.97737
1.9631
1.95039
1.94281
3.79949
3.49951
3.23601
3.01753
2.84391
2.70721
2.59552
2.51238
2.44203
2.38029
2.3319
2.28426
2.24936
2.21708
2.19444
2.17651
2.16786
2.17274
2.18824
2.21175
2.25008
2.30013
2.3564
2.41091
2.46133
2.50906
2.55197
2.59358
2.63254
2.66963
2.70502
2.73838
2.76967
2.79839
2.82498
2.84883
2.87043
2.88956
2.90622
2.9209
2.93285
2.94291
2.94991
2.95556
2.96022
2.96377
2.96535
2.96254
2.95794
2.95135
2.94441
2.93533
2.92608
2.91423
2.90244
2.88803
2.87395
2.85747
2.84144
2.8233
2.80557
2.78603
2.76674
2.746
2.72527
2.70357
2.68152
2.65902
2.63582
2.61271
2.58862
2.56513
2.54046
2.51686
2.49237
2.4688
2.44446
2.42076
2.3967
2.37291
2.34919
2.32539
2.30206
2.27844
2.25557
2.23236
2.21001
2.18741
2.1657
2.14392
2.12305
2.10235
2.08261
2.06334
2.04523
2.0279
2.01202
1.99789
1.98514
1.97841
3.83932
3.58153
3.34155
3.1388
2.97225
2.84303
2.74489
2.67396
2.62734
2.58519
2.55111
2.5192
2.48625
2.4544
2.41538
2.3759
2.34155
2.32193
2.32325
2.33515
2.35391
2.38911
2.43909
2.4952
2.54855
2.59821
2.643
2.68435
2.72246
2.75871
2.79295
2.8255
2.85603
2.88434
2.91017
2.93396
2.95468
2.97369
2.98954
3.00388
3.01453
3.02391
3.02914
3.03338
3.03598
3.03803
3.0378
3.0339
3.02784
3.01984
3.01117
3.00059
2.98979
2.97675
2.96373
2.94845
2.93346
2.91638
2.89968
2.88109
2.86279
2.84286
2.82302
2.80196
2.78074
2.75876
2.73635
2.71362
2.69019
2.66687
2.64263
2.61897
2.59455
2.57067
2.54601
2.52191
2.49734
2.47299
2.44869
2.42421
2.40036
2.37589
2.35257
2.32827
2.30554
2.28163
2.25956
2.23624
2.21497
2.1925
2.17226
2.15097
2.13207
2.11247
2.09527
2.07791
2.06315
2.04955
2.03785
2.03284
3.8714
3.64742
3.43379
3.24737
3.09501
2.9778
2.89789
2.84798
2.82113
2.79648
2.77077
2.75023
2.72387
2.68759
2.62229
2.55445
2.4993
2.45919
2.44193
2.44708
2.45806
2.47496
2.50814
2.55613
2.60641
2.65693
2.70224
2.74392
2.78054
2.81491
2.84627
2.87585
2.90353
2.9289
2.9528
2.97366
2.99272
3.00935
3.02345
3.03561
3.0448
3.05266
3.05658
3.05954
3.06095
3.06214
3.06116
3.05704
3.05069
3.04249
3.03322
3.02216
3.01062
2.99719
2.98352
2.96805
2.95247
2.93533
2.91803
2.89949
2.88056
2.86075
2.84029
2.8194
2.79759
2.77586
2.75295
2.7306
2.70685
2.68416
2.66016
2.63729
2.61309
2.58992
2.56559
2.54207
2.51779
2.49395
2.46992
2.44593
2.42233
2.39839
2.37536
2.35166
2.32928
2.30604
2.28436
2.26179
2.24091
2.21931
2.19944
2.1792
2.16078
2.14236
2.12578
2.11005
2.0964
2.08502
2.07483
2.07331
3.90362
3.70681
3.51826
3.35303
3.22037
3.12349
3.06932
3.0447
3.02635
3.01756
2.9983
2.97763
2.94949
2.89809
2.80691
2.72026
2.64787
2.59627
2.56322
2.55083
2.5563
2.56456
2.57939
2.60746
2.64864
2.69266
2.73879
2.78138
2.82061
2.85523
2.88699
2.91541
2.94223
2.96641
2.98914
3.00961
3.02802
3.04443
3.05844
3.07044
3.0797
3.08735
3.09171
3.0943
3.09612
3.0971
3.09664
3.09265
3.08691
3.07873
3.06948
3.05799
3.046
3.03204
3.01789
3.00201
2.98597
2.96845
2.9506
2.93157
2.91195
2.89158
2.87033
2.84883
2.82617
2.80378
2.78001
2.75705
2.73279
2.70962
2.68504
2.6616
2.63679
2.61295
2.58801
2.5638
2.53895
2.51451
2.48999
2.46543
2.44137
2.41682
2.39328
2.36895
2.34602
2.32219
2.30004
2.27704
2.25589
2.23413
2.21429
2.19429
2.17621
2.15839
2.14277
2.12832
2.11638
2.10713
2.09976
2.1009
3.94039
3.76457
3.60491
3.46519
3.35732
3.28831
3.26669
3.25147
3.24458
3.23761
3.22149
3.19782
3.15452
3.06684
2.96657
2.87256
2.79408
2.73354
2.68969
2.66328
2.65123
2.65336
2.65947
2.66972
2.69
2.72466
2.75991
2.80048
2.84101
2.87817
2.91143
2.94074
2.96698
2.99051
3.01208
3.03124
3.04874
3.0637
3.07685
3.08762
3.09646
3.10304
3.10724
3.10897
3.11053
3.11079
3.11025
3.10597
3.10043
3.09203
3.08289
3.07098
3.0589
3.04436
3.03013
3.01376
2.99786
2.98006
2.96261
2.94352
2.92446
2.90412
2.88345
2.86199
2.83987
2.81754
2.7945
2.77185
2.74839
2.72553
2.7018
2.67864
2.65473
2.6312
2.60726
2.5834
2.55958
2.53547
2.51189
2.48765
2.46447
2.4403
2.41766
2.39376
2.37176
2.3484
2.32714
2.3047
2.28439
2.26338
2.24444
2.22552
2.20839
2.19207
2.178
2.1656
2.15628
2.14976
2.1469
2.14887
3.97996
3.8335
3.69798
3.59332
3.51712
3.48581
3.47315
3.46669
3.46554
3.45168
3.43099
3.39102
3.30861
3.20705
3.1062
3.01354
2.93468
2.86985
2.81756
2.77953
2.75221
2.73818
2.73103
2.7357
2.74123
2.75447
2.7808
2.80784
2.84261
2.87992
2.91499
2.94703
2.97464
2.99944
3.02055
3.03971
3.05644
3.07132
3.08443
3.09552
3.10461
3.11178
3.11638
3.11836
3.11974
3.12036
3.11995
3.11628
3.11091
3.10299
3.0941
3.08265
3.07073
3.05653
3.04229
3.02609
3.00997
2.99222
2.97437
2.95522
2.93566
2.91517
2.89398
2.87224
2.84971
2.82727
2.80409
2.78137
2.75783
2.73491
2.71113
2.68794
2.66397
2.64045
2.6164
2.59254
2.56859
2.54449
2.52086
2.49671
2.47357
2.44961
2.42705
2.40352
2.38162
2.35879
2.3377
2.316
2.29603
2.2761
2.25786
2.24028
2.22419
2.21021
2.19804
2.1891
2.18267
2.18137
2.18069
2.18486
4.03508
3.91604
3.81738
3.74474
3.70807
3.69713
3.68978
3.68886
3.67526
3.65548
3.61416
3.52923
3.42911
3.32837
3.2331
3.14706
3.0691
3.00119
2.94365
2.8955
2.85727
2.82793
2.8085
2.79608
2.79513
2.79882
2.80708
2.82414
2.84583
2.87321
2.9079
2.94053
2.9718
2.99848
3.02204
3.04249
3.05978
3.07553
3.08832
3.09999
3.1089
3.11597
3.12104
3.1226
3.12395
3.12424
3.12398
3.12048
3.11554
3.10779
3.09944
3.08818
3.07655
3.0623
3.04806
3.03171
3.0156
2.99781
2.98014
2.96111
2.94185
2.92155
2.9006
2.87915
2.85695
2.83489
2.81198
2.78954
2.76632
2.7435
2.72023
2.69694
2.67367
2.64992
2.62663
2.6026
2.57929
2.5553
2.532
2.50841
2.48521
2.46226
2.43936
2.41712
2.39488
2.37341
2.35233
2.33194
2.31259
2.29407
2.27696
2.26073
2.24713
2.23516
2.22682
2.22091
2.22037
2.22077
2.22227
2.23367
4.11129
4.02725
3.96713
3.93295
3.92431
3.91566
3.91171
3.89837
3.87686
3.83096
3.74032
3.63952
3.54076
3.44467
3.35695
3.2736
3.19848
3.12807
3.06658
3.01037
2.96331
2.92207
2.8907
2.86519
2.85099
2.84067
2.84516
2.84874
2.858
2.87457
2.89611
2.92573
2.95649
2.98506
3.01169
3.0339
3.05373
3.07013
3.08413
3.09616
3.10553
3.11306
3.1188
3.12111
3.12269
3.12309
3.12304
3.12027
3.11598
3.1088
3.10103
3.09023
3.07922
3.06527
3.0515
3.03522
3.0193
3.00146
2.98378
2.96475
2.94539
2.92515
2.90421
2.88307
2.86112
2.83933
2.81675
2.79445
2.77149
2.74884
2.72565
2.70274
2.67943
2.65625
2.63292
2.60946
2.58626
2.56261
2.53967
2.51617
2.49356
2.47064
2.44849
2.42651
2.40506
2.38438
2.36405
2.34516
2.32683
2.31015
2.29423
2.28093
2.26967
2.26158
2.25715
2.25654
2.2572
2.25981
2.26793
2.29194
4.22036
4.17442
4.15511
4.14929
4.14589
4.13933
4.12438
4.09903
4.04383
3.94527
3.83997
3.73855
3.64593
3.55707
3.47522
3.39503
3.32131
3.2497
3.18496
3.12339
3.06903
3.01889
2.97729
2.94122
2.91474
2.89407
2.88322
2.87797
2.88208
2.88692
2.89696
2.91448
2.93788
2.96564
2.9924
3.01723
3.03956
3.05818
3.07447
3.08734
3.09821
3.10663
3.1131
3.11665
3.11864
3.11917
3.11989
3.11788
3.11458
3.10755
3.10058
3.08994
3.07964
3.06586
3.05258
3.03643
3.02082
3.00306
2.98561
2.96659
2.94743
2.92722
2.90676
2.88569
2.86431
2.8425
2.82049
2.79813
2.77569
2.75304
2.73028
2.70754
2.68447
2.66171
2.6384
2.61561
2.59227
2.56947
2.54646
2.52373
2.50141
2.47902
2.45761
2.43599
2.41573
2.39546
2.37681
2.35884
2.34237
2.32699
2.3139
2.30346
2.29576
2.29285
2.29247
2.29311
2.29784
2.30801
2.32239
2.35931
4.38124
4.3624
4.3663
4.38527
4.37762
4.35927
4.32924
4.26384
4.15546
4.04163
3.93621
3.83928
3.75224
3.66888
3.59045
3.51237
3.43863
3.36609
3.29835
3.23313
3.17281
3.11663
3.06676
3.02244
2.98587
2.95515
2.93288
2.91647
2.90789
2.90611
2.91009
2.91535
2.92598
2.94684
2.96888
2.9941
3.0179
3.03968
3.05856
3.07381
3.08671
3.09625
3.10372
3.10879
3.11095
3.11209
3.11264
3.11176
3.10868
3.10303
3.09605
3.0869
3.07675
3.06438
3.05123
3.03615
3.02047
3.00338
2.98569
2.96702
2.94765
2.92785
2.90742
2.88674
2.86563
2.84413
2.82258
2.80039
2.77856
2.75593
2.73389
2.71109
2.68881
2.66607
2.64349
2.62095
2.59817
2.57593
2.5532
2.53139
2.50912
2.48796
2.46666
2.44648
2.42678
2.40815
2.39098
2.37464
2.36014
2.34733
2.33789
2.33066
2.32932
2.32891
2.33056
2.33521
2.34842
2.3696
2.38872
2.42912
4.5717
4.58161
4.61386
4.62109
4.60297
4.56924
4.49519
4.37363
4.24906
4.13507
4.03429
3.944
3.86071
3.78119
3.70335
3.62665
3.55147
3.47858
3.40772
3.3405
3.27544
3.21513
3.15862
3.10775
3.06281
3.0237
2.99153
2.9654
2.94623
2.93311
2.92724
2.92763
2.93125
2.937
2.94855
2.96931
2.99133
3.01447
3.03517
3.05396
3.06884
3.08136
3.0903
3.0969
3.10084
3.10193
3.10285
3.1026
3.1007
3.09638
3.08989
3.08191
3.072
3.06063
3.04764
3.03333
3.01778
3.00123
2.98363
2.96538
2.94626
2.92705
2.90689
2.88696
2.86593
2.84529
2.82365
2.80233
2.78039
2.75844
2.73646
2.714
2.69207
2.66938
2.64745
2.62483
2.60293
2.58064
2.55893
2.53731
2.5161
2.49558
2.4754
2.45649
2.43812
2.42169
2.40608
2.39215
2.38037
2.37154
2.36596
2.36492
2.36518
2.36714
2.37464
2.39019
2.41162
2.4382
2.45862
2.49642
4.82902
4.86505
4.87741
4.85634
4.81958
4.73937
4.60381
4.46575
4.34271
4.23371
4.13864
4.05225
3.97204
3.89373
3.81631
3.73922
3.66294
3.5887
3.51546
3.44584
3.37689
3.31329
3.25129
3.19606
3.14395
3.09887
3.05784
3.02373
2.99434
2.97196
2.95482
2.94537
2.94133
2.94104
2.94451
2.95161
2.96539
2.98484
3.006
3.02579
3.04453
3.05939
3.07168
3.08024
3.08639
3.08833
3.08982
3.08981
3.0892
3.08566
3.08031
3.07298
3.06418
3.05359
3.04164
3.02798
3.01334
2.99717
2.98033
2.96227
2.94394
2.92478
2.90536
2.88549
2.86513
2.84478
2.82361
2.80292
2.78112
2.76011
2.73802
2.71661
2.69457
2.6728
2.65102
2.62908
2.60768
2.58595
2.56507
2.54401
2.52397
2.5042
2.48553
2.46792
2.45165
2.43715
2.42355
2.41295
2.40474
2.40128
2.40062
2.40087
2.40516
2.41428
2.43315
2.4561
2.48155
2.50845
2.52669
2.55828
5.12562
5.14706
5.12454
5.08366
4.9955
4.84547
4.69371
4.5581
4.44142
4.33922
4.24809
4.16416
4.08427
4.00569
3.92698
3.84887
3.77108
3.69503
3.62043
3.54849
3.47773
3.41034
3.34536
3.28498
3.22821
3.17688
3.12945
3.08816
3.05045
3.01996
2.99285
2.97386
2.95922
2.95321
2.94637
2.94981
2.9534
2.96111
2.97503
2.99402
3.01298
3.03102
3.0457
3.05787
3.06601
3.07142
3.07277
3.07362
3.07356
3.07195
3.06752
3.0613
3.05327
3.04375
3.03257
3.01998
3.00611
2.99075
2.97464
2.95715
2.93955
2.9206
2.90204
2.88209
2.8628
2.84224
2.82229
2.80149
2.78086
2.75998
2.73877
2.71783
2.69631
2.67534
2.6538
2.63291
2.61175
2.59109
2.57081
2.55079
2.53196
2.51339
2.49675
2.48101
2.46744
2.45481
2.44524
2.43795
2.43686
2.43607
2.43781
2.44274
2.45693
2.47679
2.50165
2.52793
2.55275
2.5761
2.58947
2.61335
5.44158
5.41474
5.36805
5.26525
5.09971
4.933
4.78706
4.66108
4.5517
4.45396
4.36364
4.27951
4.19726
4.1169
4.03613
3.95665
3.87744
3.80042
3.72372
3.6492
3.57654
3.50623
3.43916
3.37502
3.31518
3.25851
3.20663
3.15834
3.11481
3.07582
3.04157
3.01289
2.98919
2.97234
2.96099
2.95297
2.9476
2.95127
2.95523
2.96334
2.97926
2.99478
3.01205
3.02614
3.03831
3.04639
3.05135
3.05248
3.05289
3.05238
3.04995
3.04483
3.03742
3.02895
3.0185
3.0073
2.99403
2.98018
2.96449
2.94851
2.9312
2.91361
2.8953
2.87651
2.85756
2.83791
2.81848
2.79829
2.77846
2.75794
2.73774
2.71706
2.69657
2.67603
2.65543
2.63534
2.61502
2.59568
2.5763
2.55811
2.54062
2.52436
2.51016
2.49705
2.48605
2.47703
2.47249
2.47122
2.47169
2.47443
2.48292
2.4999
2.52231
2.54778
2.57424
2.59932
2.6197
2.63713
2.64466
2.66162
5.72572
5.67188
5.5481
5.35936
5.17681
5.01847
4.88384
4.76811
4.66479
4.57076
4.48154
4.39611
4.31187
4.22882
4.14586
4.06412
3.98313
3.90417
3.82599
3.74988
3.67552
3.60325
3.53392
3.4668
3.40365
3.34273
3.28644
3.23249
3.18382
3.13773
3.09712
3.05998
3.02851
3.00146
2.9805
2.96571
2.95272
2.94224
2.9419
2.94413
2.94868
2.95727
2.97128
2.98619
2.99942
3.01177
3.0195
3.02445
3.02522
3.02522
3.02453
3.02155
3.01581
3.00786
2.99882
2.98849
2.97671
2.96411
2.94976
2.93517
2.9188
2.90255
2.88481
2.86725
2.84874
2.83021
2.81127
2.79211
2.7729
2.75337
2.73401
2.7143
2.6949
2.67532
2.656
2.63704
2.61807
2.60024
2.58232
2.56628
2.55064
2.5377
2.52577
2.51608
2.5081
2.50633
2.50545
2.5066
2.5113
2.52437
2.5435
2.56803
2.59439
2.6211
2.64516
2.66504
2.67944
2.69008
2.69317
2.70435
5.99048
5.84351
5.6188
5.41213
5.24187
5.102
4.98295
4.87733
4.77912
4.68615
4.59596
4.50787
4.42116
4.33538
4.25066
4.16727
4.08507
4.00478
3.92551
3.84825
3.77243
3.69875
3.62718
3.55788
3.49139
3.42739
3.36676
3.30892
3.2546
3.20364
3.15665
3.11316
3.07399
3.03892
3.0086
2.98285
2.96409
2.94606
2.93252
2.92469
2.92593
2.92738
2.93154
2.94011
2.95199
2.96508
2.97564
2.98452
2.98919
2.99013
2.99015
2.98906
2.98659
2.97968
2.97236
2.96238
2.95255
2.94048
2.92843
2.91467
2.90042
2.88516
2.86905
2.85262
2.83532
2.818
2.80008
2.78208
2.76389
2.74543
2.72721
2.7085
2.69047
2.67185
2.65424
2.63627
2.61943
2.60299
2.58764
2.57389
2.56183
2.55188
2.54327
2.5382
2.53709
2.53736
2.54026
2.5486
2.5655
2.58786
2.61353
2.64106
2.66735
2.69075
2.70919
2.72252
2.73087
2.7352
2.73637
2.74214
6.12185
5.85308
5.62056
5.43813
5.29666
5.18059
5.07755
4.98064
4.88607
4.79318
4.70197
4.61209
4.52384
4.43645
4.35063
4.26618
4.18337
4.10195
4.02205
3.94329
3.86629
3.79096
3.71756
3.64607
3.57702
3.51011
3.44612
3.38441
3.32592
3.26989
3.2173
3.16746
3.12173
3.07895
3.04078
3.00686
2.97786
2.95462
2.93313
2.91437
2.903
2.89648
2.89651
2.89799
2.90156
2.90977
2.92134
2.93118
2.94055
2.94533
2.94688
2.94681
2.94589
2.94346
2.93726
2.9295
2.92036
2.91008
2.89926
2.88707
2.87446
2.86061
2.84629
2.83108
2.81541
2.79931
2.78275
2.76623
2.74915
2.73243
2.71525
2.69844
2.68166
2.66502
2.64921
2.63328
2.61905
2.60489
2.59313
2.58274
2.57497
2.56747
2.56608
2.56572
2.56654
2.57251
2.586
2.60597
2.63062
2.65815
2.68595
2.71188
2.73419
2.75138
2.76334
2.77008
2.77333
2.77351
2.77323
2.77668
6.02849
5.77006
5.57758
5.44109
5.33487
5.2417
5.15148
5.06154
4.9705
4.87869
4.7881
4.699
4.6114
4.525
4.43979
4.35592
4.27304
4.19153
4.11113
4.03171
3.95402
3.87739
3.80254
3.72921
3.65774
3.58823
3.52081
3.45555
3.39275
3.33238
3.27486
3.22005
3.16848
3.11976
3.07484
3.03285
2.9953
2.96137
2.93389
2.90746
2.88504
2.86899
2.85937
2.85492
2.85502
2.85635
2.86013
2.86907
2.8786
2.88665
2.89254
2.89485
2.89486
2.89417
2.89202
2.88749
2.88006
2.87161
2.86179
2.85154
2.84024
2.82837
2.81559
2.80208
2.7881
2.77337
2.7586
2.74329
2.72805
2.71279
2.69733
2.68258
2.66742
2.65356
2.63949
2.62707
2.61506
2.60524
2.59721
2.5914
2.5872
2.58711
2.58812
2.59246
2.60214
2.62038
2.64346
2.67053
2.69906
2.72741
2.75271
2.774
2.79
2.80082
2.80652
2.808
2.80801
2.80738
2.80428
2.8074
5.8596
5.6346
5.49935
5.41222
5.33835
5.26501
5.18828
5.10816
5.02588
4.94113
4.85466
4.76796
4.68187
4.59736
4.5134
4.43075
4.34814
4.26664
4.1858
4.10614
4.02763
3.95037
3.87447
3.79987
3.72654
3.65478
3.58465
3.51631
3.45002
3.38601
3.32423
3.26509
3.20832
3.15441
3.10316
3.05519
3.01039
2.96967
2.93266
2.90143
2.8721
2.84606
2.82583
2.81225
2.80257
2.80061
2.80037
2.80171
2.80624
2.81468
2.82225
2.82877
2.83189
2.83225
2.83216
2.83105
2.82843
2.82196
2.81455
2.80598
2.79686
2.787
2.77632
2.76516