/*--------------------------------*- C++ -*----------------------------------*\
  =========                 |
  \\      /  F ield         | OpenFOAM: The Open Source CFD Toolbox
   \\    /   O peration     | Website:  https://openfoam.org
    \\  /    A nd           | Version:  13
     \\/     M anipulation  |
\*---------------------------------------------------------------------------*/
FoamFile
{
    format      ascii;
    class       volScalarField;
    location    "9";
    object      T;
}
// * * * * * * * * * * * * * * * * * * * * * * * * * * * * * * * * * * * * * //

dimensions      [0 0 0 1 0 0 0];

internalField   nonuniform List<scalar> 
5250
(
1.00001
1.00002
1.00006
1.00014
1.00037
1.00082
1.00228
1.00502
1.01376
1.03204
1.08551
1.22356
1.60189
2.36758
2.7179
2.74062
2.73591
2.73848
2.75013
2.76615
2.77848
2.78683
2.79363
2.79836
2.8016
1.00001
1.00002
1.00006
1.00013
1.00037
1.00081
1.00226
1.00496
1.0136
1.03172
1.08451
1.22105
1.59521
2.35863
2.71468
2.74012
2.73532
2.73772
2.74927
2.76516
2.7774
2.78571
2.79246
2.79711
2.80021
1.00001
1.00002
1.00005
1.00014
1.00034
1.00084
1.0021
1.00503
1.01298
1.03142
1.08202
1.21596
1.58088
2.33831
2.70712
2.73875
2.7336
2.73545
2.74662
2.7624
2.77422
2.78265
2.78911
2.79391
2.797
1.00001
1.00002
1.00005
1.00015
1.0003
1.00089
1.00185
1.00524
1.01179
1.0314
1.07771
1.20888
1.55853
2.3062
2.69506
2.73683
2.73091
2.7317
2.74248
2.75758
2.76941
2.77695
2.78342
2.78737
2.79045
1.00001
1.00002
1.00005
1.00012
1.00033
1.00074
1.00196
1.00464
1.01176
1.02907
1.07462
1.19724
1.52962
2.26036
2.67804
2.73448
2.72723
2.72652
2.73677
2.75102
2.76268
2.77014
2.77605
2.78008
2.78274
1.00001
1.00002
1.00005
1.00011
1.00031
1.00069
1.00185
1.0043
1.01108
1.02704
1.06977
1.18335
1.49331
2.19846
2.65485
2.73155
2.72249
2.71962
2.72914
2.74253
2.75313
2.76015
2.76521
2.76829
2.77056
1
1.00002
1.00004
1.00011
1.00026
1.00068
1.00163
1.00403
1.01011
1.02483
1.06372
1.16692
1.44987
2.1174
2.62393
2.72748
2.71612
2.71087
2.71953
2.73249
2.74194
2.74759
2.75171
2.75348
2.75405
1
1.00001
1.00004
1.00009
1.00026
1.00056
1.00159
1.00339
1.00949
1.02157
1.05774
1.14747
1.39957
2.01452
2.58409
2.72075
2.70679
2.6988
2.70672
2.71858
2.72758
2.73123
2.7329
2.7317
2.72811
1
1.00001
1.00003
1.00009
1.00021
1.00053
1.00127
1.00327
1.00768
1.01999
1.04879
1.12899
1.34323
1.89173
2.53247
2.70846
2.69299
2.68342
2.69106
2.70145
2.70899
2.71105
2.70897
2.70177
2.68626
1
1.00001
1.00003
1.00008
1.00017
1.00048
1.00104
1.00294
1.00639
1.01748
1.04108
1.10932
1.28668
1.75265
2.46848
2.68709
2.67109
2.66279
2.66978
2.6798
2.6856
2.68509
2.67632
2.65393
2.59731
1
1.00001
1.00003
1.00006
1.00017
1.00036
1.00106
1.0022
1.00631
1.01391
1.03755
1.09267
1.24955
1.65906
2.40648
2.66622
2.65435
2.64587
2.64781
2.65525
2.65887
2.65412
2.63478
2.58808
2.48271
1
1.00001
1.00002
1.00005
1.00014
1.00033
1.00089
1.00196
1.00543
1.01213
1.03265
1.07995
1.21563
1.5718
2.30591
2.62768
2.64242
2.63321
2.62932
2.6313
2.63027
2.61947
2.59001
2.52734
2.41793
1
1.00001
1.00002
1.00005
1.00013
1.00028
1.00077
1.00167
1.00469
1.01034
1.02809
1.06799
1.18322
1.48692
2.17475
2.57597
2.63327
2.62329
2.61391
2.6099
2.60288
2.58549
2.55058
2.48869
2.39417
1
1.00001
1.00002
1.00004
1.00011
1.00023
1.00064
1.00145
1.00378
1.00903
1.02288
1.0573
1.15054
1.40279
2.01365
2.50813
2.61997
2.61065
2.59855
2.58842
2.57721
2.55566
2.51769
2.4622
2.38456
1
1
1.00001
1.00003
1.00008
1.00019
1.00052
1.00115
1.0032
1.00698
1.01914
1.04501
1.12049
1.31672
1.82371
2.41972
2.59405
2.59048
2.5795
2.56624
2.55132
2.53021
2.49447
2.44102
2.37502
1
1
1.00001
1.00002
1.00007
1.00015
1.00042
1.00092
1.00247
1.0057
1.01468
1.03568
1.09228
1.24142
1.63412
2.31076
2.55482
2.56353
2.55428
2.54153
2.52621
2.5036
2.47275
2.42607
2.36584
1
1
1.00001
1.00002
1.00006
1.00012
1.00034
1.00074
1.00197
1.00459
1.0117
1.02859
1.07323
1.19153
1.50814
2.17898
2.5049
2.54123
2.5319
2.51883
2.50406
2.48109
2.45115
2.41068
2.35859
1
1
1.00001
1.00002
1.00004
1.00011
1.00023
1.00066
1.00139
1.00397
1.0086
1.02349
1.05608
1.14991
1.39571
1.98764
2.4242
2.51904
2.51307
2.50007
2.48296
2.46138
2.43268
2.39672
2.35131
1
1
1.00001
1.00001
1.00003
1.00008
1.0002
1.00044
1.00123
1.00264
1.00737
1.01647
1.04401
1.10947
1.29279
1.75644
2.31579
2.48508
2.49103
2.4803
2.4636
2.44144
2.41543
2.38264
2.34451
1
1
1
1.00001
1.00002
1.00006
1.00014
1.00036
1.00086
1.00209
1.00525
1.01255
1.03194
1.07966
1.20922
1.54764
2.17759
2.43508
2.4642
2.45712
2.44117
2.42206
2.39836
2.37048
2.33578
1
1
1
1.00001
1.00002
1.00005
1.0001
1.00028
1.00061
1.00165
1.00377
1.00973
1.02338
1.05986
1.15416
1.40816
1.99032
2.36215
2.43838
2.43516
2.42193
2.40258
2.38268
2.35827
2.33021
1
1
1
1.00001
1.00001
1.00003
1.00007
1.00021
1.00043
1.00126
1.00262
1.00738
1.01653
1.04388
1.10908
1.29012
1.74557
2.25085
2.40241
2.41223
2.40359
2.38658
2.36695
2.34578
2.32225
1
1
1
1
1.00001
1.00002
1.00006
1.00014
1.00034
1.00083
1.00198
1.00507
1.01181
1.03054
1.07486
1.1965
1.51228
2.09821
2.34668
2.38549
2.38176
2.36906
2.35263
2.33449
2.3155
1
1
1
1
1.00001
1.00002
1.00004
1.00009
1.00026
1.00054
1.00157
1.00325
1.00911
1.02052
1.05431
1.13612
1.36096
1.88551
2.26201
2.35629
2.36086
2.35352
2.33899
2.32424
2.31245
1
1
1
1
1
1.00001
1.00003
1.00007
1.00018
1.00038
1.00108
1.00222
1.00636
1.01375
1.0371
1.08967
1.23681
1.60986
2.13266
2.31449
2.33882
2.33656
2.328
2.31735
2.31317
1
1
1
1
1
1.00001
1.00002
1.00004
1.00013
1.00026
1.00074
1.00159
1.00426
1.00978
1.02514
1.06145
1.15982
1.41657
1.96037
2.25516
2.3173
2.3226
2.31918
2.31708
2.32025
1
1
1
1
1
1.00001
1.00001
1.00003
1.00009
1.00018
1.00051
1.00109
1.00293
1.00668
1.01719
1.04151
1.10712
1.27748
1.70668
2.15034
2.28882
2.31046
2.31636
2.32232
2.335
1
1
1
1
1
1
1.00001
1.00002
1.00005
1.00013
1.00033
1.00074
1.00199
1.00433
1.01183
1.02669
1.07062
1.17683
1.4645
1.99344
2.24048
2.29753
2.31852
2.33632
2.35765
1
1
1
1
1
1
1.00001
1.00001
1.00004
1.00008
1.00023
1.0005
1.00133
1.00302
1.00775
1.01846
1.04667
1.11781
1.30743
1.76206
2.15815
2.29125
2.33311
2.36528
2.39281
1
1
1
1
1
1
1
1.00001
1.00002
1.00006
1.00015
1.00034
1.00089
1.00197
1.00535
1.01176
1.03149
1.07495
1.19697
1.50806
2.02969
2.27786
2.36277
2.40294
2.4297
1
1
1
1
1
1
1
1.00001
1.00002
1.00004
1.00011
1.00023
1.00064
1.00133
1.0038
1.00814
1.022
1.05196
1.13659
1.35309
1.85539
2.25864
2.40963
2.46099
2.47114
1
1
1
1
1
1
1
1.00001
1.00001
1.00003
1.00007
1.00018
1.00042
1.00103
1.00255
1.00606
1.01546
1.0371
1.09587
1.24679
1.63561
2.21677
2.47501
2.52662
2.51941
1
1
1
1
1
1
1
1
1.00001
1.00002
1.00005
1.00015
1.00031
1.00085
1.00192
1.005
1.01197
1.03031
1.07644
1.20131
1.53177
2.18348
2.55917
2.60701
2.57874
1
1
1
1
1
1
1
1
1.00001
1.00002
1.00004
1.00012
1.00025
1.00074
1.00153
1.00448
1.0097
1.02671
1.06472
1.17503
1.46798
2.11334
2.63726
2.69042
2.63995
1
1
1
1
1
1
1
1
1.00001
1.00002
1.00004
1.0001
1.00023
1.00063
1.0014
1.00389
1.00872
1.02381
1.05787
1.15709
1.42455
2.03698
2.68904
2.75768
2.69492
1
1
1
1
1
1
1
1
1.00001
1.00001
1.00004
1.00009
1.00022
1.00055
1.00133
1.00343
1.00824
1.02147
1.05372
1.14407
1.3934
1.9792
2.71447
2.79511
2.72754
1
1
1
1
1
1
1
1
1.00001
1.00001
1.00004
1.00007
1.00022
1.00046
1.00136
1.00294
1.00817
1.01911
1.05112
1.13255
1.36639
1.92705
2.71035
2.80984
2.74441
1
1
1
1
1
1
1
1
1.00001
1.00001
1.00003
1.00008
1.00019
1.00049
1.00114
1.00308
1.00707
1.01899
1.04639
1.12493
1.33906
1.88155
2.68032
2.80998
2.75169
1
1
1
1
1
1
1
1
1.00001
1.00001
1.00003
1.00007
1.0002
1.00041
1.00124
1.00257
1.00746
1.01672
1.04549
1.11527
1.31646
1.83649
2.62328
2.8051
2.75635
1
1
1
1
1
1
1
1
1.00001
1.00001
1.00003
1.00007
1.00018
1.00044
1.00107
1.00278
1.00655
1.01717
1.04202
1.11147
1.29892
1.80149
2.57517
2.8031
2.75981
1
1
1
1
1
1
1
1
1.00001
1.00001
1.00003
1.00006
1.00018
1.00041
1.0011
1.00256
1.0066
1.01613
1.04121
1.10652
1.28717
1.77229
2.54395
2.79447
2.75849
1
1
1
1
1
1
1
1
1
1.00001
1.00003
1.00006
1.00018
1.00038
1.00112
1.00235
1.00669
1.01516
1.04063
1.10226
1.27764
1.74684
2.51882
2.78415
2.7552
1
1
1
1
1
1
1
1
1
1.00001
1.00003
1.00006
1.00017
1.00041
1.001
1.00252
1.00606
1.01562
1.03833
1.10057
1.26803
1.72473
2.49681
2.77397
2.7506
1
1
1
1
1
1
1
1
1
1.00001
1.00002
1.00007
1.00015
1.00044
1.0009
1.00263
1.00567
1.0156
1.03696
1.0985
1.26038
1.70514
2.47731
2.76416
2.74533
1
1
1
1
1
1
1
1
1
1.00001
1.00002
1.00007
1.00015
1.00041
1.00094
1.00243
1.00588
1.01476
1.03692
1.09546
1.25486
1.68655
2.46062
2.7553
2.74047
1
1
1
1
1
1
1
1
1
1.00001
1.00003
1.00006
1.00015
1.0004
1.0009
1.00249
1.00548
1.01512
1.03528
1.09462
1.24885
1.66905
2.44744
2.74748
2.73589
1
1
1
1
1
1
1
1
1
1.00001
1.00002
1.00007
1.00015
1.00041
1.00087
1.00249
1.00537
1.01489
1.03476
1.09303
1.24471
1.65411
2.43658
2.74143
2.7325
1
1
1
1
1
1
1
1
1
1.00001
1.00003
1.00006
1.00016
1.00037
1.00097
1.00219
1.00592
1.01359
1.03602
1.08999
1.243
1.64333
2.42774
2.73621
2.73044
1
1
1
1
1
1
1
1
1
1.00001
1.00002
1.00007
1.00014
1.0004
1.00088
1.00235
1.0055
1.01414
1.03478
1.09033
1.24001
1.6376
2.42279
2.73218
2.72876
1
1
1
1
1
1
1
1
1
1.00001
1.00002
1.00007
1.00014
1.00041
1.00083
1.00245
1.00524
1.01451
1.03404
1.09064
1.23836
1.63474
2.42051
2.73017
2.72793
2.35357
2.48942
2.78759
3.04688
3.02778
2.99222
2.97744
2.96401
2.94375
2.9234
2.90624
2.89193
2.8788
2.87265
2.87163
2.87173
2.87928
2.88741
2.90013
2.91157
2.92412
2.93454
2.94565
2.95541
2.96402
2.97267
2.97821
2.9855
2.98911
2.99315
2.99509
2.99585
2.99601
2.99402
2.99147
2.98927
2.98828
2.9858
2.98177
2.97805
2.97194
2.96615
2.96011
2.95336
2.94744
2.9387
2.9317
2.92284
2.91501
2.90503
2.89746
2.88716
2.87876
2.86843
2.85926
2.84918
2.83976
2.829
2.81982
2.80865
2.79923
2.78753
2.77832
2.76633
2.75678
2.74504
2.7346
2.72328
2.71229
2.70103
2.69006
2.67855
2.66774
2.65611
2.64546
2.63376
2.62343
2.61158
2.60165
2.5897
2.58006
2.56827
2.55863
2.54737
2.53747
2.52691
2.51681
2.50684
2.49683
2.48723
2.47764
2.46833
2.45937
2.45052
2.44237
2.43439
2.42751
2.42122
2.41688
2.41305
2.3676
2.4609
2.61684
2.83901
2.98721
3.03279
3.11134
3.1249
3.11995
3.10946
3.09882
3.09291
3.08836
3.08574
3.08885
3.08976
3.09096
3.09195
3.09259
3.0923
3.08974
3.08592
3.08072
3.07475
3.06671
3.06083
3.05784
3.05088
3.04587
3.03664
3.03019
3.01956
3.01058
2.99971
2.991
2.97931
2.97032
2.95735
2.9479
2.93526
2.92417
2.91166
2.90077
2.88852
2.87789
2.86528
2.85354
2.84156
2.82994
2.81879
2.80683
2.79515
2.7837
2.77215
2.761
2.74947
2.73839
2.72655
2.71559
2.70367
2.69252
2.68105
2.66943
2.6585
2.64654
2.63582
2.62384
2.61302
2.60118
2.59023
2.57854
2.5675
2.55603
2.54488
2.53375
2.52243
2.51173
2.50029
2.48997
2.47862
2.46848
2.45753
2.44736
2.43705
2.42683
2.41713
2.40704
2.39779
2.38803
2.37905
2.36975
2.361
2.35227
2.34391
2.33599
2.32844
2.3218
2.31582
2.3117
2.30816
2.35618
2.38398
2.46512
2.52508
2.66042
2.7696
2.94247
3.04517
3.1039
3.1241
3.13248
3.16627
3.18241
3.18547
3.18757
3.18664
3.18149
3.17242
3.16266
3.15003
3.13521
3.12011
3.10367
3.08713
3.07109
3.05492
3.03794
3.01889
3.0008
2.98069
2.96211
2.94188
2.92232
2.90353
2.88456
2.86637
2.84858
2.83161
2.81477
2.79896
2.78295
2.76839
2.75287
2.7398
2.72578
2.71317
2.69884
2.68556
2.67256
2.66022
2.64814
2.63614
2.6249
2.61305
2.60246
2.59086
2.58053
2.56945
2.55917
2.5487
2.53847
2.52837
2.51828
2.50821
2.49834
2.4882
2.47856
2.46845
2.45904
2.44898
2.43983
2.42972
2.42088
2.41068
2.40214
2.39187
2.38358
2.37344
2.36524
2.35547
2.34717
2.33795
2.32944
2.32079
2.31213
2.30394
2.29516
2.28722
2.27854
2.27081
2.26244
2.25503
2.24712
2.24021
2.23294
2.2269
2.22075
2.21623
2.21238
2.21026
2.33253
2.32467
2.35707
2.38868
2.44727
2.52859
2.60243
2.72805
2.835
2.95999
3.019
3.0625
3.09472
3.11415
3.11931
3.11236
3.09842
3.0791
3.0602
3.04098
3.01946
2.99787
2.97394
2.95079
2.92687
2.90286
2.87898
2.85468
2.83255
2.80959
2.78941
2.76841
2.7499
2.73095
2.7138
2.69703
2.68142
2.66615
2.65226
2.63808
2.62579
2.61232
2.60138
2.58928
2.57945
2.56801
2.55786
2.54594
2.53635
2.52503
2.51593
2.50513
2.49612
2.48596
2.47684
2.46735
2.45806
2.44912
2.43971
2.43109
2.42157
2.41301
2.40337
2.39476
2.38502
2.37637
2.36655
2.35783
2.34799
2.33919
2.3294
2.32054
2.31091
2.30207
2.29268
2.28397
2.27477
2.26633
2.25718
2.24915
2.23993
2.23236
2.22303
2.21584
2.20646
2.19956
2.1904
2.1838
2.17501
2.16864
2.16029
2.15418
2.14637
2.14063
2.13356
2.12847
2.12255
2.11871
2.11504
2.1134
2.31853
2.28802
2.28869
2.30873
2.33294
2.38185
2.42815
2.48901
2.5597
2.62869
2.71338
2.78262
2.83377
2.86531
2.87474
2.86692
2.85068
2.82874
2.80995
2.7887
2.76946
2.74909
2.72964
2.71013
2.68982
2.67107
2.6511
2.63443
2.61669
2.60279
2.58768
2.57642
2.56365
2.5541
2.54354
2.53549
2.52655
2.5198
2.51165
2.50552
2.49758
2.4913
2.48351
2.47727
2.47022
2.46376
2.45618
2.44871
2.44108
2.43389
2.42635
2.41924
2.41144
2.40434
2.39627
2.38918
2.38099
2.37391
2.36568
2.3586
2.3504
2.34328
2.33507
2.32784
2.31961
2.31216
2.30392
2.2962
2.288
2.27996
2.27184
2.26346
2.25542
2.24676
2.23877
2.22998
2.222
2.21324
2.20512
2.19643
2.18812
2.17954
2.17113
2.16271
2.1544
2.1461
2.13806
2.12992
2.12228
2.11439
2.10722
2.09972
2.09306
2.08617
2.08014
2.07413
2.06906
2.06439
2.06125
2.05876
2.31123
2.27078
2.25246
2.25291
2.26535
2.29046
2.32476
2.35894
2.40661
2.44913
2.49509
2.53964
2.56481
2.58723
2.58507
2.57709
2.56019
2.54161
2.52499
2.51377
2.50423
2.49691
2.49092
2.48342
2.4772
2.47131
2.46624
2.46142
2.45707
2.45318
2.44975
2.4463
2.44322
2.44006
2.43713
2.43385
2.431
2.42718
2.42428
2.41965
2.41645
2.41106
2.40752
2.40195
2.39876
2.39322
2.38913
2.38249
2.37764
2.37103
2.36573
2.35901
2.35301
2.34605
2.33941
2.33222
2.32511
2.31768
2.31026
2.30264
2.29509
2.28733
2.27974
2.27181
2.26423
2.25608
2.24857
2.24023
2.23288
2.22443
2.21731
2.20881
2.20191
2.19345
2.18666
2.1783
2.17137
2.16313
2.15595
2.14796
2.14054
2.13286
2.12522
2.11781
2.11004
2.10288
2.09509
2.08813
2.08043
2.07368
2.06619
2.05972
2.05262
2.04656
2.0401
2.03474
2.02935
2.02517
2.02193
2.01977
2.30618
2.26439
2.23519
2.22291
2.22315
2.23455
2.25833
2.28456
2.31697
2.35243
2.38057
2.40906
2.42247
2.42944
2.42213
2.40978
2.3936
2.38057
2.36875
2.3614
2.36034
2.36377
2.36786
2.3713
2.37455
2.37595
2.37822
2.37849
2.37904
2.37934
2.37927
2.37901
2.37833
2.37741
2.37582
2.37411
2.37189
2.3694
2.36667
2.36326
2.35978
2.3555
2.35113
2.34645
2.34198
2.33717
2.33164
2.32573
2.31937
2.31343
2.30682
2.30093
2.29412
2.28827
2.28132
2.27539
2.26825
2.26213
2.25485
2.24848
2.2411
2.23449
2.22709
2.22026
2.21288
2.20578
2.19849
2.19115
2.18399
2.17645
2.16944
2.16176
2.15482
2.14703
2.14001
2.13221
2.12507
2.11744
2.11019
2.1028
2.09546
2.08834
2.081
2.07414
2.0669
2.06028
2.05323
2.04681
2.04005
2.03386
2.02747
2.0216
2.01568
2.01028
2.00497
2.00027
1.99589
1.99238
1.98984
1.98819
2.30344
2.2613
2.2298
2.20892
2.20168
2.20496
2.21944
2.24335
2.26787
2.29689
2.31955
2.33616
2.34619
2.34235
2.32945
2.31098
2.2938
2.27978
2.2715
2.26474
2.26291
2.26549
2.27233
2.27885
2.28502
2.28896
2.29194
2.29355
2.29489
2.29557
2.29613
2.2963
2.29624
2.29587
2.29518
2.29389
2.29268
2.29061
2.28881
2.28609
2.284
2.28071
2.27808
2.27472
2.27208
2.26876
2.26512
2.26073
2.25596
2.25124
2.24592
2.24104
2.23536
2.23035
2.22434
2.21904
2.21261
2.20687
2.20007
2.19395
2.18693
2.18051
2.17343
2.16673
2.15962
2.15261
2.14548
2.13819
2.13109
2.12362
2.11665
2.10908
2.10214
2.09466
2.08779
2.08049
2.07356
2.06647
2.0594
2.05257
2.04533
2.03877
2.03143
2.02514
2.01779
2.01177
2.00452
1.99876
1.99169
1.98624
1.97946
1.97436
1.96804
1.96342
1.9578
1.95388
1.94943
1.94672
1.94441
1.94334
2.30191
2.26177
2.22961
2.20701
2.19567
2.19606
2.20711
2.229
2.25058
2.27211
2.29187
2.30237
2.30612
2.29606
2.27544
2.25373
2.23225
2.21758
2.20663
2.20226
2.19745
2.19765
2.20185
2.20912
2.21769
2.22439
2.23058
2.23445
2.23823
2.24069
2.24323
2.24523
2.24692
2.24853
2.24923
2.2502
2.2502
2.25
2.24957
2.24859
2.24766
2.24571
2.24428
2.24197
2.24031
2.23785
2.23515
2.23152
2.22752
2.22328
2.21853
2.21399
2.20881
2.20406
2.19855
2.19343
2.18751
2.18187
2.17558
2.16946
2.16296
2.15649
2.14991
2.14311
2.13648
2.12931
2.12259
2.11507
2.10826
2.10045
2.09354
2.08567
2.07879
2.07103
2.06411
2.05654
2.04955
2.04224
2.03513
2.02807
2.02082
2.01399
2.00662
2
1.99257
1.98616
1.97883
1.97266
1.9656
1.95974
1.95311
1.94766
1.94166
1.93674
1.93159
1.92755
1.92374
1.92106
1.91951
1.91824
2.3001
2.26391
2.23408
2.2125
2.20158
2.20224
2.21378
2.23258
2.25108
2.26804
2.28118
2.28846
2.28512
2.26832
2.24367
2.21803
2.19668
2.1789
2.16739
2.16079
2.15663
2.15412
2.15459
2.15926
2.16595
2.1738
2.18064
2.18698
2.19172
2.19601
2.19911
2.2021
2.20414
2.20627
2.20757
2.20863
2.20913
2.20911
2.20883
2.20805
2.20726
2.20566
2.20417
2.20222
2.20037
2.19823
2.19548
2.19226
2.18835
2.18451
2.17998
2.17582
2.17094
2.1665
2.1613
2.15644
2.15087
2.14555
2.13969
2.13396
2.12799
2.12195
2.11597
2.10963
2.10362
2.09695
2.09087
2.08387
2.07766
2.0705
2.06428
2.05711
2.05089
2.04386
2.03763
2.03081
2.02448
2.01788
2.0114
2.00505
1.99843
1.99235
1.98568
1.97988
1.97324
1.96767
1.96114
1.95578
1.94949
1.94438
1.93848
1.93374
1.92845
1.92422
1.91982
1.91658
1.91365
1.91193
1.91135
1.91042
2.29745
2.26854
2.24177
2.22478
2.21869
2.22261
2.23446
2.24905
2.26476
2.27606
2.28307
2.2829
2.27196
2.24963
2.22335
2.1984
2.17692
2.15911
2.14571
2.1356
2.12936
2.12541
2.12284
2.12309
2.12649
2.13214
2.13865
2.14573
2.15217
2.15785
2.16246
2.16641
2.16962
2.17234
2.17435
2.17614
2.1772
2.17819
2.17865
2.17882
2.17855
2.17798
2.17688
2.17559
2.17401
2.17253
2.17012
2.16757
2.16403
2.16081
2.15659
2.15295
2.14825
2.14425
2.13913
2.13465
2.12904
2.12398
2.11795
2.11237
2.1061
2.10013
2.09381
2.08751
2.08115
2.0745
2.06804
2.06109
2.05458
2.04747
2.04086
2.03373
2.02704
2.02001
2.01324
2.00639
1.99952
1.9929
1.98594
1.97958
1.97253
1.96641
1.9593
1.95344
1.94638
1.94078
1.93396
1.92863
1.92225
1.91723
1.91153
1.90694
1.90205
1.89823
1.89462
1.89221
1.89027
1.89004
1.8904
1.8894
2.29757
2.27341
2.25653
2.24424
2.24458
2.25143
2.26255
2.2753
2.28504
2.29115
2.29103
2.28178
2.26282
2.23823
2.21359
2.19051
2.17036
2.15238
2.13764
2.12482
2.11595
2.10863
2.10539
2.1025
2.10254
2.10416
2.10834
2.11353
2.12038
2.12707
2.13335
2.13831
2.14278
2.1459
2.14886
2.15082
2.15246
2.15355
2.15412
2.15435
2.15417
2.1535
2.15254
2.15112
2.14978
2.14823
2.14604
2.14359
2.1404
2.13732
2.13338
2.12976
2.12519
2.12107
2.11602
2.11146
2.10607
2.10106
2.09542
2.08999
2.08422
2.07847
2.07262
2.06659
2.06065
2.0543
2.04825
2.04167
2.0355
2.02874
2.02246
2.01562
2.00929
2.00255
1.99618
1.98966
1.98323
1.97694
1.97039
1.96432
1.95763
1.95175
1.94502
1.93933
1.93272
1.92726
1.92097
1.91582
1.91008
1.90529
1.90035
1.89598
1.89213
1.88868
1.8864
1.88454
1.8845
1.88481
1.88611
1.88519
2.29825
2.28351
2.27374
2.27268
2.27696
2.28516
2.29501
2.3021
2.30758
2.3064
2.29746
2.27976
2.258
2.23508
2.21311
2.19253
2.17305
2.15514
2.13861
2.12419
2.11183
2.10241
2.09487
2.09058
2.08745
2.08631
2.08656
2.08888
2.09245
2.09901
2.10483
2.11148
2.11612
2.12046
2.12356
2.12581
2.12775
2.12866
2.12978
2.12994
2.13028
2.12998
2.12927
2.12834
2.12713
2.12601
2.12407
2.12214
2.11912
2.11643
2.11262
2.10931
2.1049
2.10107
2.09621
2.09187
2.08659
2.08171
2.07608
2.07072
2.06488
2.05913
2.05322
2.04714
2.04122
2.03493
2.029
2.02254
2.01643
2.00989
2.00355
1.9971
1.99057
1.98434
1.97774
1.97169
1.96513
1.95912
1.95269
1.94659
1.94037
1.93415
1.92818
1.92202
1.91629
1.91046
1.90499
1.89977
1.89472
1.89028
1.8858
1.88233
1.87896
1.87693
1.87536
1.87545
1.87607
1.87706
1.87973
1.87952
2.3032
2.29787
2.29817
2.30374
2.31015
2.31996
2.32499
2.32904
2.32633
2.31588
2.29767
2.27737
2.25578
2.23617
2.21609
2.19823
2.17932
2.16222
2.14453
2.12919
2.11429
2.10267
2.09197
2.08488
2.07807
2.07534
2.07215
2.07188
2.07243
2.07509
2.07991
2.08577
2.09111
2.09623
2.09976
2.10309
2.10507
2.10682
2.10798
2.10851
2.10905
2.10889
2.10828
2.10748
2.1062
2.10518
2.10347
2.10175
2.0989
2.09636
2.0927
2.0896
2.08525
2.08161
2.07674
2.07258
2.06736
2.06267
2.0572
2.05199
2.04638
2.04072
2.03499
2.029
2.02325
2.01712
2.01129
2.00505
1.9991
1.99277
1.98671
1.98035
1.9742
1.96792
1.96172
1.95564
1.9494
1.94356
1.93731
1.93162
1.92545
1.91978
1.91384
1.90817
1.90261
1.89709
1.89212
1.88702
1.8828
1.8784
1.87507
1.87198
1.87006
1.86902
1.86915
1.87004
1.87136
1.87424
1.87819
1.88043
2.31404
2.31833
2.32784
2.33454
2.34507
2.34972
2.35317
2.3491
2.33712
2.31939
2.29921
2.27957
2.25947
2.24155
2.22306
2.20644
2.18808
2.17106
2.15277
2.13636
2.12007
2.10661
2.09372
2.08378
2.07432
2.06789
2.06228
2.0597
2.05741
2.05746
2.05844
2.06156
2.06639
2.07093
2.07539
2.07916
2.08201
2.08452
2.08586
2.08703
2.08745
2.08739
2.08693
2.08623
2.08478
2.08392
2.08214
2.08073
2.07788
2.07584
2.07225
2.06963
2.0654
2.06215
2.0574
2.05352
2.04837
2.04387
2.03846
2.03342
2.02782
2.02234
2.0166
2.01092
2.00514
1.99938
1.99352
1.98768
1.98173
1.97577
1.96978
1.96368
1.95775
1.95156
1.94577
1.93962
1.93394
1.92795
1.92225
1.91652
1.91074
1.90532
1.89957
1.89448
1.88901
1.88436
1.8795
1.87547
1.87148
1.86825
1.86566
1.86383
1.86345
1.86366
1.86465
1.86662
1.86926
1.87467
1.88163
1.8851
2.32894
2.3435
2.35542
2.36667
2.37236
2.37632
2.37152
2.3584
2.33933
2.31981
2.30046
2.28271
2.26465
2.24812
2.23096
2.21495
2.1973
2.18005
2.16169
2.14444
2.1276
2.1124
2.09808
2.08562
2.07397
2.06459
2.0561
2.05035
2.04563
2.04349
2.04167
2.04176
2.04318
2.04625
2.05044
2.05412
2.05782
2.06067
2.0627
2.06431
2.06488
2.06538
2.06513
2.06452
2.06338
2.06235
2.0611
2.05967
2.05764
2.05537
2.05246
2.04954
2.04587
2.04233
2.03807
2.03396
2.02927
2.02466
2.01969
2.01463
2.0094
2.00399
1.9986
1.99305
1.98748
1.98191
1.97612
1.97057
1.96459
1.95902
1.95293
1.94728
1.94122
1.93545
1.92958
1.92372
1.91813
1.91227
1.90695
1.90119
1.89607
1.89055
1.88563
1.88054
1.87593
1.87157
1.8675
1.8641
1.86083
1.85882
1.85722
1.85728
1.85785
1.85915
1.86112
1.86529
1.87076
1.87843
1.88642
1.89013
2.35205
2.3707
2.38882
2.39453
2.39772
2.39268
2.37876
2.3589
2.33891
2.32044
2.3029
2.2862
2.27005
2.2542
2.23849
2.22247
2.20578
2.18799
2.17012
2.15187
2.13487
2.11818
2.103
2.08867
2.07541
2.06362
2.05283
2.04401
2.03656
2.03138
2.02749
2.02544
2.02384
2.02397
2.02557
2.02875
2.03229
2.03533
2.03836
2.04014
2.04177
2.0423
2.04264
2.04224
2.04128
2.0404
2.03921
2.03793
2.03619
2.03389
2.03145
2.02854
2.0255
2.02205
2.01838
2.0144
2.01017
2.00567
2.001
1.99599
1.99098
1.98558
1.98044
1.97481
1.96961
1.96388
1.9586
1.95288
1.94741
1.94181
1.93612
1.93069
1.92484
1.91953
1.91371
1.90846
1.90281
1.89761
1.89224
1.88711
1.88209
1.87709
1.87251
1.86787
1.86393
1.86001
1.85684
1.85396
1.85203
1.85115
1.85131
1.85239
1.85376
1.85674
1.86069
1.86803
1.87548
1.88366
1.89147
1.89445
2.38006
2.40136
2.41131
2.41617
2.41181
2.39766
2.37678
2.35647
2.33743
2.32093
2.305
2.28984
2.27439
2.2592
2.24376
2.22795
2.21148
2.19379
2.17628
2.1579
2.14102
2.12341
2.10789
2.09173
2.0776
2.06338
2.05124
2.03963
2.03026
2.02188
2.01577
2.01106
2.00786
2.0054
2.00443
2.00461
2.00629
2.00941
2.01205
2.01505
2.01684
2.01855
2.01919
2.01935
2.0188
2.0181
2.01683
2.01593
2.01431
2.01256
2.01024
2.00776
2.00486
2.00177
1.99825
1.9946
1.99046
1.98631
1.98164
1.977
1.97199
1.96706
1.96191
1.95672
1.95154
1.94609
1.94095
1.93529
1.9302
1.92444
1.91932
1.91366
1.90841
1.903
1.89765
1.89252
1.88719
1.88233
1.87718
1.87258
1.86779
1.86352
1.85934
1.85556
1.85234
1.84924
1.84712
1.84529
1.84519
1.84554
1.84669
1.84892
1.85183
1.85781
1.86447
1.87288
1.88088
1.88813
1.8947
1.89652
2.41673
2.42761
2.43284
2.4288
2.41412
2.39283
2.37196
2.35334
2.33646
2.3214
2.30701
2.29261
2.27786
2.26289
2.24781
2.23201
2.21579
2.1983
2.18085
2.16271
2.1453
2.12787
2.11142
2.09506
2.0797
2.06455
2.05081
2.03741
2.02621
2.01516
2.00701
1.99901
1.99404
1.98901
1.98614
1.98373
1.98312
1.98337
1.98547
1.98779
1.99065
1.99266
1.99451
1.99524
1.99565
1.99511
1.99421
1.99326
1.99214
1.99062
1.98867
1.98634
1.98383
1.98096
1.97786
1.97441
1.97061
1.96664
1.96219
1.95789
1.95304
1.94858
1.94343
1.93884
1.93348
1.92869
1.92325
1.91819
1.91284
1.90753
1.90234
1.89693
1.89192
1.88657
1.88173
1.8766
1.8719
1.86717
1.86261
1.85844
1.85416
1.85065
1.84697
1.84431
1.84157
1.83974
1.83861
1.83871
1.83953
1.84115
1.84333
1.84775
1.85351
1.86156
1.86962
1.87782
1.88501
1.89053
1.89518
1.89589
2.44293
2.44938
2.44479
2.4294
2.40635
2.38485
2.36531
2.34862
2.33387
2.32034
2.30742
2.29359
2.27967
2.26483
2.24995
2.23408
2.21792
2.20085
2.18352
2.1659
2.14845
2.13123
2.11406
2.09743
2.08084
2.06521
2.04985
2.03576
2.02241
2.01025
1.99939
1.98962
1.98167
1.97487
1.96971
1.96491
1.96253
1.96067
1.96067
1.96154
1.96352
1.9666
1.96848
1.97068
1.97151
1.97217
1.97168
1.97089
1.97012
1.96906
1.96766
1.96565
1.96358
1.96091
1.95829
1.95494
1.95172
1.94772
1.94391
1.93949
1.93524
1.93061
1.92596
1.92122
1.91625
1.91144
1.90624
1.90135
1.89606
1.89111
1.88587
1.88094
1.87591
1.87101
1.86631
1.8615
1.85718
1.85264
1.84872
1.84474
1.84129
1.83827
1.83553
1.83367
1.83182
1.83163
1.83188
1.83325
1.83489
1.83817
1.84312
1.85018
1.85808
1.86657
1.87456
1.88136
1.8869
1.89035
1.89325
1.89296
2.47331
2.46548
2.44623
2.42134
2.39779
2.37789
2.36128
2.34662
2.33336
2.32007
2.30685
2.29291
2.27875
2.26401
2.24912
2.23354
2.21764
2.20091
2.184
2.16672
2.14944
2.13224
2.11492
2.09815
2.08118
2.06524
2.04916
2.03446
2.01968
2.00662
1.99377
1.98264
1.97219
1.96358
1.95609
1.95026
1.94487
1.94169
1.9397
1.9391
1.93929
1.9408
1.9433
1.94548
1.94802
1.94901
1.9502
1.94998
1.94946
1.94898
1.948
1.94679
1.94473
1.94259
1.93997
1.93706
1.93394
1.93022
1.92665
1.92236
1.91846
1.91381
1.90958
1.90477
1.9002
1.89533
1.89047
1.88556
1.88053
1.87561
1.87053
1.8657
1.86075
1.85606
1.85145
1.84694
1.8429
1.8387
1.83539
1.83186
1.82943
1.827
1.82553
1.82436
1.82449
1.82523
1.82681
1.82917
1.8333
1.83909
1.84682
1.855
1.86362
1.87121
1.87789
1.8828
1.88618
1.88793
1.88915
1.88818
2.50356
2.47556
2.44319
2.41605
2.39415
2.37632
2.36111
2.34708
2.33386
2.32045
2.30686
2.29279
2.27833
2.2636
2.24853
2.23301
2.21714
2.20065
2.18399
2.16687
2.1498
2.13259
2.11546
2.09851
2.08168
2.0653
2.04909
2.03355
2.01843
2.00402
1.9902
1.97753
1.96571
1.95524
1.94609
1.93865
1.93221
1.9266
1.92248
1.92038
1.91942
1.91954
1.92028
1.92223
1.92522
1.92734
1.92964
1.93052
1.93108
1.93074
1.9303
1.92961
1.9281
1.92659
1.92389
1.92171
1.91838
1.91547
1.91161
1.90795
1.90377
1.89951
1.89515
1.89048
1.88593
1.88105
1.87628
1.87137
1.86644
1.86162
1.85663
1.85203
1.84713
1.84287
1.83828
1.83443
1.83047
1.82712
1.82417
1.82158
1.81994
1.81839
1.81804
1.81831
1.81951
1.82126
1.82434
1.82928
1.83616
1.84397
1.85259
1.86073
1.86827
1.87439
1.8789
1.88186
1.88342
1.88408
1.88424
1.88264
2.53519
2.48677
2.44904
2.42101
2.39957
2.3819
2.36625
2.35146
2.33718
2.3229
2.30835
2.29366
2.27865
2.26369
2.2484
2.23283
2.21684
2.20056
2.18398
2.16722
2.15033
2.13342
2.11646
2.09963
2.0828
2.06629
2.04985
2.03399
2.01833
2.00353
1.98917
1.97585
1.96302
1.95162
1.94086
1.93137
1.92319
1.91647
1.9105
1.90624
1.90367
1.90308
1.90327
1.90376
1.90543
1.90828
1.9104
1.91319
1.91413
1.91525
1.91508
1.91478
1.91418
1.9129
1.91123
1.90881
1.90606
1.90312
1.89964
1.89618
1.89217
1.88817
1.88377
1.87932
1.87467
1.86991
1.86515
1.86015
1.8554
1.85037
1.8457
1.84091
1.83636
1.83208
1.82776
1.82424
1.82048
1.81792
1.81528
1.81395
1.81263
1.81276
1.81319
1.81449
1.8172
1.82082
1.82693
1.83412
1.84249
1.85094
1.85907
1.86621
1.87197
1.87619
1.87877
1.8801
1.88035
1.88016
1.87993
1.87793
2.57594
2.51512
2.47135
2.44082
2.41784
2.39833
2.38069
2.36372
2.3474
2.33165
2.31576
2.29979
2.28379
2.26786
2.25191
2.23578
2.21959
2.20311
2.18648
2.16974
2.1528
2.13605
2.11916
2.1024
2.08571
2.06918
2.05289
2.03694
2.02134
2.00625
1.99158
1.9776
1.96419
1.95177
1.94007
1.92987
1.92057
1.91294
1.90605
1.90042
1.89575
1.89273
1.89105
1.89108
1.89149
1.89264
1.89495
1.89776
1.90005
1.90207
1.90315
1.90348
1.90328
1.90278
1.90178
1.89975
1.8974
1.89439
1.89135
1.88783
1.88421
1.88021
1.87605
1.8717
1.86709
1.86253
1.85765
1.85292
1.84804
1.84317
1.83856
1.83371
1.82953
1.82503
1.82143
1.81771
1.81501
1.81257
1.81121
1.81028
1.81045
1.81104
1.81252
1.81531
1.82055
1.82698
1.83486
1.84314
1.85164
1.85928
1.8661
1.87132
1.8752
1.87736
1.87844
1.87844
1.87812
1.87742
1.87682
1.87471
2.61736
2.55724
2.51352
2.48019
2.45334
2.42944
2.40711
2.38584
2.36535
2.3462
2.32843
2.31137
2.29469
2.27788
2.26135
2.24462
2.22823
2.21163
2.19502
2.17819
2.16114
2.14418
2.12722
2.11035
2.09367
2.07715
2.06088
2.04494
2.02932
2.01404
1.99926
1.98492
1.97131
1.95833
1.94631
1.93507
1.92496
1.91572
1.90789
1.90085
1.89477
1.88993
1.88694
1.8851
1.88502
1.88531
1.88625
1.88799
1.89071
1.8933
1.89589
1.89714
1.89823
1.89791
1.89736
1.89631
1.89419
1.89159
1.88828
1.8848
1.88094
1.87685
1.87262
1.86804
1.86346
1.85857
1.85371
1.84876
1.84377
1.839
1.83408
1.82968
1.82517
1.8214
1.81772
1.8149
1.81263
1.81118
1.81064
1.81084
1.81147
1.81333
1.8174
1.82313
1.83011
1.83832
1.84658
1.85481
1.86211
1.86832
1.87305
1.87641
1.87823
1.87916
1.87905
1.8787
1.87805
1.87666
1.8756
1.87335
2.65198
2.59897
2.55945
2.52636
2.49672
2.46932
2.44339
2.41917
2.39658
2.37531
2.35498
2.33543
2.31659
2.298
2.27992
2.26215
2.24474
2.22742
2.21013
2.19286
2.1755
2.1582
2.14129
2.12424
2.10785
2.09129
2.0753
2.05926
2.04365
2.02808
2.01314
1.99843
1.98449
1.97116
1.95846
1.94673
1.93544
1.9255
1.91595
1.90824
1.90075
1.89498
1.88949
1.88657
1.88405
1.88406
1.88446
1.8858
1.88748
1.89015
1.89274
1.89572
1.89723
1.89853
1.89822
1.89757
1.89624
1.89442
1.89134
1.8879
1.88387
1.87961
1.87512
1.87032
1.86555
1.86046
1.85551
1.85042
1.84542
1.8406
1.83579
1.83147
1.82726
1.82374
1.82062
1.81838
1.81692
1.8161
1.81627
1.81686
1.81923
1.82398
1.83005
1.83743
1.84539
1.85365
1.86143
1.86822
1.87403
1.87806
1.88111
1.88243
1.88304
1.88276
1.88239
1.88153
1.88044
1.87838
1.87729
1.87502
2.67896
2.63706
2.60426
2.57312
2.54315
2.51509
2.48882
2.46399
2.44025
2.41738
2.39494
2.37333
2.35176
2.33165
2.31132
2.29249
2.27316
2.25472
2.23602
2.21782
2.19981
2.18203
2.16485
2.14783
2.13116
2.11458
2.09782
2.08161
2.06491
2.04934
2.03346
2.01883
2.00433
1.99063
1.9777
1.96487
1.95366
1.94213
1.93283