/*--------------------------------*- C++ -*----------------------------------*\
  =========                 |
  \\      /  F ield         | OpenFOAM: The Open Source CFD Toolbox
   \\    /   O peration     | Website:  https://openfoam.org
    \\  /    A nd           | Version:  13
     \\/     M anipulation  |
\*---------------------------------------------------------------------------*/
FoamFile
{
    format      ascii;
    class       volVectorField;
    location    "9";
    object      U;
}
// * * * * * * * * * * * * * * * * * * * * * * * * * * * * * * * * * * * * * //

dimensions      [0 1 -1 0 0 0 0];

internalField   nonuniform List<vector> 
5250
(
(2.99999 1.07112e-08 0)
(2.99998 6.5505e-08 0)
(2.99995 2.34177e-07 0)
(2.99988 6.08874e-07 0)
(2.99971 1.78741e-06 0)
(2.99927 3.79805e-06 0)
(2.99821 1.14335e-05 0)
(2.99556 2.44374e-05 0)
(2.98902 7.06154e-05 0)
(2.97239 0.000163503 0)
(2.92879 0.00043714 0)
(2.80671 0.00114064 0)
(2.44834 0.00318749 0)
(1.46941 0.00935702 0)
(0.645702 0.0219711 0)
(0.55015 0.0228581 0)
(0.570953 0.0237491 0)
(0.559548 0.0253361 0)
(0.504839 0.0271237 0)
(0.418487 0.0292127 0)
(0.337462 0.031754 0)
(0.2688 0.03468 0)
(0.198868 0.0377777 0)
(0.11946 0.0414278 0)
(0.0525687 0.0466715 0)
(2.99999 2.45291e-08 0)
(2.99998 2.21807e-07 0)
(2.99995 6.36015e-07 0)
(2.99988 2.17987e-06 0)
(2.99971 4.89789e-06 0)
(2.99928 1.45822e-05 0)
(2.99823 3.09703e-05 0)
(2.9956 9.2175e-05 0)
(2.98913 0.000194112 0)
(2.9727 0.000551242 0)
(2.9296 0.00130348 0)
(2.809 0.00357357 0)
(2.45508 0.00983125 0)
(1.48435 0.0289383 0)
(0.655089 0.0665695 0)
(0.54889 0.0660403 0)
(0.570203 0.0658472 0)
(0.559349 0.0683079 0)
(0.504755 0.07128 0)
(0.41862 0.0750965 0)
(0.33755 0.0795652 0)
(0.268264 0.0843183 0)
(0.197304 0.0887534 0)
(0.116559 0.0931156 0)
(0.0491831 0.0975271 0)
(2.99999 5.61961e-08 0)
(2.99998 3.36256e-07 0)
(2.99996 1.32815e-06 0)
(2.99988 3.2727e-06 0)
(2.99972 9.82027e-06 0)
(2.99929 2.283e-05 0)
(2.99827 5.84551e-05 0)
(2.99569 0.000149718 0)
(2.9894 0.000346638 0)
(2.97332 0.000916152 0)
(2.93129 0.00224362 0)
(2.81385 0.00604658 0)
(2.46944 0.0167456 0)
(1.51767 0.0492754 0)
(0.676941 0.114845 0)
(0.547748 0.111751 0)
(0.570859 0.110305 0)
(0.561879 0.114879 0)
(0.508067 0.120523 0)
(0.422847 0.127973 0)
(0.342078 0.13625 0)
(0.272288 0.144885 0)
(0.200323 0.153157 0)
(0.118121 0.160765 0)
(0.0488249 0.166583 0)
(3 1.08715e-07 0)
(2.99998 4.23881e-07 0)
(2.99996 2.12796e-06 0)
(2.99989 4.06934e-06 0)
(2.99973 1.55313e-05 0)
(2.99932 2.71483e-05 0)
(2.99833 9.67531e-05 0)
(2.99585 0.000172583 0)
(2.98977 0.000566759 0)
(2.97429 0.00115906 0)
(2.93384 0.00331904 0)
(2.8212 0.00831292 0)
(2.49109 0.0236653 0)
(1.56941 0.0688486 0)
(0.710501 0.163973 0)
(0.545485 0.156803 0)
(0.57265 0.153627 0)
(0.567328 0.160638 0)
(0.514944 0.169224 0)
(0.431305 0.180621 0)
(0.351098 0.193054 0)
(0.281024 0.206104 0)
(0.207982 0.218951 0)
(0.123556 0.230589 0)
(0.0506924 0.238313 0)
(3 1.21953e-07 0)
(2.99998 6.00252e-07 0)
(2.99996 2.41935e-06 0)
(2.9999 5.89993e-06 0)
(2.99974 1.79112e-05 0)
(2.99936 3.90122e-05 0)
(2.9984 0.00011594 0)
(2.99608 0.000238338 0)
(2.99022 0.000704393 0)
(2.97562 0.00153154 0)
(2.93725 0.00422806 0)
(2.83084 0.0107085 0)
(2.52014 0.0303316 0)
(1.63967 0.0879087 0)
(0.755756 0.214826 0)
(0.541483 0.201674 0)
(0.575485 0.196078 0)
(0.575647 0.205505 0)
(0.525171 0.216995 0)
(0.443691 0.232366 0)
(0.364337 0.249216 0)
(0.294149 0.267184 0)
(0.21993 0.285357 0)
(0.132383 0.302043 0)
(0.0544261 0.312629 0)
(3 1.01587e-07 0)
(2.99999 8.87822e-07 0)
(2.99996 2.45218e-06 0)
(2.9999 8.65777e-06 0)
(2.99975 1.83762e-05 0)
(2.9994 5.72224e-05 0)
(2.9985 0.000116016 0)
(2.99634 0.000351703 0)
(2.99085 0.000733561 0)
(2.97722 0.00208151 0)
(2.9415 0.00487622 0)
(2.84291 0.0133126 0)
(2.55595 0.0365664 0)
(1.73026 0.106415 0)
(0.81364 0.267762 0)
(0.536219 0.247099 0)
(0.580262 0.238229 0)
(0.587728 0.249946 0)
(0.539494 0.264287 0)
(0.460756 0.283808 0)
(0.382653 0.305643 0)
(0.312663 0.329535 0)
(0.237301 0.354534 0)
(0.145781 0.378448 0)
(0.0606529 0.394262 0)
(3 1.3197e-07 0)
(2.99999 1.00014e-06 0)
(2.99996 2.99167e-06 0)
(2.99991 9.7177e-06 0)
(2.99978 2.23803e-05 0)
(2.99944 6.33717e-05 0)
(2.99864 0.000143043 0)
(2.9966 0.000387389 0)
(2.99166 0.000898301 0)
(2.97907 0.0023517 0)
(2.94661 0.00577718 0)
(2.85729 0.0153758 0)
(2.59822 0.0425035 0)
(1.84238 0.123221 0)
(0.886175 0.321113 0)
(0.532514 0.29253 0)
(0.588912 0.280111 0)
(0.605065 0.293877 0)
(0.559157 0.310943 0)
(0.483738 0.334847 0)
(0.407421 0.36238 0)
(0.338192 0.393495 0)
(0.26216 0.427454 0)
(0.166215 0.462177 0)
(0.0711134 0.488169 0)
(3 1.80743e-07 0)
(2.99999 9.26634e-07 0)
(2.99997 3.76165e-06 0)
(2.99992 9.1222e-06 0)
(2.9998 2.79217e-05 0)
(2.9995 6.16802e-05 0)
(2.99877 0.000176552 0)
(2.99697 0.000387427 0)
(2.99249 0.0010743 0)
(2.98129 0.00246768 0)
(2.95237 0.00658223 0)
(2.87355 0.0167874 0)
(2.64657 0.0469155 0)
(1.97571 0.135634 0)
(0.976309 0.36798 0)
(0.536607 0.338256 0)
(0.605456 0.32342 0)
(0.630243 0.33763 0)
(0.586284 0.356745 0)
(0.514628 0.385204 0)
(0.44066 0.419249 0)
(0.373046 0.459122 0)
(0.297722 0.504689 0)
(0.198342 0.555664 0)
(0.0895444 0.602467 0)
(3 1.70505e-07 0)
(2.99999 9.90852e-07 0)
(2.99997 3.71669e-06 0)
(2.99993 9.72265e-06 0)
(2.99982 2.77133e-05 0)
(2.99956 6.62597e-05 0)
(2.99891 0.000173252 0)
(2.99735 0.000421497 0)
(2.9934 0.0010595 0)
(2.98366 0.00264388 0)
(2.95854 0.00668916 0)
(2.89102 0.0174771 0)
(2.69806 0.0482374 0)
(2.12583 0.140224 0)
(1.08911 0.399125 0)
(0.562806 0.38566 0)
(0.635004 0.373413 0)
(0.66563 0.383338 0)
(0.623628 0.403475 0)
(0.556118 0.435181 0)
(0.485068 0.476366 0)
(0.420206 0.525438 0)
(0.348675 0.585053 0)
(0.251356 0.661584 0)
(0.124277 0.751558 0)
(3 1.41245e-07 0)
(2.99999 1.00081e-06 0)
(2.99998 3.11972e-06 0)
(2.99994 9.73112e-06 0)
(2.99985 2.33935e-05 0)
(2.99962 6.36408e-05 0)
(2.99906 0.000150337 0)
(2.9977 0.000390316 0)
(2.99434 0.000938934 0)
(2.98599 0.00238481 0)
(2.96473 0.00591045 0)
(2.90836 0.0153627 0)
(2.74972 0.041667 0)
(2.28549 0.119587 0)
(1.23899 0.35429 0)
(0.632829 0.412695 0)
(0.685135 0.426293 0)
(0.713272 0.428999 0)
(0.67369 0.451585 0)
(0.61043 0.485004 0)
(0.542904 0.532686 0)
(0.482343 0.590285 0)
(0.422449 0.668429 0)
(0.34247 0.787188 0)
(0.191686 0.993995 0)
(3 1.24752e-07 0)
(2.99999 8.63628e-07 0)
(2.99998 2.73151e-06 0)
(2.99995 8.41812e-06 0)
(2.99987 2.0287e-05 0)
(2.99967 5.48919e-05 0)
(2.99918 0.000128954 0)
(2.998 0.000332216 0)
(2.99506 0.000792245 0)
(2.9878 0.00198813 0)
(2.96937 0.00486642 0)
(2.92078 0.0124521 0)
(2.78495 0.0329004 0)
(2.38652 0.092049 0)
(1.37638 0.273412 0)
(0.687957 0.448747 0)
(0.709442 0.481631 0)
(0.739791 0.480044 0)
(0.71889 0.501156 0)
(0.667327 0.534273 0)
(0.609632 0.58455 0)
(0.561242 0.64986 0)
(0.530599 0.743487 0)
(0.528929 0.888868 0)
(0.56399 1.13067 0)
(3 1.18841e-07 0)
(2.99999 7.53052e-07 0)
(2.99998 2.59517e-06 0)
(2.99995 7.37639e-06 0)
(2.99988 1.9145e-05 0)
(2.99971 4.91116e-05 0)
(2.9993 0.000119017 0)
(2.99826 0.000301467 0)
(2.99572 0.000720666 0)
(2.98938 0.00181647 0)
(2.97345 0.00442373 0)
(2.93161 0.0113082 0)
(2.81541 0.0296384 0)
(2.4761 0.0826257 0)
(1.55333 0.242524 0)
(0.784375 0.502431 0)
(0.718876 0.527717 0)
(0.749991 0.527697 0)
(0.750618 0.54522 0)
(0.717501 0.57908 0)
(0.677749 0.629261 0)
(0.648788 0.699011 0)
(0.648997 0.797418 0)
(0.701525 0.935113 0)
(0.827403 1.11316 0)
(3 1.20591e-07 0)
(2.99999 6.74415e-07 0)
(2.99998 2.54445e-06 0)
(2.99996 6.59541e-06 0)
(2.9999 1.87962e-05 0)
(2.99975 4.39938e-05 0)
(2.9994 0.000117993 0)
(2.9985 0.000272121 0)
(2.99632 0.000716909 0)
(2.99089 0.00167932 0)
(2.97727 0.00433805 0)
(2.94178 0.0107147 0)
(2.8441 0.0284041 0)
(2.56043 0.0786123 0)
(1.75356 0.228564 0)
(0.911251 0.543787 0)
(0.728652 0.556603 0)
(0.759743 0.560623 0)
(0.777432 0.577323 0)
(0.762965 0.614382 0)
(0.742303 0.665475 0)
(0.735296 0.734376 0)
(0.757981 0.825402 0)
(0.829936 0.936791 0)
(0.969033 1.04609 0)
(3 1.07383e-07 0)
(2.99999 6.82865e-07 0)
(2.99999 2.34963e-06 0)
(2.99997 6.65577e-06 0)
(2.99992 1.75065e-05 0)
(2.99979 4.41122e-05 0)
(2.99949 0.000110657 0)
(2.99876 0.000273977 0)
(2.99689 0.000678331 0)
(2.9924 0.00168333 0)
(2.98097 0.00417902 0)
(2.95169 0.0105567 0)
(2.87187 0.027559 0)
(2.64206 0.076179 0)
(1.97008 0.220535 0)
(1.06489 0.57647 0)
(0.750484 0.585661 0)
(0.777667 0.589835 0)
(0.806685 0.602178 0)
(0.808587 0.640165 0)
(0.803021 0.692048 0)
(0.812108 0.756296 0)
(0.848571 0.832931 0)
(0.924272 0.917939 0)
(1.05453 0.988961 0)
(3 9.91731e-08 0)
(3 6.43438e-07 0)
(2.99999 2.17268e-06 0)
(2.99997 6.29683e-06 0)
(2.99993 1.61753e-05 0)
(2.99983 4.18432e-05 0)
(2.99959 0.000102269 0)
(2.99898 0.000259282 0)
(2.99749 0.000629347 0)
(2.99381 0.00158898 0)
(2.98466 0.00390895 0)
(2.96128 0.00990551 0)
(2.89881 0.02568 0)
(2.72161 0.0704149 0)
(2.19984 0.203407 0)
(1.25748 0.57197 0)
(0.810339 0.616932 0)
(0.81504 0.625039 0)
(0.844588 0.629665 0)
(0.858704 0.661934 0)
(0.862038 0.710384 0)
(0.879429 0.767755 0)
(0.922262 0.830993 0)
(0.996509 0.89582 0)
(1.11342 0.946945 0)
(3 8.98608e-08 0)
(3 5.26068e-07 0)
(2.99999 1.91148e-06 0)
(2.99998 5.13818e-06 0)
(2.99994 1.41602e-05 0)
(2.99987 3.41588e-05 0)
(2.99967 8.90849e-05 0)
(2.9992 0.000211002 0)
(2.998 0.000542471 0)
(2.99513 0.00129456 0)
(2.9879 0.00329523 0)
(2.96985 0.00807158 0)
(2.92235 0.0208978 0)
(2.79076 0.0557888 0)
(2.40939 0.158851 0)
(1.49214 0.471205 0)
(0.91178 0.63332 0)
(0.869255 0.658578 0)
(0.88937 0.666223 0)
(0.911565 0.686115 0)
(0.92029 0.725548 0)
(0.940461 0.774273 0)
(0.984222 0.826177 0)
(1.05451 0.876453 0)
(1.15767 0.915173 0)
(3 6.84517e-08 0)
(3 4.46979e-07 0)
(2.99999 1.51543e-06 0)
(2.99998 4.33968e-06 0)
(2.99996 1.12215e-05 0)
(2.99989 2.87148e-05 0)
(2.99973 6.98345e-05 0)
(2.99936 0.000176784 0)
(2.9984 0.000421051 0)
(2.9961 0.00106972 0)
(2.99031 0.00254909 0)
(2.97596 0.0064484 0)
(2.93846 0.0160095 0)
(2.83553 0.0421303 0)
(2.53895 0.116112 0)
(1.72822 0.344968 0)
(1.02254 0.660595 0)
(0.906942 0.692095 0)
(0.92242 0.705037 0)
(0.951694 0.712713 0)
(0.971298 0.740788 0)
(0.994798 0.780047 0)
(1.03741 0.821972 0)
(1.10256 0.861063 0)
(1.19309 0.890511 0)
(3 5.72625e-08 0)
(3 3.8297e-07 0)
(2.99999 1.26982e-06 0)
(2.99999 3.74305e-06 0)
(2.99997 9.41823e-06 0)
(2.99992 2.47953e-05 0)
(2.99979 5.89856e-05 0)
(2.99949 0.000152525 0)
(2.99874 0.000359097 0)
(2.9969 0.000922226 0)
(2.99238 0.00219607 0)
(2.98106 0.00558042 0)
(2.95195 0.0138106 0)
(2.87311 0.0361566 0)
(2.64731 0.0990217 0)
(1.99458 0.288385 0)
(1.18685 0.691175 0)
(0.941686 0.724381 0)
(0.948487 0.735928 0)
(0.981232 0.736805 0)
(1.01322 0.753782 0)
(1.04185 0.784757 0)
(1.08325 0.818666 0)
(1.14302 0.849131 0)
(1.22263 0.871205 0)
(3 4.89319e-08 0)
(3 3.26411e-07 0)
(3 1.07249e-06 0)
(2.99999 3.18847e-06 0)
(2.99997 7.988e-06 0)
(2.99993 2.09952e-05 0)
(2.99984 5.04144e-05 0)
(2.99961 0.000128796 0)
(2.99904 0.000309503 0)
(2.99763 0.000779993 0)
(2.99419 0.00189611 0)
(2.98563 0.00475654 0)
(2.96393 0.0118178 0)
(2.90627 0.0306843 0)
(2.74482 0.083094 0)
(2.27077 0.239558 0)
(1.41396 0.654543 0)
(1.01556 0.74336 0)
(0.990019 0.75689 0)
(1.01325 0.758927 0)
(1.05157 0.766521 0)
(1.08528 0.789315 0)
(1.1246 0.816138 0)
(1.17839 0.839693 0)
(1.24826 0.855659 0)
(3 4.1304e-08 0)
(3 2.5001e-07 0)
(3 8.94232e-07 0)
(2.99999 2.43824e-06 0)
(2.99998 6.61066e-06 0)
(2.99995 1.62013e-05 0)
(2.99988 4.11308e-05 0)
(2.9997 0.000100008 0)
(2.99928 0.00024776 0)
(2.99823 0.000609425 0)
(2.9957 0.00148981 0)
(2.98933 0.00370833 0)
(2.97357 0.00912322 0)
(2.93241 0.0233348 0)
(2.81995 0.0616608 0)
(2.49623 0.173996 0)
(1.68901 0.511951 0)
(1.12755 0.748006 0)
(1.04265 0.774628 0)
(1.05229 0.784158 0)
(1.08869 0.78435 0)
(1.12567 0.797162 0)
(1.16276 0.815959 0)
(1.21031 0.832917 0)
(1.2713 0.843442 0)
(3 3.26273e-08 0)
(3 1.94104e-07 0)
(3 6.98367e-07 0)
(2.99999 1.88988e-06 0)
(2.99999 5.14699e-06 0)
(2.99996 1.247e-05 0)
(2.99991 3.21224e-05 0)
(2.99978 7.62834e-05 0)
(2.99946 0.000193399 0)
(2.99867 0.000460019 0)
(2.99677 0.00115573 0)
(2.99199 0.00278662 0)
(2.98026 0.00695276 0)
(2.94992 0.017293 0)
(2.86809 0.0449389 0)
(2.63543 0.122815 0)
(1.97866 0.362719 0)
(1.27529 0.755731 0)
(1.08524 0.798719 0)
(1.08367 0.810806 0)
(1.11655 0.806799 0)
(1.15872 0.807074 0)
(1.19611 0.817281 0)
(1.23888 0.827925 0)
(1.29212 0.833999 0)
(3 2.53425e-08 0)
(3 1.54422e-07 0)
(3 5.40377e-07 0)
(3 1.50619e-06 0)
(2.99999 3.99307e-06 0)
(2.99997 9.91086e-06 0)
(2.99993 2.51938e-05 0)
(2.99984 6.02816e-05 0)
(2.9996 0.000153584 0)
(2.99903 0.000362843 0)
(2.99763 0.00092732 0)
(2.99416 0.00220227 0)
(2.98564 0.00560568 0)
(2.96396 0.0137106 0)
(2.90663 0.0356667 0)
(2.74679 0.0957894 0)
(2.2786 0.277164 0)
(1.49767 0.713742 0)
(1.15511 0.815014 0)
(1.1233 0.828805 0)
(1.14302 0.827835 0)
(1.18502 0.819556 0)
(1.22549 0.82039 0)
(1.26524 0.824549 0)
(1.31142 0.826095 0)
(3 1.84267e-08 0)
(3 1.20661e-07 0)
(3 3.99927e-07 0)
(3 1.17657e-06 0)
(2.99999 2.95883e-06 0)
(2.99998 7.71984e-06 0)
(2.99995 1.86639e-05 0)
(2.99988 4.67673e-05 0)
(2.99972 0.000113937 0)
(2.99931 0.000279473 0)
(2.99831 0.000690555 0)
(2.99589 0.00167367 0)
(2.98985 0.00418537 0)
(2.97493 0.0102327 0)
(2.9362 0.026145 0)
(2.83133 0.0687667 0)
(2.52989 0.19382 0)
(1.78913 0.557778 0)
(1.27036 0.812373 0)
(1.174 0.839396 0)
(1.1768 0.846828 0)
(1.21041 0.836461 0)
(1.25119 0.827813 0)
(1.28919 0.824574 0)
(1.32862 0.819308 0)
(3 1.33911e-08 0)
(3 8.98803e-08 0)
(3 2.95932e-07 0)
(3 8.73943e-07 0)
(2.99999 2.19016e-06 0)
(2.99999 5.73504e-06 0)
(2.99997 1.36799e-05 0)
(2.99992 3.49306e-05 0)
(2.9998 8.2656e-05 0)
(2.99951 0.000208803 0)
(2.9988 0.000497715 0)
(2.99707 0.00124419 0)
(2.99277 0.00300744 0)
(2.98222 0.00747661 0)
(2.95521 0.0185602 0)
(2.88307 0.0479991 0)
(2.68012 0.130388 0)
(2.10306 0.383378 0)
(1.43141 0.806217 0)
(1.21999 0.860016 0)
(1.20744 0.865155 0)
(1.23006 0.854596 0)
(1.27024 0.837981 0)
(1.30777 0.826303 0)
(1.34084 0.811681 0)
(3 1.02914e-08 0)
(3 6.38256e-08 0)
(3 2.22645e-07 0)
(3 6.19944e-07 0)
(3 1.64512e-06 0)
(2.99999 4.07036e-06 0)
(2.99998 1.02646e-05 0)
(2.99994 2.4881e-05 0)
(2.99986 6.17117e-05 0)
(2.99966 0.000149767 0)
(2.99917 0.000369121 0)
(2.99798 0.000899547 0)
(2.99504 0.00221354 0)
(2.98788 0.00543789 0)
(2.96985 0.0135207 0)
(2.92301 0.0343973 0)
(2.79541 0.0918032 0)
(2.42412 0.26367 0)
(1.69344 0.69144 0)
(1.30891 0.852391 0)
(1.25088 0.86885 0)
(1.25704 0.866567 0)
(1.28871 0.84633 0)
(1.32248 0.824272 0)
(1.34777 0.799188 0)
(3 7.40287e-09 0)
(3 4.52659e-08 0)
(3 1.59086e-07 0)
(3 4.39416e-07 0)
(3 1.1712e-06 0)
(2.99999 2.88635e-06 0)
(2.99998 7.27048e-06 0)
(2.99996 1.75333e-05 0)
(2.9999 4.35238e-05 0)
(2.99977 0.000104835 0)
(2.99942 0.000258327 0)
(2.99861 0.000625094 0)
(2.99655 0.0015341 0)
(2.99164 0.00374012 0)
(2.97927 0.0092211 0)
(2.94786 0.0230039 0)
(2.86361 0.0597105 0)
(2.62487 0.164118 0)
(1.99421 0.475226 0)
(1.43129 0.827436 0)
(1.29129 0.87196 0)
(1.28134 0.872755 0)
(1.29998 0.853469 0)
(1.32848 0.820564 0)
(1.3471 0.781082 0)
(3 5.14281e-09 0)
(3 3.25425e-08 0)
(3 1.12255e-07 0)
(3 3.16014e-07 0)
(3 8.26423e-07 0)
(3 2.08084e-06 0)
(2.99999 5.10114e-06 0)
(2.99997 1.26876e-05 0)
(2.99993 3.04333e-05 0)
(2.99984 7.60297e-05 0)
(2.9996 0.000180412 0)
(2.99904 0.000454144 0)
(2.99764 0.00107266 0)
(2.99428 0.00270576 0)
(2.98586 0.00648417 0)
(2.96485 0.0163322 0)
(2.90952 0.0413267 0)
(2.75671 0.11108 0)
(2.31553 0.320838 0)
(1.63758 0.760157 0)
(1.34503 0.872225 0)
(1.30441 0.875213 0)
(1.30841 0.85419 0)
(1.3239 0.813841 0)
(1.33586 0.760094 0)
(3 3.62722e-09 0)
(3 2.25612e-08 0)
(3 7.85366e-08 0)
(3 2.18933e-07 0)
(3 5.78023e-07 0)
(3 1.43886e-06 0)
(2.99999 3.57638e-06 0)
(2.99998 8.75273e-06 0)
(2.99996 2.13669e-05 0)
(2.99989 5.23294e-05 0)
(2.99974 0.000126637 0)
(2.99935 0.000312198 0)
(2.99843 0.000751651 0)
(2.99615 0.0018595 0)
(2.99062 0.00451035 0)
(2.97682 0.011184 0)
(2.94158 0.0280543 0)
(2.84696 0.0735342 0)
(2.57689 0.205787 0)
(1.92526 0.574431 0)
(1.4454 0.851113 0)
(1.32946 0.874356 0)
(1.31231 0.843209 0)
(1.31347 0.792184 0)
(1.31407 0.725733 0)
(3 2.49901e-09 0)
(3 1.53406e-08 0)
(3 5.37601e-08 0)
(3 1.48953e-07 0)
(3 3.95318e-07 0)
(3 9.75352e-07 0)
(2.99999 2.45123e-06 0)
(2.99999 5.90038e-06 0)
(2.99997 1.46397e-05 0)
(2.99993 3.5144e-05 0)
(2.99982 8.66923e-05 0)
(2.99956 0.000208565 0)
(2.99893 0.000513288 0)
(2.99741 0.00124019 0)
(2.99362 0.00304648 0)
(2.98444 0.00744421 0)
(2.96105 0.0184804 0)
(2.89965 0.0472347 0)
(2.72941 0.127017 0)
(2.24732 0.369181 0)
(1.6114 0.793454 0)
(1.3484 0.86871 0)
(1.29752 0.825291 0)
(1.2877 0.753808 0)
(1.28208 0.672792 0)
(3 1.64523e-09 0)
(3 1.03764e-08 0)
(3 3.57799e-08 0)
(3 1.00913e-07 0)
(3 2.62583e-07 0)
(3 6.6131e-07 0)
(3 1.61853e-06 0)
(2.99999 4.00079e-06 0)
(2.99998 9.62567e-06 0)
(2.99995 2.38176e-05 0)
(2.99988 5.68159e-05 0)
(2.99971 0.000141099 0)
(2.99929 0.000335661 0)
(2.99826 0.000834487 0)
(2.99578 0.00199522 0)
(2.98967 0.00494632 0)
(2.97456 0.0120595 0)
(2.93564 0.0304977 0)
(2.83139 0.0799056 0)
(2.53284 0.226442 0)
(1.86779 0.60675 0)
(1.40018 0.825115 0)
(1.27042 0.789151 0)
(1.24634 0.698625 0)
(1.24513 0.611214 0)
(3 1.0911e-09 0)
(3 6.65588e-09 0)
(3 2.34052e-08 0)
(3 6.45211e-08 0)
(3 1.71253e-07 0)
(3 4.20482e-07 0)
(3 1.05629e-06 0)
(2.99999 2.52953e-06 0)
(2.99999 6.26204e-06 0)
(2.99997 1.49666e-05 0)
(2.99992 3.67274e-05 0)
(2.9998 8.83345e-05 0)
(2.9995 0.000214653 0)
(2.9988 0.000520614 0)
(2.99705 0.00125795 0)
(2.99282 0.00307557 0)
(2.98228 0.00746208 0)
(2.9556 0.0185447 0)
(2.8848 0.0472582 0)
(2.68691 0.127881 0)
(2.14536 0.370263 0)
(1.47671 0.749023 0)
(1.21072 0.744931 0)
(1.17833 0.639118 0)
(1.19876 0.55302 0)
(3 6.95541e-10 0)
(3 4.15488e-09 0)
(3 1.49338e-08 0)
(3 4.011e-08 0)
(3 1.0899e-07 0)
(3 2.61518e-07 0)
(3 6.6589e-07 0)
(3 1.57526e-06 0)
(2.99999 3.90543e-06 0)
(2.99998 9.31117e-06 0)
(2.99994 2.26633e-05 0)
(2.99985 5.48856e-05 0)
(2.99965 0.000130845 0)
(2.99913 0.00032272 0)
(2.99791 0.000758336 0)
(2.99484 0.00189131 0)
(2.98742 0.00446305 0)
(2.9686 0.0111589 0)
(2.91977 0.0277421 0)
(2.7864 0.0735405 0)
(2.40777 0.21004 0)
(1.62699 0.54941 0)
(1.15111 0.643265 0)
(1.08667 0.562366 0)
(1.13618 0.491847 0)
(3 4.22976e-10 0)
(3 2.54047e-09 0)
(3 8.94902e-09 0)
(3 2.44834e-08 0)
(3 6.4978e-08 0)
(3 1.57432e-07 0)
(3 3.97978e-07 0)
(3 9.28359e-07 0)
(2.99999 2.34029e-06 0)
(2.99998 5.35796e-06 0)
(2.99995 1.35279e-05 0)
(2.99989 3.07998e-05 0)
(2.99973 7.74929e-05 0)
(2.99932 0.000177066 0)
(2.99836 0.000440091 0)
(2.99591 0.0010193 0)
(2.98998 0.00249634 0)
(2.97491 0.00590862 0)
(2.93583 0.0145709 0)
(2.82845 0.0367886 0)
(2.52131 0.0987287 0)
(1.73509 0.284274 0)
(1.06497 0.491185 0)
(0.950793 0.45968 0)
(1.03823 0.42114 0)
(3 2.49972e-10 0)
(3 1.58096e-09 0)
(3 5.31458e-09 0)
(3 1.52207e-08 0)
(3 3.87554e-08 0)
(3 9.70565e-08 0)
(3 2.39097e-07 0)
(3 5.67241e-07 0)
(2.99999 1.41286e-06 0)
(2.99998 3.24694e-06 0)
(2.99996 8.22615e-06 0)
(2.99991 1.84639e-05 0)
(2.99977 4.75507e-05 0)
(2.99944 0.000105219 0)
(2.99861 0.00027205 0)
(2.99655 0.000603196 0)
(2.99148 0.00154229 0)
(2.97862 0.00352192 0)
(2.9451 0.00885386 0)
(2.85274 0.0219512 0)
(2.58377 0.058404 0)
(1.83052 0.163598 0)
(0.988322 0.371746 0)
(0.782119 0.358078 0)
(0.91782 0.351853 0)
(3 1.40611e-10 0)
(3 9.72008e-10 0)
(3 3.09099e-09 0)
(3 9.38381e-09 0)
(3 2.27128e-08 0)
(3 6.03814e-08 0)
(3 1.40303e-07 0)
(3 3.55419e-07 0)
(2.99999 8.39008e-07 0)
(2.99999 2.03926e-06 0)
(2.99997 4.96274e-06 0)
(2.99992 1.16708e-05 0)
(2.9998 2.92268e-05 0)
(2.99951 6.64753e-05 0)
(2.99877 0.000171425 0)
(2.99696 0.000381179 0)
(2.99241 0.00099181 0)
(2.98099 0.00224801 0)
(2.95103 0.00576201 0)
(2.86858 0.0142511 0)
(2.62626 0.0384769 0)
(1.91566 0.107006 0)
(0.94377 0.275814 0)
(0.614841 0.265312 0)
(0.800577 0.288449 0)
(3 7.9484e-11 0)
(3 5.99369e-10 0)
(3 1.83377e-09 0)
(3 5.85432e-09 0)
(3 1.34219e-08 0)
(3 3.83336e-08 0)
(3 8.26048e-08 0)
(3 2.31742e-07 0)
(3 4.94181e-07 0)
(2.99999 1.37081e-06 0)
(2.99997 2.97717e-06 0)
(2.99993 8.00503e-06 0)
(2.99982 1.80973e-05 0)
(2.99955 4.6245e-05 0)
(2.99888 0.000110301 0)
(2.99724 0.000267537 0)
(2.99304 0.000665963 0)
(2.98258 0.00159284 0)
(2.95505 0.00403253 0)
(2.87945 0.010245 0)
(2.65628 0.0279647 0)
(1.98408 0.0791577 0)
(0.928358 0.217292 0)
(0.486004 0.2036 0)
(0.713276 0.243237 0)
(3 5.94481e-11 0)
(3 3.35297e-10 0)
(3 1.25907e-09 0)
(3 3.26063e-09 0)
(3 9.25057e-09 0)
(3 2.15472e-08 0)
(3 5.7291e-08 0)
(3 1.34246e-07 0)
(3 3.40838e-07 0)
(2.99999 8.32034e-07 0)
(2.99997 2.03654e-06 0)
(2.99993 5.141e-06 0)
(2.99983 1.23445e-05 0)
(2.99958 3.17741e-05 0)
(2.99896 7.56834e-05 0)
(2.99743 0.0001974 0)
(2.99352 0.000475184 0)
(2.98378 0.00123723 0)
(2.95824 0.00308867 0)
(2.88828 0.00823382 0)
(2.68224 0.0228518 0)
(2.05349 0.0676708 0)
(0.947019 0.19618 0)
(0.417522 0.175417 0)
(0.66246 0.207946 0)
(3 3.74975e-11 0)
(3 2.3963e-10 0)
(3 8.24181e-10 0)
(3 2.32119e-09 0)
(3 6.13182e-09 0)
(3 1.55265e-08 0)
(3 3.80454e-08 0)
(3 9.59052e-08 0)
(3 2.30021e-07 0)
(2.99999 5.86495e-07 0)
(2.99997 1.38287e-06 0)
(2.99994 3.62518e-06 0)
(2.99984 8.58885e-06 0)
(2.99961 2.26943e-05 0)
(2.99901 5.43692e-05 0)
(2.99757 0.000146615 0)
(2.9939 0.000354951 0)
(2.98476 0.00095457 0)
(2.96089 0.00242421 0)
(2.89599 0.00667744 0)
(2.70591 0.0189971 0)
(2.12663 0.0589652 0)
(0.989128 0.180433 0)
(0.4003 0.160837 0)
(0.643626 0.179862 0)
(3 2.65034e-11 0)
(3 1.8469e-10 0)
(3 5.8327e-10 0)
(3 1.83059e-09 0)
(3 4.30545e-09 0)
(3 1.19478e-08 0)
(3 2.74226e-08 0)
(3 7.148e-08 0)
(3 1.69789e-07 0)
(2.99999 4.32134e-07 0)
(2.99998 1.05275e-06 0)
(2.99994 2.63765e-06 0)
(2.99985 6.63552e-06 0)
(2.99962 1.65141e-05 0)
(2.99906 4.24688e-05 0)
(2.99768 0.000105553 0)
(2.99419 0.000275974 0)
(2.98551 0.00069747 0)
(2.96304 0.00185664 0)
(2.90227 0.0050525 0)
(2.72693 0.0145784 0)
(2.19625 0.0459196 0)
(1.04164 0.144852 0)
(0.407476 0.150951 0)
(0.640886 0.164353 0)
(3 2.69082e-11 0)
(3 1.28458e-10 0)
(3 5.26761e-10 0)
(3 1.25615e-09 0)
(3 3.85119e-09 0)
(3 8.09542e-09 0)
(3 2.48568e-08 0)
(3 4.88239e-08 0)
(3 1.54193e-07 0)
(2.99999 2.99278e-07 0)
(2.99998 9.62047e-07 0)
(2.99994 1.84706e-06 0)
(2.99985 5.91691e-06 0)
(2.99964 1.20207e-05 0)
(2.99909 3.6189e-05 0)
(2.99776 7.86532e-05 0)
(2.9944 0.000224652 0)
(2.98608 0.000529044 0)
(2.96454 0.00145268 0)
(2.90675 0.00379199 0)
(2.74103 0.0108655 0)
(2.24396 0.0331445 0)
(1.09185 0.103523 0)
(0.425786 0.144686 0)
(0.641974 0.156487 0)
(3 1.10212e-11 0)
(3 1.45412e-10 0)
(3 3.30753e-10 0)
(3 1.41398e-09 0)
(3 2.51932e-09 0)
(3 9.42643e-09 0)
(3 1.53736e-08 0)
(3 5.95414e-08 0)
(3 9.36209e-08 0)
(2.99999 3.64253e-07 0)
(2.99998 5.94139e-07 0)
(2.99994 2.16706e-06 0)
(2.99986 3.90485e-06 0)
(2.99965 1.28502e-05 0)
(2.99911 2.63326e-05 0)
(2.99784 7.58256e-05 0)
(2.99457 0.000178508 0)
(2.98654 0.000465742 0)
(2.96576 0.00118028 0)
(2.91023 0.00315751 0)
(2.75186 0.00881945 0)
(2.27815 0.0263163 0)
(1.14349 0.0806117 0)
(0.454318 0.135066 0)
(0.644065 0.147268 0)
(3 1.66775e-11 0)
(3 7.42513e-11 0)
(3 3.37067e-10 0)
(3 7.40271e-10 0)
(3 2.5091e-09 0)
(3 5.29729e-09 0)
(3 1.55788e-08 0)
(3 3.34166e-08 0)
(3 9.76589e-08 0)
(2.99999 2.04823e-07 0)
(2.99998 6.04714e-07 0)
(2.99994 1.34504e-06 0)
(2.99986 3.70454e-06 0)
(2.99966 8.9007e-06 0)
(2.99914 2.33758e-05 0)
(2.99789 5.97721e-05 0)
(2.99472 0.000150949 0)
(2.98691 0.000391965 0)
(2.9668 0.00100593 0)
(2.91314 0.00267459 0)
(2.76079 0.00746768 0)
(2.30631 0.0221207 0)
(1.19068 0.0676115 0)
(0.486636 0.121303 0)
(0.64754 0.136776 0)
(3 1.9578e-11 0)
(3 2.2998e-11 0)
(3 3.58241e-10 0)
(3 2.31609e-10 0)
(3 2.58728e-09 0)
(3 2.12444e-09 0)
(3 1.54864e-08 0)
(3 1.70838e-08 0)
(3 9.04511e-08 0)
(2.99999 1.31171e-07 0)
(2.99998 5.20504e-07 0)
(2.99995 1.06378e-06 0)
(2.99986 2.94175e-06 0)
(2.99966 8.01826e-06 0)
(2.99916 1.72704e-05 0)
(2.99794 5.80787e-05 0)
(2.99484 0.00010646 0)
(2.98725 0.000379376 0)
(2.96767 0.000788147 0)
(2.91568 0.00237646 0)
(2.7683 0.00630889 0)
(2.33044 0.018873 0)
(1.23342 0.0574424 0)
(0.520205 0.107701 0)
(0.649969 0.124755 0)
(3 5.9489e-12 0)
(3 4.45107e-11 0)
(3 1.87083e-10 0)
(3 4.30832e-10 0)
(3 1.42966e-09 0)
(3 3.45695e-09 0)
(3 8.36784e-09 0)
(3 2.70549e-08 0)
(3 4.60637e-08 0)
(2.99999 2.07144e-07 0)
(2.99998 2.45921e-07 0)
(2.99995 1.48441e-06 0)
(2.99987 1.45262e-06 0)
(2.99967 9.85783e-06 0)
(2.99918 9.59635e-06 0)
(2.99796 6.16696e-05 0)
(2.99499 7.30018e-05 0)
(2.98748 0.000360264 0)
(2.96846 0.000634578 0)
(2.91783 0.00210306 0)
(2.77463 0.0053711 0)
(2.35086 0.016049 0)
(1.27138 0.0484158 0)
(0.551781 0.0937693 0)
(0.651545 0.109297 0)
(3 5.90809e-12 0)
(3 5.42835e-11 0)
(3 1.16893e-10 0)
(3 5.28274e-10 0)
(3 1.00547e-09 0)
(3 3.34772e-09 0)
(3 8.21794e-09 0)
(3 1.98896e-08 0)
(3 5.99179e-08 0)
(2.99999 1.18457e-07 0)
(2.99998 4.16875e-07 0)
(2.99995 7.10322e-07 0)
(2.99987 2.79565e-06 0)
(2.99967 4.57091e-06 0)
(2.9992 1.82086e-05 0)
(2.99799 3.04821e-05 0)
(2.99509 0.000116843 0)
(2.98772 0.000217445 0)
(2.96913 0.000703653 0)
(2.91965 0.00164571 0)
(2.78012 0.00477759 0)
(2.36765 0.0135436 0)
(1.30456 0.040255 0)
(0.579865 0.0797103 0)
(0.65334 0.0920272 0)
(3 1.1071e-11 0)
(3 2.30924e-11 0)
(3 1.68913e-10 0)
(3 2.5324e-10 0)
(3 1.29337e-09 0)
(3 1.58815e-09 0)
(3 9.54641e-09 0)
(3 9.8454e-09 0)
(3 6.63207e-08 0)
(2.99999 6.55266e-08 0)
(2.99998 4.4879e-07 0)
(2.99995 4.33064e-07 0)
(2.99987 2.97472e-06 0)
(2.99968 3.05006e-06 0)
(2.9992 1.85294e-05 0)
(2.99805 2.3388e-05 0)
(2.99515 0.000108192 0)
(2.98797 0.00018296 0)
(2.96966 0.000610628 0)
(2.92126 0.00140036 0)
(2.78468 0.0040471 0)
(2.38152 0.011299 0)
(1.33258 0.0328548 0)
(0.603646 0.0660933 0)
(0.65526 0.0732823 0)
(3 -4.71651e-12 0)
(3 3.82796e-11 0)
(3 -6.85959e-12 0)
(3 4.03e-10 0)
(3 3.84515e-11 0)
(3 3.29016e-09 0)
(3 -1.49686e-11 0)
(3 2.46164e-08 0)
(3 1.11301e-09 0)
(2.99999 1.70408e-07 0)
(2.99998 2.93009e-08 0)
(2.99995 1.08785e-06 0)
(2.99987 4.94598e-07 0)
(2.99968 6.27828e-06 0)
(2.99922 5.42142e-06 0)
(2.99807 3.56825e-05 0)
(2.99523 4.75216e-05 0)
(2.98814 0.000204153 0)
(2.97014 0.000388619 0)
(2.92256 0.00122083 0)
(2.7884 0.00311311 0)
(2.39257 0.00896592 0)
(1.35572 0.0259633 0)
(0.622176 0.0529976 0)
(0.656619 0.0537035 0)
(3 -8.11751e-13 0)
(3 2.26273e-11 0)
(3 3.79122e-11 0)
(3 2.25241e-10 0)
(3 3.68726e-10 0)
(3 1.89556e-09 0)
(3 1.69421e-09 0)
(3 1.51021e-08 0)
(3 7.84226e-09 0)
(2.99999 1.0667e-07 0)
(2.99998 5.5676e-08 0)
(2.99995 7.28046e-07 0)
(2.99987 3.16942e-07 0)
(2.99968 4.81327e-06 0)
(2.99923 2.83561e-06 0)
(2.99808 2.83772e-05 0)
(2.99529 2.78061e-05 0)
(2.98825 0.000155207 0)
(2.97052 0.00025513 0)
(2.92349 0.000880102 0)
(2.79131 0.00217237 0)
(2.40091 0.00642482 0)
(1.37428 0.0188968 0)
(0.635238 0.0393136 0)
(0.656827 0.036348 0)
(3 1.1367e-11 0)
(3 -1.19662e-11 0)
(3 1.67491e-10 0)
(3 -1.02002e-10 0)
(3 1.1848e-09 0)
(3 -5.68674e-10 0)
(3 7.6137e-09 0)
(3 -3.512e-09 0)
(3 4.60413e-08 0)
(2.99999 -1.447e-08 0)
(2.99998 2.74115e-07 0)
(2.99995 -9.81595e-09 0)
(2.99987 1.4434e-06 0)
(2.99969 8.36648e-07 0)
(2.99924 7.08938e-06 0)
(2.99809 9.63863e-06 0)
(2.99533 3.36111e-05 0)
(2.98833 7.26435e-05 0)
(2.97075 0.000185598 0)
(2.92415 0.000480074 0)
(2.79311 0.00130921 0)
(2.40684 0.00383751 0)
(1.38649 0.0114508 0)
(0.644022 0.0242662 0)
(0.656924 0.0214128 0)
(3 3.99504e-12 0)
(3 -3.59967e-13 0)
(3 5.08011e-11 0)
(3 8.49896e-12 0)
(3 3.39734e-10 0)
(3 2.48182e-11 0)
(3 2.68459e-09 0)
(3 -1.30303e-09 0)
(3 1.86184e-08 0)
(2.99999 -1.28784e-08 0)
(2.99998 1.21205e-07 0)
(2.99995 -9.99594e-08 0)
(2.99987 7.50485e-07 0)
(2.99969 -5.63781e-07 0)
(2.99924 4.23844e-06 0)
(2.9981 -1.63584e-06 0)
(2.99534 2.01035e-05 0)
(2.98838 7.52901e-06 0)
(2.97085 8.38712e-05 0)
(2.92448 0.000127468 0)
(2.79403 0.000455503 0)
(2.40981 0.00126722 0)
(1.39277 0.00384815 0)
(0.648269 0.00827666 0)
(0.656601 0.00712601 0)
(1.11631 0.998959 0)
(0.995332 0.709395 0)
(0.0768987 0.424424 0)
(-0.423514 0.0217588 0)
(-0.551801 -0.00893321 0)
(-0.693641 -0.0237721 0)
(-0.747509 -0.0116551 0)
(-0.794359 0.0109861 0)
(-0.855212 0.0176342 0)
(-0.91276 0.0144845 0)
(-0.95779 0.00603424 0)
(-0.993976 -0.0017385 0)
(-1.02059 -0.00261087 0)
(-1.03184 -0.00269937 0)
(-1.03054 -0.00380458 0)
(-1.01751 -0.00540842 0)
(-0.991826 -0.00756628 0)
(-0.953872 -0.00996974 0)
(-0.907343 -0.0120371 0)
(-0.856641 -0.0130647 0)
(-0.804465 -0.0134564 0)
(-0.752162 -0.0135288 0)
(-0.70036 -0.013469 0)
(-0.649007 -0.0134141 0)
(-0.598003 -0.0134408 0)
(-0.547175 -0.0136084 0)
(-0.496421 -0.0139847 0)
(-0.445803 -0.0145699 0)
(-0.394432 -0.0158777 0)
(-0.342614 -0.0174215 0)
(-0.291303 -0.0185896 0)
(-0.241077 -0.019469 0)
(-0.191908 -0.0204525 0)
(-0.143577 -0.0213059 0)
(-0.0958692 -0.0221355 0)
(-0.0491243 -0.0231292 0)
(-0.00241108 -0.0255199 0)
(0.0485227 -0.0245638 0)
(0.0928299 -0.0226743 0)
(0.136474 -0.0215172 0)
(0.178655 -0.0208577 0)
(0.219112 -0.0200637 0)
(0.257982 -0.0192333 0)
(0.294581 -0.0184048 0)
(0.330779 -0.0180574 0)
(0.368428 -0.018292 0)
(0.405785 -0.0178442 0)
(0.441693 -0.017118 0)
(0.476344 -0.0163997 0)
(0.510094 -0.0158122 0)
(0.543081 -0.01526 0)
(0.575394 -0.0147693 0)
(0.607011 -0.0142607 0)
(0.638007 -0.0137747 0)
(0.668375 -0.0132906 0)
(0.698164 -0.0128246 0)
(0.727381 -0.0123706 0)
(0.756037 -0.0119333 0)
(0.784157 -0.0115021 0)
(0.811754 -0.0110902 0)
(0.838833 -0.0106823 0)
(0.865414 -0.0102926 0)
(0.891507 -0.00990416 0)
(0.91713 -0.00953532 0)
(0.942283 -0.00916605 0)
(0.966992 -0.00881215 0)
(0.991249 -0.00846026 0)
(1.01508 -0.00811714 0)
(1.03847 -0.00777781 0)
(1.06144 -0.00744281 0)
(1.08398 -0.00711059 0)
(1.10611 -0.00678111 0)
(1.1278 -0.00645331 0)
(1.14908 -0.00612829 0)
(1.16994 -0.00580474 0)
(1.19038 -0.00548506 0)
(1.21041 -0.00516732 0)
(1.23004 -0.00485518 0)
(1.24927 -0.00454599 0)
(1.26812 -0.00424346 0)
(1.2866 -0.0039448 0)
(1.30472 -0.00365155 0)
(1.32248 -0.00336295 0)
(1.3399 -0.00307899 0)
(1.35697 -0.00279911 0)
(1.37369 -0.0025306 0)
(1.39008 -0.00227422 0)
(1.40612 -0.0020199 0)
(1.4218 -0.00175751 0)
(1.4371 -0.00150529 0)
(1.45201 -0.00126606 0)
(1.4665 -0.00104166 0)