/*--------------------------------*- C++ -*----------------------------------*\
  =========                 |
  \\      /  F ield         | OpenFOAM: The Open Source CFD Toolbox
   \\    /   O peration     | Website:  https://openfoam.org
    \\  /    A nd           | Version:  13
     \\/     M anipulation  |
\*---------------------------------------------------------------------------*/
FoamFile
{
    format      ascii;
    class       volScalarField;
    location    "3";
    object      Ma;
}
// * * * * * * * * * * * * * * * * * * * * * * * * * * * * * * * * * * * * * //

dimensions      [];

internalField   nonuniform List<scalar> 
5250
(
3
2.99997
2.99991
2.99977
2.99937
2.99853
2.99608
2.99107
2.97626
2.94457
2.85764
2.65068
2.16822
1.28075
0.531756
0.270987
0.324306
0.338483
0.304615
0.249039
0.197566
0.15633
0.115106
0.0700226
0.0373632
3
2.99997
2.99991
2.99978
2.99937
2.99856
2.99617
2.99107
2.97705
2.94475
2.86073
2.65545
2.18015
1.29806
0.540819
0.271842
0.326502
0.341519
0.307922
0.253255
0.20313
0.163421
0.124577
0.0845767
0.05982
3
2.99997
2.99992
2.99976
2.99943
2.9985
2.99655
2.99082
2.97885
2.94499
2.86745
2.6656
2.20566
1.33751
0.562007
0.276428
0.333472
0.350479
0.317868
0.265438
0.218163
0.181656
0.147376
0.114852
0.0966404
3
2.99998
2.99991
2.99979
2.99941
2.99871
2.9964
2.99203
2.97857
2.95008
2.87184
2.68535
2.24327
1.3997
0.595053
0.285518
0.345524
0.365496
0.334442
0.284997
0.241105
0.20831
0.178809
0.152113
0.137163
3
2.99998
2.99993
2.9998
2.99948
2.99874
2.99676
2.99242
2.98025
2.95348
2.88118
2.70806
2.29375
1.48533
0.639638
0.302147
0.363858
0.386951
0.357618
0.311472
0.27077
0.241465
0.216049
0.193699
0.180809
3
2.99998
2.99993
2.99981
2.99955
2.99878
2.99724
2.99256
2.98314
2.9556
2.89441
2.73217
2.35541
1.59361
0.697215
0.331846
0.391465
0.416232
0.388436
0.345443
0.307432
0.281311
0.259732
0.241321
0.230687
3
2.99998
2.99994
2.99983
2.99958
2.99894
2.99738
2.99364
2.98391
2.96145
2.90281
2.76106
2.41652
1.7106
0.762724
0.369832
0.425508
0.449878
0.424453
0.385548
0.350731
0.327918
0.310479
0.296848
0.290527
3
2.99999
2.99994
2.99985
2.9996
2.99908
2.99753
2.99439
2.98507
2.96549
2.9111
2.78343
2.46608
1.80142
0.829755
0.405635
0.45271
0.474443
0.456885
0.426055
0.397625
0.380277
0.368986
0.36299
0.366643
3
2.99999
2.99995
2.99986
2.99967
2.9991
2.99792
2.99461
2.98714
2.9677
2.92094
2.80259
2.51458
1.89347
0.923965
0.464955
0.473755
0.488791
0.485232
0.465158
0.445889
0.436914
0.435026
0.443334
0.470389
3
2.99999
2.99996
2.99988
2.9997
2.99921
2.99814
2.9951
2.98878
2.97038
2.93042
2.82211
2.56474
1.99148
1.04321
0.536315
0.488975
0.504774
0.51198
0.502786
0.494763
0.495828
0.510509
0.548706
0.647823
3
2.99999
2.99997
2.99989
2.99975
2.99928
2.99841
2.99563
2.99016
2.97407
2.93861
2.84396
2.61621
2.09792
1.18846
0.620282
0.506318
0.523706
0.538737
0.539595
0.542317
0.556678
0.59433
0.675987
0.842549
3
2.99999
2.99997
2.99991
2.99977
2.99941
2.99856
2.99646
2.99114
2.9786
2.94616
2.86815
2.6701
2.21602
1.36718
0.71915
0.531141
0.548164
0.567652
0.576649
0.588658
0.61648
0.673145
0.778974
0.959761
3
3
2.99997
2.99993
2.9998
2.99954
2.99876
2.99713
2.99256
2.98229
2.9555
2.89101
2.72802
2.34439
1.58403
0.835438
0.574125
0.586005
0.603325
0.617105
0.635327
0.671941
0.737539
0.844559
1.0034
3.00001
3
2.99998
2.99995
2.99984
2.99963
2.99898
2.99775
2.99381
2.98622
2.96357
2.91418
2.78296
2.47662
1.83192
0.967886
0.637637
0.635234
0.647467
0.663435
0.683506
0.722077
0.787349
0.884967
1.02013
3.00001
3
2.99999
2.99996
2.99987
2.9997
2.99917
2.99817
2.99496
2.98877
2.97025
2.93011
2.82258
2.56784
2.00612
1.1093
0.705558
0.674584
0.688474
0.706264
0.72878
0.766439
0.827442
0.91374
1.02934
3.00001
3
2.99999
2.99997
2.9999
2.99976
2.99934
2.99851
2.99596
2.99095
2.97588
2.94394
2.85644
2.64957
2.17166
1.32135
0.810374
0.706061
0.718561
0.738918
0.767247
0.804711
0.860913
0.937505
1.0368
3.00001
3
2.99999
2.99998
2.99992
2.99981
2.9995
2.99877
2.997
2.99248
2.982
2.9546
2.88984
2.72442
2.33985
1.58366
0.941481
0.747629
0.749673
0.769033
0.800574
0.838152
0.889659
0.957973
1.04411
3.00001
3
3
2.99998
2.99994
2.99986
2.99962
2.99911
2.99763
2.99467
2.98577
2.96758
2.91647
2.79915
2.50896
1.90269
1.10386
0.814135
0.793003
0.806942
0.835133
0.871584
0.917602
0.977614
1.05236
3.00001
3.00001
3
2.99999
2.99996
2.99988
2.99973
2.99927
2.99832
2.99568
2.98972
2.97439
2.93753
2.84557
2.62072
2.12103
1.28785
0.889924
0.829961
0.841883
0.867073
0.90265
0.94468
0.997247
1.06215
3.00001
3.00001
3
2.99999
2.99997
2.99992
2.99979
2.99948
2.9987
2.99686
2.99207
2.98123
2.95243
2.88523
2.71331
2.31841
1.55995
1.01753
0.87314
0.874559
0.895066
0.92918
0.969528
1.0168
1.07335
3.00001
3.00001
3
3
2.99998
2.99994
2.99986
2.9996
2.99911
2.99764
2.99457
2.98616
2.96699
2.91809
2.79986
2.51612
1.91795
1.18838
0.938526
0.914758
0.92789
0.956849
0.994911
1.03723
1.08668
3.00001
3.00001
3
3
2.99999
2.99996
2.99989
2.99974
2.99931
2.99839
2.99595
2.99018
2.97602
2.94106
2.85568
2.64601
2.17825
1.39499
1.01891
0.952229
0.961046
0.985044
1.01932
1.05768
1.10154
3.00001
3.00001
3.00001
3
2.99999
2.99998
2.99992
2.99982
2.9995
2.99889
2.99704
2.99322
2.98259
2.95874
2.89679
2.74808
2.39596
1.70205
1.15527
1.00249
0.99563
1.01075
1.0405
1.07744
1.11761
3.00001
3.00001
3.00001
3
3
2.99999
2.99995
2.99988
2.99966
2.99925
2.99794
2.99552
2.98787
2.97275
2.92976
2.83296
2.5915
2.07089
1.35113
1.07888
1.03528
1.04208
1.06455
1.09757
1.13444
3.00001
3.00001
3.00001
3.00001
3
2.99999
2.99997
2.99991
2.99979
2.99945
2.99868
2.99675
2.99203
2.98087
2.95238
2.88525
2.71665
2.33316
1.6226
1.19083
1.07968
1.07409
1.08738
1.11556
1.15115
3.00001
3.00001
3.00001
3.00001
3
3
2.99998
2.99995
2.99985
2.99966
2.99909
2.99793
2.9947
2.98752
2.96909
2.92551
2.81751
2.56301
2.01638
1.36798
1.14314
1.11018
1.11576
1.13743
1.16775
3.00001
3.00001
3.00001
3.00001
3.00001
3
2.99999
2.99997
2.99991
2.99976
2.99942
2.9986
2.99648
2.9918
2.97906
2.95121
2.87729
2.70567
2.30594
1.61064
1.23549
1.14923
1.14489
1.15785
1.18371
3.00001
3.00001
3.00001
3.00001
3.00001
3
3
2.99998
2.99994
2.99985
2.99963
2.99906
2.99785
2.99439
2.98735
2.96714
2.92398
2.80951
2.54924
1.9914
1.40248
1.2064
1.17779
1.18317
1.20356
3.00001
3.00001
3.00001
3.00001
3.00001
3.00001
3
2.99999
2.99997
2.9999
2.99977
2.99939
2.99864
2.99635
2.99197
2.97881
2.95153
2.8776
2.70815
2.31303
1.64736
1.30052
1.21842
1.21183
1.22257
3.00001
3.00001
3.00001
3.00001
3.00001
3.00001
3
3
2.99998
2.99995
2.99985
2.99964
2.9991
2.99784
2.99478
2.98716
2.96961
2.92469
2.82002
2.56737
2.03584
1.46985
1.27623
1.24443
1.247
3.00001
3.00001
3.00001
3.00001
3.00001
3.00001
3.00001
3
2.99999
2.99997
2.99992
2.99977
2.99946
2.99863
2.99675
2.99207
2.98073
2.95373
2.88688
2.72757
2.35943
1.72584
1.37544
1.28516
1.27471
3.00001
3.00001
3.00001
3.00001
3.00001
3.00001
3.00001
3
3
2.99998
2.99995
2.99987
2.99967
2.99918
2.99808
2.9951
2.98891
2.97152
2.93468
2.83726
2.61778
2.13415
1.55943
1.34694
1.30875
3.00001
3.00001
3.00001
3.00001
3.00001
3.00001
3.00001
3.00001
3
2.99999
2.99997
2.99993
2.99979
2.99953
2.99875
2.9972
2.99279
2.98334
2.95859
2.90131
2.76003
2.43569
1.83712
1.45114
1.34696
3.00001
3.00001
3.00001
3.00001
3.00001
3.00001
3.00001
3.00001
3
3
2.99999
2.99996
2.99989
2.99971
2.99929
2.99831
2.99576
2.99031
2.9753
2.94328
2.85878
2.66794
2.23515
1.65736
1.42016
3.00001
3.00001
3.00001
3.00001
3.00001
3.00001
3.00001
3.00001
3.00001
3
3
2.99998
2.99994
2.99982
2.99961
2.99894
2.99765
2.9939
2.98612
2.96523
2.91814
2.80043
2.52986
1.99216
1.55427
3.00001
3.00001
3.00001
3.00001
3.00001
3.00001
3.00001
3.00001
3.00001
3.00001
3
2.99999
2.99996
2.99991
2.99975
2.99945
2.99852
2.99671
2.99156
2.98063
2.95191
2.88635
2.72558
2.36269
1.79633
3.00001
3.00001
3.00001
3.00001
3.00001
3.00001
3.00001
3.00001
3.00001
3.00001
3
3
2.99998
2.99995
2.99988
2.99965
2.99924
2.998
2.99556
2.9887
2.97405
2.93621
2.84961
2.64203
2.20174
3.00001
3.00001
3.00001
3.00001
3.00001
3.00001
3.00001
3.00001
3.00001
3.00001
3.00001
3
2.99999
2.99998
2.99992
2.99982
2.99953
2.99893
2.99734
2.99369
2.98496
2.96328
2.91351
2.79036
2.50993
3.00001
3.00001
3.00001
3.00001
3.00001
3.00001
3.00001
3.00001
3.00001
3.00001
3.00001
3.00001
3
2.99999
2.99996
2.99991
2.99974
2.99942
2.99849
2.99656
2.9915
2.97994
2.95172
2.88444
2.72504
3.00001
3.00001
3.00001
3.00001
3.00001
3.00001
3.00001
3.00001
3.00001
3.00001
3.00001
3.00001
3
3
2.99998
2.99995
2.99986
2.99968
2.99919
2.99811
2.99545
2.98907
2.97437
2.93765
2.85403
3.00001
3.00001
3.00001
3.00001
3.00001
3.00001
3.00001
3.00001
3.00001
3.00001
3.00001
3.00001
3.00001
3
2.99999
2.99998
2.99993
2.99983
2.99954
2.99899
2.99741
2.99411
2.9855
2.96581
2.91804
3.00001
3.00001
3.00001
3.00001
3.00001
3.00001
3.00001
3.00001
3.00001
3.00001
3.00001
3.00001
3.00001
3.00001
3
2.99999
2.99997
2.99991
2.99977
2.99942
2.9987
2.99661
2.99262
2.9808
2.95728
3.00001
3.00001
3.00001
3.00001
3.00001
3.00001
3.00001
3.00001
3.00001
3.00001
3.00001
3.00001
3.00001
3.00001
3
3
2.99998
2.99996
2.99987
2.99972
2.99925
2.99838
2.99575
2.99067
2.9764
3.00001
3.00001
3.00001
3.00001
3.00001
3.00001
3.00001
3.00001
3.00001
3.00001
3.00001
3.00001
3.00001
3.00001
3.00001
3
3
2.99998
2.99994
2.99984
2.99964
2.99906
2.99794
2.99462
2.98831
3.00001
3.00001
3.00001
3.00001
3.00001
3.00001
3.00001
3.00001
3.00001
3.00001
3.00001
3.00001
3.00001
3.00001
3.00001
3.00001
3
2.99999
2.99997
2.99992
2.9998
2.99952
2.99888
2.99721
2.99377
3.00001
3.00001
3.00001
3.00001
3.00001
3.00001
3.00001
3.00001
3.00001
3.00001
3.00001
3.00001
3.00001
3.00001
3.00001
3.00001
3
3
2.99999
2.99996
2.9999
2.99976
2.99937
2.99863
2.9964
3.00001
3.00001
3.00001
3.00001
3.00001
3.00001
3.00001
3.00001
3.00001
3.00001
3.00001
3.00001
3.00001
3.00001
3.00001
3.00001
3.00001
3
3
2.99998
2.99995
2.99985
2.99968
2.99915
2.9981
3.00001
3.00001
3.00001
3.00001
3.00001
3.00001
3.00001
3.00001
3.00001
3.00001
3.00001
3.00001
3.00001
3.00001
3.00001
3.00001
3.00001
3.00001
3
2.99999
2.99997
2.99991
2.99976
2.99945
2.99854
3.00001
3.00001
3.00001
3.00001
3.00001
3.00001
3.00001
3.00001
3.00001
3.00001
3.00001
3.00001
3.00001
3.00001
3.00001
3.00001
3.00001
3.00001
3
2.99999
2.99997
2.99993
2.99981
2.99952
2.99882
3.00001
3.00001
3.00001
3.00001
3.00001
3.00001
3.00001
3.00001
3.00001
3.00001
3.00001
3.00001
3.00001
3.00001
3.00001
3.00001
3.00001
3.00001
3
3
2.99998
2.99993
2.99982
2.99955
2.99886
1.11816
1.32322
1.38837
1.35252
1.28168
1.19563
1.11533
1.07497
1.06807
1.07059
1.0731
1.07338
1.07149
1.06819
1.06385
1.06021
1.05856
1.05778
1.05713
1.05623
1.05478
1.05206
1.04669
1.03546
1.01153
0.960252
0.851019
0.627514
0.317553
0.123779
0.106464
0.179659
0.270914
0.342394
0.380241
0.38924
0.374703
0.349014
0.309257
0.253794
0.193791
0.134053
0.078913
0.0397795
0.0506947
0.0891612
0.129981
0.167556
0.201459
0.231911
0.262418
0.292853
0.321844
0.348864
0.375143
0.399983
0.424536
0.447888
0.471154
0.493355
0.515597
0.536882
0.558295
0.57879
0.599487
0.619264
0.639308
0.658453
0.67792
0.696536
0.715513
0.733686
0.752245
0.770034
0.78822
0.805653
0.82349
0.840564
0.858074
0.874756
0.891949
0.908213
0.925086
0.940911
0.957473
0.972853
0.989123
1.00407
1.02009
1.03463
1.05037
1.06452
1.07995
1.09371
1.10859
1.12178
1.1356
1.14713
1.15729
1.16366
1.13325
1.25213
1.31911
1.36444
1.41046
1.44658
1.45679
1.45252
1.43664
1.41373
1.39608
1.39043
1.3905
1.3919
1.39259
1.39239
1.39162
1.38995
1.38796
1.3865
1.38531
1.38338
1.37952
1.37098
1.35188
1.30957
1.21807
1.0236
0.715445
0.474191
0.356048
0.27442
0.19857
0.121706
0.0577989
0.0517904
0.0872221
0.0754381
0.061628
0.0794256
0.118059
0.159929
0.202144
0.240536
0.27595
0.309694
0.343359
0.374747
0.40473
0.431384
0.457938
0.484473
0.510979
0.535324
0.559247
0.581817
0.604436
0.625957
0.647597
0.66827
0.689071
0.708992
0.729054
0.748299
0.767716
0.786369
0.805228
0.823363
0.84175
0.859418
0.877413
0.894639
0.912315
0.929112
0.946532
0.962912
0.980111
0.99608
1.01306
1.02862
1.04537
1.06052
1.07701
1.09179
1.10797
1.12246
1.13826
1.15252
1.16796
1.182
1.19714
1.21099
1.22586
1.23949
1.25401
1.26716
1.28077
1.29241
1.30265
1.3092
1.13389
1.24212
1.33994
1.43341
1.51985
1.58823
1.62168
1.62503
1.62021
1.60588
1.58623
1.57033
1.56107
1.55794
1.55791
1.55829
1.5585
1.5584
1.55806
1.55719
1.5561
1.55443
1.55144
1.54517
1.5316
1.5017
1.43662
1.29501
1.03902
0.766708
0.639777
0.56204
0.486087
0.40924
0.335016
0.274383
0.244171
0.248637
0.286155
0.327618
0.366304
0.399371
0.429967
0.457454
0.483665
0.508426
0.533529
0.557498
0.581321
0.602839
0.624093
0.645436
0.66817
0.689345
0.710324
0.730057
0.750146
0.769298
0.78889
0.807537
0.82663
0.84473
0.863345
0.880901
0.899076
0.916112
0.93389
0.950441
0.967896
0.984039
1.00124
1.01704
1.03398
1.04948
1.06607
1.08132
1.09753
1.11256
1.1284
1.14324
1.15877
1.17338
1.18864
1.20297
1.21801
1.23204
1.24686
1.26067
1.27534
1.28892
1.30337
1.31672
1.33086
1.34399
1.3577
1.37047
1.38337
1.39491
1.40486
1.4115
1.14259
1.25036
1.34998
1.44133
1.52264
1.5904
1.64324
1.6818
1.70285
1.70838
1.70665
1.69921
1.68739
1.67601
1.66926
1.66682
1.66721
1.66794
1.66916
1.66964
1.66949
1.66882
1.66703
1.66297
1.65407
1.63442
1.5913
1.49817
1.30026
1.0258
0.865901
0.77542
0.700148
0.629368
0.556704
0.497265
0.471022
0.481759
0.514256
0.55164
0.584952
0.608821
0.627139
0.643163
0.659482
0.675416
0.692701
0.709771
0.728029
0.744965
0.762036
0.77862
0.797413
0.815854
0.834577
0.851904
0.87
0.887071
0.905105
0.922014
0.939832
0.956382
0.973833
0.989998
1.00711
1.02301
1.03984
1.05552
1.07202
1.08742
1.10355
1.11866
1.13447
1.14932
1.16484
1.17943
1.19467
1.20901
1.22403
1.23812
1.25297
1.26678
1.28142
1.2949
1.30937
1.32264
1.33692
1.34993
1.36394
1.37672
1.39052
1.40309
1.4167
1.42897
1.44236
1.45412
1.46692
1.47743
1.48758
1.49321
1.14448
1.24951
1.34553
1.43324
1.51309
1.58475
1.64777
1.70121
1.74278
1.77015
1.78073
1.78091
1.77863
1.77195
1.76226
1.75439
1.74877
1.74637
1.74563
1.74581
1.74587
1.74565
1.74479
1.7425
1.73706
1.72473
1.69724
1.63754
1.50261
1.2827
1.05026
0.933321
0.862896
0.78644
0.707068
0.648096
0.628722
0.641942
0.676839
0.716857
0.749919
0.773076
0.785933
0.793467
0.801241
0.810173
0.821217
0.832886
0.846563
0.860096
0.874485
0.888143
0.903895
0.920091
0.937369
0.953335
0.969935
0.985628
1.00215
1.01785
1.03434
1.04995
1.06631
1.08164
1.09769
1.11259
1.12824
1.14276
1.15814
1.17238
1.18756
1.20161
1.21661
1.23048
1.24524
1.25887
1.2733
1.28658
1.30068
1.31363
1.32754
1.34033
1.35423
1.3669
1.3807
1.3931
1.40672
1.41884
1.43224
1.44406
1.45719
1.46875
1.48161
1.49295
1.50552
1.51658
1.52861
1.53881
1.5486
1.55431
1.14187
1.24129
1.3332
1.41782
1.49558
1.56677
1.63079
1.68733
1.73526
1.77456
1.80467
1.82417
1.83187
1.83213
1.83037
1.82515
1.81712
1.81
1.80448
1.80225
1.80167
1.80198
1.80208
1.80153
1.79937
1.79325
1.77803
1.74272
1.66483
1.49801
1.24876
1.07809
0.978175
0.885594
0.79749
0.738882
0.727683
0.745902
0.785334
0.831804
0.868338
0.891021
0.905676
0.912246
0.914929
0.91853
0.924699
0.932613
0.943344
0.954614
0.967323
0.979293
0.992894
1.0073
1.02342
1.03852
1.05395
1.0686
1.08392
1.09857
1.11374
1.12809
1.14296
1.15703
1.17176
1.18564
1.20021
1.21377
1.22803
1.24119
1.25517
1.26805
1.28191
1.29464
1.30839
1.32089
1.33447
1.34666
1.36008
1.37209
1.38542
1.39722
1.41036
1.42196
1.4349
1.44633
1.45906
1.47037
1.4829
1.49414
1.50648
1.5176
1.52975
1.54068
1.55263
1.56322
1.57476
1.58449
1.59408
1.59947
1.13817
1.23059
1.31767
1.39889
1.47419
1.54394
1.60791
1.66624
1.71845
1.76462
1.80349
1.83506
1.85787
1.87126
1.87573
1.87556
1.8737
1.86899
1.86274
1.85759
1.85395
1.85199
1.851
1.8502
1.84848
1.84457
1.83552
1.81468
1.76784
1.66528
1.46098
1.21547
1.06765
0.942376
0.832924
0.783117
0.781293
0.804918
0.853145
0.907224
0.947905
0.973305
0.989113
0.999895
1.00729
1.01092
1.01428
1.01937
1.02752
1.03699
1.04849
1.05954
1.07157
1.0839
1.09824
1.1124
1.12676
1.14
1.15366
1.16659
1.18026
1.19319
1.20682
1.21948
1.23283
1.24513
1.25829
1.27045
1.28363
1.29574
1.30884
1.32071
1.33353
1.34506
1.35764
1.36898
1.38156
1.39297
1.40565
1.41696
1.42956
1.44068
1.45309
1.46398
1.47618
1.48687
1.49886
1.50942
1.52124
1.53173
1.5434
1.55382
1.56535
1.57568
1.58705
1.5972
1.60824
1.61772
1.6271
1.63248
1.13591
1.2207
1.30249
1.37985
1.45237
1.52012
1.58306
1.64125
1.69449
1.74268
1.78533
1.82242
1.85317
1.87773
1.89493
1.90495
1.90838
1.90815
1.90643
1.90221
1.89652
1.89148
1.88764
1.8856
1.88438
1.88212
1.87693
1.86477
1.83664
1.77345
1.63689
1.3928
1.14777
0.95762
0.820593
0.786186
0.795578
0.834689
0.892414
0.949191
0.99438
1.02775
1.05063
1.06683
1.08094
1.09159
1.09751
1.1016
1.10724
1.11412
1.12332
1.13253
1.14265
1.15217
1.16357
1.17528
1.18818
1.2001
1.21256
1.22394
1.23594
1.24693
1.2588
1.2698
1.28188
1.29306
1.3053
1.31641
1.32852
1.33936
1.35127
1.36198
1.37389
1.38463
1.39666
1.40747
1.41952
1.43014
1.44204
1.45251
1.46428
1.47466
1.4863
1.49659
1.5081
1.51831
1.52971
1.53988
1.55119
1.56134
1.57256
1.58268
1.5938
1.60382
1.61483
1.62466
1.6354
1.64459
1.65386
1.65904
1.13568
1.2126
1.28863
1.36182
1.43117
1.49661
1.55788
1.61521
1.66829
1.71738
1.76202
1.80244
1.838
1.8688
1.89412
1.91407
1.92743
1.93476
1.93699
1.9367
1.93523
1.93182
1.92765
1.92394
1.9206
1.91756
1.91313
1.90398
1.88426
1.84117
1.74825
1.5605
1.24888
0.940601
0.774486
0.761351
0.783261
0.837442
0.906579
0.970537
1.02451
1.06866
1.10342
1.12917
1.14876
1.16439
1.17569
1.18217
1.18527
1.18824
1.19277
1.19853
1.20607
1.21306
1.22106
1.22929
1.23951
1.24926
1.26013
1.27008
1.28109
1.29106
1.30209
1.312
1.323
1.33286
1.34388
1.35377
1.3649
1.37489
1.38614
1.3962
1.40751
1.41763
1.42896
1.439
1.45025
1.46026
1.47149
1.48152
1.49277
1.5028
1.51401
1.524
1.53513
1.54505
1.55609
1.56598
1.57697
1.58684
1.59778
1.60764
1.61851
1.62831
1.63907
1.64871
1.65923
1.66828
1.67747
1.68262
1.13809
1.20716
1.2771
1.34566
1.41158
1.47434
1.53367
1.58958
1.64193
1.69085
1.73614
1.77792
1.81586
1.85
1.87989
1.90543
1.92617
1.94251
1.95332
1.95921
1.96091
1.96057
1.95912
1.95576
1.95118
1.94622
1.94091
1.93259
1.91551
1.87926
1.80192
1.6426
1.32893
0.939024
0.740747
0.740233
0.77643
0.846294
0.930034
1.00394
1.06568
1.11645
1.15846
1.19066
1.21412
1.23041
1.24227
1.25036
1.25471
1.25559
1.25539
1.2567
1.25977
1.26415
1.26971
1.2751
1.28249
1.29041
1.30006
1.30882
1.31858
1.32719
1.33696
1.34572
1.35583
1.36491
1.37533
1.38466
1.39528
1.40479
1.41553
1.42518
1.43604
1.44572
1.45657
1.46623
1.47709
1.48676
1.49763
1.50735
1.51824
1.52803
1.53893
1.54873
1.55962
1.56937
1.58022
1.58992
1.60071
1.61037
1.62107
1.63069
1.64132
1.65086
1.66142
1.67082
1.68118
1.69007
1.6992
1.70433
1.14335
1.20502
1.26865
1.33219
1.39416
1.45398
1.51096
1.56524
1.6164
1.66475
1.70994
1.75227
1.79138
1.82749
1.86022
1.88964
1.91531
1.93712
1.95469
1.96833
1.97716
1.98165
1.9825
1.9819
1.98001
1.97586
1.96908
1.95899
1.94057
1.90353
1.82816
1.68072
1.407
1.0499
0.82503
0.817919
0.857519
0.918413
0.991374
1.05843
1.11544
1.16239
1.20126
1.23337
1.25818
1.27656
1.28904
1.29894
1.30467
1.30851
1.30913
1.30831
1.30769
1.30901
1.31197
1.31576
1.32044
1.32579
1.33351
1.34136
1.35066
1.35896
1.36849
1.3769
1.38654
1.39505
1.40487
1.41363
1.42375
1.4328
1.44316
1.45244
1.46283
1.47215
1.48256
1.49194
1.50241
1.51185
1.52239
1.53189
1.54246
1.55199
1.56258
1.57212
1.58269
1.59225
1.60279
1.61231
1.62283
1.63227
1.64276
1.6521
1.66255
1.67181
1.68219
1.69135
1.70155
1.71026
1.71933
1.72439
1.15156
1.20631
1.26368
1.32197
1.3796
1.43595
1.49028
1.5424
1.59215
1.63933
1.68413
1.72624
1.76596
1.8029
1.83737
1.86887
1.89767
1.92313
1.94554
1.96401
1.9791
1.99006
1.99696
1.99889
1.99811
1.99543
1.98922
1.97642
1.95165
1.9026
1.80799
1.63456
1.41231
1.19141
0.994791
0.925142
0.935367
0.964601
1.01073
1.06952
1.12519
1.17276
1.21368
1.24869
1.27798
1.3015
1.31925
1.33239
1.34213
1.34885
1.35306
1.35472
1.35459
1.35368
1.35394
1.35577
1.35887
1.36247
1.36754
1.37364
1.38202
1.38979
1.39892
1.40693
1.41613
1.42422
1.43358
1.44191
1.45154
1.46024
1.47015
1.479
1.48899
1.49791
1.50795
1.51697
1.52712
1.5363
1.54654
1.55581
1.5661
1.57537
1.5857
1.59494
1.6053
1.61451
1.62484
1.63403
1.64426
1.65345
1.6636
1.67276
1.68293
1.69202
1.70225
1.71122
1.72137
1.7299
1.73895
1.74392
1.16208
1.21068
1.2621
1.3152
1.3685
1.42111
1.47261
1.52236
1.57036
1.61627
1.66012
1.70189
1.74139
1.77885
1.81388
1.84688
1.87717
1.90531
1.93039
1.95299
1.97218
1.98813
2.00038
2.00689
2.00705
2.00453
1.99725
1.98039
1.94462
1.87229
1.7327
1.54372
1.3943
1.29376
1.17312
1.05934
1.0106
1.01328
1.03603
1.07263
1.12197
1.1697
1.21402
1.2532
1.28718
1.31547
1.339
1.35752
1.37122
1.38197
1.39028
1.39473
1.39789
1.39858
1.39818
1.39758
1.39856
1.40079
1.40424
1.40804
1.41372
1.4202
1.42877
1.43651
1.44552
1.45331
1.46231
1.47021
1.47948
1.48774
1.4972
1.50565
1.51524
1.5238
1.53352
1.54221
1.55204
1.56087
1.57081
1.57975
1.58975
1.59872
1.60876
1.61771
1.62777
1.6367
1.64676
1.65568
1.66574
1.67466
1.68473
1.69367
1.70375
1.71266
1.72271
1.73153
1.74144
1.74979
1.75869
1.76347
1.17393
1.21698
1.26313
1.31111
1.36027
1.40927
1.45767
1.50509
1.55097
1.5955
1.63813
1.6792
1.71823
1.75567
1.79086
1.82455
1.85569
1.88536
1.91214
1.9373
1.95919
1.97875
1.99455
2.00453
2.00523
2.00187
1.99143
1.96628
1.91177
1.80155
1.62268
1.46978
1.3941
1.35161
1.30418
1.22946
1.14715
1.09674
1.08843
1.10435
1.12979
1.16669
1.20803
1.24973
1.28754
1.32098
1.34965
1.37378
1.39342
1.40861
1.42041
1.42953
1.43603
1.43935
1.44126
1.44148
1.44092
1.44096
1.44246
1.44502
1.44833
1.45246
1.45897
1.46593
1.47462
1.48226
1.49109
1.4988
1.50771
1.51554
1.52455
1.53255
1.54173
1.5499
1.55927
1.5676
1.57712
1.58557
1.59519
1.60375
1.61348
1.62212
1.63195
1.64062
1.65053
1.65925
1.66917
1.67791
1.68778
1.69649
1.70631
1.71494
1.72474
1.73329
1.74307
1.75154
1.76123
1.76939
1.77815
1.78303
1.18682
1.22511
1.26654
1.31032
1.3551
1.40092
1.44617
1.49108
1.53493
1.57766
1.61895
1.65903
1.69712
1.73434
1.76905
1.80308
1.83435
1.86488
1.89261
1.91912
1.94298
1.96425
1.98267
1.99243
1.99209
1.98637
1.96956
1.92902
1.84111
1.68362
1.52395
1.43624
1.40349
1.39317
1.38088
1.35336
1.30469
1.24115
1.18489
1.16187
1.16618
1.18236
1.20888
1.24523
1.28215
1.31929
1.35251
1.382
1.40693
1.42772
1.44448
1.45715
1.46782
1.47538
1.47972
1.48261
1.48356
1.48348
1.48289
1.48374
1.48571
1.48836
1.49196
1.49663
1.50371
1.51083
1.51956
1.52706
1.5356
1.54296
1.55153
1.5591
1.56795
1.57575
1.58483
1.59279
1.60202
1.61016
1.61953
1.62782
1.63731
1.64567
1.65525
1.66363
1.67323
1.68164
1.69125
1.69967
1.70927
1.71768
1.72726
1.73566
1.74526
1.75369
1.76333
1.77174
1.78129
1.78936
1.79799
1.80277
1.20084
1.23553
1.27264
1.31233
1.35364
1.3955
1.4383
1.48032
1.52205
1.56311
1.60259
1.64177
1.67868
1.71521
1.74953
1.78303
1.8147
1.84486
1.87369
1.90024
1.92553
1.94725
1.96573
1.97232
1.96902
1.958
1.92876
1.86134
1.72647
1.56283
1.46243
1.42768
1.42111
1.42486
1.42957
1.42775
1.41405
1.38341
1.33367
1.27794
1.23921
1.22737
1.23795
1.25501
1.28157
1.31578
1.34935
1.38266
1.41228
1.43831
1.46033
1.47844
1.49298
1.5042
1.51334
1.51974
1.52271
1.52463
1.52514
1.52495
1.52468
1.52592
1.52808
1.53065
1.53452
1.53983
1.54763
1.55474
1.5631
1.57032
1.57867
1.58588
1.59433
1.6017
1.61039
1.61802
1.62692
1.63478
1.64383
1.65182
1.66096
1.66899
1.67818
1.68624
1.69549
1.70359
1.71288
1.72104
1.73038
1.73863
1.74799
1.75626
1.76564
1.77387
1.78327
1.79147
1.80084
1.80875
1.8173
1.82203
1.21596
1.24863
1.28211
1.31772
1.3553
1.39419
1.43317
1.47349
1.51208
1.5517
1.58931
1.62689
1.66312
1.69807
1.73246
1.76457
1.79673
1.82603
1.85543
1.88173
1.90727
1.92868
1.9431
1.94395
1.93657
1.91567
1.8643
1.75348
1.58937
1.47601
1.43582
1.43087
1.43881
1.45074
1.46415
1.47497
1.47755
1.47259
1.45447
1.41949
1.372
1.32541
1.2994
1.29454
1.30593
1.32365
1.34991
1.3804
1.41107
1.44112
1.46785
1.49117
1.51116
1.52739
1.54002
1.55029
1.55756
1.56238
1.5647
1.56585
1.56598
1.56555
1.56615
1.56754
1.56964
1.57242
1.57707
1.5828
1.59068
1.59778
1.60599
1.61298
1.62112
1.62814
1.63638
1.6436
1.65201
1.65946
1.66803
1.67567
1.68443
1.69219
1.7011
1.70892
1.71793
1.72581
1.73485
1.74278
1.75178
1.75976
1.7688
1.77685
1.78601
1.7941
1.8033
1.81131
1.82045
1.82809
1.83646
1.84095
1.23208
1.2619
1.29343
1.32571
1.35988
1.39565
1.43177
1.46888
1.5061
1.54249
1.5795
1.61452
1.65016
1.68366
1.71712
1.74902
1.77975
1.80979
1.83763
1.8648
1.88831
1.90806
1.91377
1.90857
1.89287
1.85393
1.76369
1.60696
1.48073
1.43227
1.42712
1.43725
1.45215
1.47143
1.49145
1.50776
1.51876
1.52482
1.525
1.51654
1.49572
1.46141
1.41933
1.38195
1.36289
1.36115
1.37198
1.38882
1.41336
1.44118
1.4689
1.49619
1.52092
1.54207
1.56005
1.57444
1.58527
1.5945
1.6008
1.604
1.60601
1.60671
1.60665
1.60617
1.60707
1.60863
1.61059
1.6136
1.61891
1.62492
1.63262
1.63947
1.64752
1.65441
1.66238
1.66924
1.67724
1.68426
1.69246
1.69969
1.70811
1.71552
1.72411
1.73163
1.74032
1.74798
1.75679
1.7646
1.77352
1.78134
1.79026
1.798
1.80689
1.81458
1.82349
1.83115
1.84006
1.84747
1.85568
1.86016
1.24619
1.27667
1.30577
1.33624
1.36669
1.39976
1.43319
1.4674
1.50212
1.53691
1.57114
1.60565
1.63861
1.67208
1.70344
1.73524
1.76489
1.79427
1.82178
1.84715
1.86954
1.88013
1.87755
1.86553
1.83392
1.75947
1.61483
1.47929
1.41998
1.41293
1.42449
1.44195
1.46517
1.49002
1.5121
1.53032
1.54619
1.55861
1.56777
1.57215
1.57165
1.56237
1.54213
1.51152
1.47511
1.44366
1.4274
1.42572
1.43539
1.45035
1.47264
1.4983
1.52356
1.54835
1.57136
1.59091
1.60706
1.61992
1.62979
1.63769
1.64296
1.64517
1.64621
1.64644
1.64612
1.64566
1.64644
1.64782
1.65005
1.65369
1.65974
1.66592
1.67369
1.68037
1.6882
1.69485
1.70262
1.7093
1.71714
1.72394
1.73198
1.73898
1.74727
1.75449
1.76292
1.77023
1.77868
1.78605
1.79459
1.80207
1.81073
1.81831
1.82708
1.83469
1.84354
1.85111
1.85993
1.86721
1.8753
1.87966
1.26453
1.29084
1.31891
1.34715
1.37613
1.40574
1.43708
1.46871
1.50095
1.53357
1.56621
1.59839
1.63063
1.66172
1.69304
1.72248
1.75244
1.77975
1.80685
1.82966
1.8451
1.84572
1.83565
1.80881
1.74797
1.61704
1.47268
1.4025
1.39273
1.40481
1.42398
1.44997
1.47885
1.505
1.52787
1.54812
1.56567
1.58148
1.59589
1.60809
1.61729
1.6215
1.62107
1.61243
1.59348
1.5658
1.53375
1.50592
1.49073
1.48799
1.49665
1.50953
1.52906
1.55285
1.57624
1.59907
1.62036
1.63819
1.65258
1.66388
1.67313
1.67945
1.68315
1.68445
1.68505
1.68489
1.68407
1.68443
1.6854
1.68689
1.68965
1.69389
1.70049
1.70664
1.71421
1.72066
1.72817
1.73453
1.74196
1.74829
1.75581
1.76224
1.76996
1.77666
1.7847
1.79172
1.80002
1.80728
1.81567
1.82309
1.83153
1.83902
1.84753
1.855
1.86357
1.87097
1.87955
1.8866
1.89453
1.89868
1.28273
1.30384
1.33171
1.35909
1.38605
1.41399
1.44236
1.47218
1.50219
1.53261
1.56327
1.59405
1.62421
1.65452
1.68382
1.7131
1.74063
1.76781
1.79146
1.80992
1.8132
1.80485
1.7824
1.72968
1.61522
1.4634
1.38063
1.36748
1.3798
1.4002
1.42847
1.46028
1.48916
1.51505
1.53869
1.56073
1.58113
1.59981
1.61675
1.63268
1.64747
1.6596
1.66866
1.67267
1.67255
1.66515
1.64827
1.62348
1.59529
1.5697
1.5542
1.54899
1.55624
1.56648
1.58227
1.60391
1.62616
1.6475
1.66697
1.6834
1.69652
1.70691
1.71492
1.72001
1.72216
1.72305
1.72328
1.7229
1.72228
1.72287
1.72392
1.72571
1.72908
1.73356
1.73999
1.74583
1.75289
1.75896
1.76613
1.77232
1.77962
1.78593
1.79347
1.79995
1.80777
1.81449
1.82254
1.82948
1.83761
1.84472
1.85287
1.86006
1.86821
1.87542
1.88356
1.89069
1.89885
1.90564
1.91329
1.91732
1.30741
1.321
1.34418
1.37155
1.3976
1.42337
1.45009
1.47712
1.50543
1.53385
1.56255
1.59143
1.62031
1.64871
1.67697
1.70437
1.73119
1.75489
1.77534
1.78093
1.77375
1.75457
1.70795
1.61125
1.45425
1.35822
1.34033
1.35188
1.37275
1.40289
1.43676
1.46798
1.49594
1.52199
1.54641
1.56991
1.5921
1.61351
1.63333
1.6517
1.66867
1.68492
1.69964
1.71191
1.72097
1.72547
1.7258
1.71998
1.70561
1.68311
1.65779
1.63326
1.61615
1.60823
1.61311
1.62103
1.63367
1.65284
1.67422
1.69431
1.7119
1.7271
1.73951
1.74876
1.75526
1.75876
1.75995
1.76035
1.76019
1.75954
1.75928
1.75988
1.76091
1.76294
1.76699
1.77184
1.77845
1.78427
1.79122
1.79712
1.80406
1.80997
1.8171
1.82319
1.8306
1.83694
1.84458
1.85119
1.859
1.8658
1.87369
1.8806
1.88852
1.89548
1.90344
1.91034
1.91834
1.92491
1.93239
1.93634
1.33282
1.33931
1.35803
1.38325
1.40866
1.43335
1.45838
1.48397
1.51006
1.53689
1.56383
1.59099
1.61808
1.64546
1.67178
1.69779
1.72164
1.74227
1.75002
1.744
1.72719
1.68635
1.60064
1.44133
1.33256
1.31029
1.32167
1.34313
1.37479
1.41051
1.4435
1.4733
1.50106
1.52734
1.55275
1.5772
1.60096
1.62372
1.64573
1.6666
1.68622
1.70429
1.72167
1.73798
1.75255
1.76478
1.77399
1.77915
1.77994
1.77574
1.76384
1.74329
1.71981
1.6957
1.67651
1.66642
1.66681
1.67328
1.68356
1.69972
1.71931
1.73838
1.75584
1.77027
1.78125
1.78961
1.79456
1.79717
1.79769
1.79774
1.79681
1.79614
1.7958
1.79636
1.79756
1.79996
1.8044
1.80926
1.81566
1.82123
1.82797
1.83362
1.8405
1.84631
1.85342
1.85944
1.86673
1.87294
1.88039
1.88683
1.89435
1.90095
1.9085
1.91515
1.92279
1.92945
1.93716
1.94358
1.95082
1.95471
1.3705
1.36514
1.37416
1.39407
1.41953
1.44387
1.46759
1.49145
1.51594
1.54076
1.56628
1.59196
1.61756
1.64306
1.66826
1.6914
1.71199
1.72114
1.71654
1.70046
1.66231
1.58131
1.43123
1.31386
1.2853
1.29408
1.31487
1.34693
1.38381
1.41787
1.44881
1.47766
1.5053
1.53208
1.55813
1.58335
1.60797
1.63193
1.65537
1.67796
1.69979
1.72023
1.73939
1.75716
1.77453
1.79071
1.80553
1.81785
1.8273
1.83279
1.83391
1.83115
1.8214
1.80295
1.78084
1.75718
1.73642
1.72369
1.71894
1.72433
1.73204
1.7445
1.76121
1.77954
1.79652
1.81048
1.82111
1.82847
1.83252
1.83389
1.83385
1.83335
1.83187
1.83098
1.83095
1.83151
1.83295
1.83581
1.84068
1.84544
1.85179
1.85715
1.86377
1.86932
1.87615
1.88192
1.8889
1.89485
1.90189
1.90805
1.91518
1.92149
1.92872
1.93507
1.9424
1.94875
1.95619
1.96233
1.96938
1.97308
1.41602
1.39223
1.39378
1.40758
1.42943
1.45404
1.47727
1.49996
1.52277
1.5461
1.56974
1.59391
1.61807
1.64193
1.66438
1.68424
1.69424
1.69056
1.67479
1.63805
1.55941
1.41769
1.2925
1.25833
1.26547
1.28595
1.31881
1.35686
1.39185
1.4236
1.45334
1.48194
1.50976
1.53682
1.56327
1.58919
1.61467
1.63961
1.66402
1.68768
1.71058
1.73253
1.7535
1.77332
1.79199
1.81009
1.82738
1.84356
1.85817
1.87043
1.87967
1.88559
1.88704