/*--------------------------------*- C++ -*----------------------------------*\
  =========                 |
  \\      /  F ield         | OpenFOAM: The Open Source CFD Toolbox
   \\    /   O peration     | Website:  https://openfoam.org
    \\  /    A nd           | Version:  13
     \\/     M anipulation  |
\*---------------------------------------------------------------------------*/
FoamFile
{
    format      ascii;
    class       volScalarField;
    location    "3";
    object      p;
}
// * * * * * * * * * * * * * * * * * * * * * * * * * * * * * * * * * * * * * //

dimensions      [1 -1 -2 0 0 0 0];

internalField   nonuniform List<scalar> 
5250
(
1.00001
1.00003
1.00009
1.0002
1.00056
1.00126
1.00342
1.00776
1.0206
1.04843
1.12514
1.31711
1.86215
3.45048
8.07849
11.6432
11.2638
11.0293
11.1116
11.3366
11.5599
11.6942
11.7939
11.8721
11.9291
1.00001
1.00003
1.00008
1.00021
1.00053
1.00132
1.00318
1.00808
1.01933
1.04921
1.12099
1.31408
1.84469
3.4073
7.96317
11.6566
11.2636
11.0197
11.103
11.3289
11.552
11.6868
11.788
11.8674
11.9258
1
1.00003
1.00008
1.00021
1.00049
1.00132
1.00299
1.00799
1.01838
1.04806
1.11607
1.30347
1.81227
3.31103
7.70513
11.6839
11.2595
10.9898
11.0716
11.2952
11.5163
11.6495
11.7503
11.8298
11.8896
1.00001
1.00003
1.00008
1.00019
1.0005
1.00116
1.00305
1.00713
1.01822
1.0442
1.11167
1.28457
1.76544
3.16682
7.30645
11.7249
11.2543
10.9404
11.0176
11.2348
11.4529
11.5828
11.6811
11.7596
11.8219
1
1.00002
1.00007
1.00017
1.00047
1.00107
1.00287
1.0065
1.01734
1.04027
1.10472
1.26169
1.70534
2.98177
6.77958
11.7656
11.2482
10.8742
10.9435
11.1492
11.3638
11.489
11.5831
11.6596
11.7255
1
1.00002
1.00006
1.00017
1.00039
1.00106
1.00241
1.00643
1.0148
1.03851
1.09277
1.24005
1.63227
2.77148
6.14736
11.7592
11.232
10.7929
10.8498
11.0365
11.2446
11.3614
11.4466
11.5172
11.5864
1
1.00002
1.00006
1.00014
1.00039
1.00089
1.00237
1.00537
1.01432
1.03309
1.08604
1.21233
1.56521
2.56215
5.51567
11.6296
11.1668
10.6908
10.7342
10.8931
11.0885
11.191
11.26
11.3158
11.383
1
1.00002
1.00005
1.00013
1.00036
1.0008
1.00216
1.00488
1.01297
1.03017
1.07781
1.19252
1.50885
2.40361
5.06189
11.2096
10.9812
10.5734
10.5972
10.7143
10.8865
10.966
11.0061
11.0281
11.0735
1
1.00002
1.00005
1.00012
1.00031
1.00075
1.0019
1.0045
1.01159
1.02743
1.07024
1.1737
1.45714
2.25465
4.61632
10.5063
10.6862
10.4975
10.4496
10.5093
10.6354
10.6771
10.6668
10.6158
10.5711
1
1.00002
1.00004
1.00011
1.00026
1.00071
1.0016
1.00429
1.00971
1.02587
1.06064
1.15761
1.40281
2.10866
4.16907
9.62712
10.5236
10.3968
10.2697
10.2903
10.3419
10.3251
10.2354
10.0155
9.683
1
1.00001
1.00004
1.0001
1.00023
1.00061
1.00143
1.00368
1.00883
1.02206
1.05442
1.13652
1.35234
1.95614
3.72047
8.58849
10.411
10.2983
10.084
10.0507
10.0253
9.93092
9.67378
9.07451
7.52305
1
1.00001
1.00003
1.00008
1.00021
1.0005
1.00131
1.00298
1.00792
1.01821
1.04774
1.11473
1.30027
1.79967
3.2604
7.39186
10.3272
10.2005
9.91792
9.80396
9.71414
9.519
9.1041
8.2758
6.63302
1
1.00001
1.00003
1.00007
1.00017
1.00043
1.00104
1.00263
1.0062
1.01597
1.03793
1.09689
1.24276
1.64727
2.79494
6.08857
10.2205
10.0957
9.77708
9.5636
9.40676
9.12877
8.61272
7.75433
6.41525
1
1.00001
1.00002
1.00005
1.00015
1.00033
1.00088
1.00202
1.00526
1.01233
1.03129
1.07611
1.19305
1.5006
2.36352
4.79873
9.91146
9.89645
9.66573
9.34345
9.11335
8.78824
8.25446
7.45816
6.38575
1
1.00001
1.00002
1.00004
1.00012
1.00027
1.00072
1.00164
1.00429
1.01005
1.0255
1.06193
1.15652
1.40276
2.09311
4.07182
9.02454
9.62176
9.46809
9.14032
8.85229
8.50363
7.99149
7.27822
6.38349
1
1
1.00001
1.00004
1.0001
1.00022
1.00058
1.00131
1.00349
1.008
1.02078
1.04944
1.12614
1.31984
1.86161
3.40613
7.5481
9.34431
9.25105
8.98535
8.63619
8.269
7.78691
7.14999
6.37909
1
1
1.00001
1.00003
1.00007
1.00018
1.00042
1.00111
1.00254
1.00672
1.01537
1.04027
1.09587
1.24909
1.65128
2.80188
5.98745
9.15391
9.10737
8.88244
8.47045
8.07841
7.62101
7.04813
6.37166
1
1
1.00001
1.00002
1.00006
1.00013
1.00035
1.00078
1.00207
1.00469
1.01233
1.02861
1.07321
1.17945
1.46716
2.24766
4.37426
8.73761
8.97036
8.7867
8.37307
7.93269
7.48579
6.96424
6.36271
1
1
1.00001
1.00002
1.00004
1.0001
1.00025
1.00061
1.00154
1.00363
1.0093
1.02177
1.05585
1.13531
1.35144
1.93215
3.57134
7.66875
8.71891
8.59958
8.27668
7.81362
7.37278
6.89239
6.35216
1
1
1
1.00001
1.00003
1.00008
1.0002
1.00045
1.00118
1.00267
1.00706
1.01614
1.04212
1.10032
1.25996
1.67863
2.86146
6.02604
8.44819
8.40654
8.19009
7.73831
7.28467
6.83104
6.34046
1
1
1
1.00001
1.00002
1.00006
1.00013
1.00034
1.00082
1.00197
1.00497
1.01167
1.02979
1.07089
1.18057
1.45898
2.22051
4.22428
7.99046
8.27065
8.11058
7.71895
7.23026
6.78458
6.33132
1
1
1
1.00001
1.00002
1.00004
1.0001
1.00024
1.00058
1.00148
1.00341
1.00888
1.02045
1.05273
1.12662
1.32734
1.85664
3.31749
6.89378
8.04262
7.95224
7.67752
7.20426
6.75595
6.32732
1
1
1
1
1.00001
1.00003
1.00007
1.00017
1.00043
1.00102
1.00248
1.00619
1.01472
1.03712
1.08965
1.22832
1.59006
2.58681
5.2001
7.70613
7.73873
7.59061
7.21834
6.75714
6.33012
1
1
1
1
1.00001
1.00002
1.00005
1.00011
1.0003
1.00068
1.00176
1.00406
1.01034
1.02451
1.06106
1.14992
1.38176
1.99365
3.58258
6.9948
7.60263
7.50129
7.21697
6.77241
6.34205
1
1
1
1
1.00001
1.00001
1.00003
1.00008
1.0002
1.00047
1.00121
1.00275
1.0072
1.01635
1.04266
1.10031
1.25908
1.66373
2.76691
5.53357
7.34965
7.33878
7.19306
6.83064
6.37304
1
1
1
1
1
1.00001
1.00002
1.00005
1.00013
1.00032
1.00077
1.00191
1.00449
1.01134
1.02653
1.06699
1.16206
1.41479
2.06397
3.69856
6.8143
7.23769
7.14043
6.87926
6.43531
1
1
1
1
1
1.00001
1.00001
1.00004
1.00009
1.0002
1.00053
1.0012
1.00315
1.0071
1.01859
1.0427
1.10945
1.26806
1.69899
2.82309
5.58823
7.01606
7.00797
6.86981
6.54169
1
1
1
1
1
1
1.00001
1.00002
1.00005
1.00014
1.00032
1.00084
1.00188
1.00495
1.01114
1.02889
1.06738
1.17108
1.4273
2.10261
3.77947
6.50777
6.89824
6.82003
6.59553
1
1
1
1
1
1
1.00001
1.00002
1.00004
1.00009
1.00021
1.00054
1.00122
1.00315
1.00724
1.01829
1.04346
1.10799
1.26789
1.68676
2.76946
5.35126
6.66608
6.68732
6.57921
1
1
1
1
1
1
1
1.00001
1.00002
1.00006
1.00013
1.00033
1.00077
1.00197
1.00447
1.01158
1.02633
1.06768
1.16034
1.41081
2.0343
3.57122
6.13526
6.5754
6.52296
1
1
1
1
1
1
1
1.00001
1.00001
1.00004
1.00008
1.0002
1.0005
1.00117
1.00297
1.00676
1.01745
1.04011
1.10187
1.24727
1.63443
2.60887
4.94373
6.32334
6.40423
1
1
1
1
1
1
1
1
1.00001
1.00002
1.00005
1.00013
1.00029
1.00075
1.00167
1.00437
1.00975
1.02526
1.05794
1.14653
1.35752
1.89748
3.17283
5.74015
6.28498
1
1
1
1
1
1
1
1
1.00001
1.00001
1.00003
1.00007
1.00019
1.00043
1.00107
1.00258
1.00612
1.01522
1.03574
1.08924
1.21647
1.55035
2.38691
4.42642
5.97275
1
1
1
1
1
1
1
1
1
1.00001
1.00002
1.00004
1.00011
1.00025
1.00066
1.00147
1.0038
1.0085
1.02198
1.05018
1.12704
1.30733
1.77104
2.87847
5.23812
1
1
1
1
1
1
1
1
1
1
1.00001
1.00003
1.00006
1.00016
1.00037
1.00091
1.00217
1.00519
1.01273
1.02994
1.07436
1.17867
1.44956
2.11526
3.71632
1
1
1
1
1
1
1
1
1
1
1.00001
1.00002
1.00004
1.00009
1.00022
1.00052
1.00127
1.00304
1.0072
1.01773
1.04174
1.10305
1.25044
1.62402
2.52742
1
1
1
1
1
1
1
1
1
1
1
1.00001
1.00002
1.00005
1.00012
1.00031
1.0007
1.00171
1.00411
1.00967
1.02381
1.05572
1.13732
1.33177
1.81008
1
1
1
1
1
1
1
1
1
1
1
1.00001
1.00001
1.00003
1.00007
1.00017
1.0004
1.001
1.00227
1.00579
1.01296
1.03337
1.07615
1.19236
1.46599
1
1
1
1
1
1
1
1
1
1
1
1
1.00001
1.00002
1.00004
1.00009
1.00023
1.00055
1.00129
1.00318
1.00729
1.01836
1.04206
1.10518
1.2511
1
1
1
1
1
1
1
1
1
1
1
1
1
1.00001
1.00002
1.00005
1.00012
1.0003
1.0007
1.00175
1.00393
1.00998
1.02241
1.05664
1.13075
1
1
1
1
1
1
1
1
1
1
1
1
1
1
1.00001
1.00003
1.00007
1.00016
1.0004
1.00094
1.00222
1.00545
1.01248
1.03133
1.07207
1
1
1
1
1
1
1
1
1
1
1
1
1
1
1.00001
1.00002
1.00004
1.00009
1.00021
1.00053
1.00117
1.00298
1.0067
1.01683
1.03867
1
1
1
1
1
1
1
1
1
1
1
1
1
1
1
1.00001
1.00002
1.00005
1.00012
1.00026
1.00066
1.0015
1.00367
1.00865
1.02041
1
1
1
1
1
1
1
1
1
1
1
1
1
1
1
1
1.00001
1.00003
1.00006
1.00015
1.00033
1.00084
1.00187
1.00472
1.01069
1
1
1
1
1
1
1
1
1
1
1
1
1
1
1
1
1.00001
1.00001
1.00003
1.00008
1.00018
1.00045
1.00099
1.00252
1.00558
1
1
1
1
1
1
1
1
1
1
1
1
1
1
1
1
1
1.00001
1.00002
1.00004
1.0001
1.00022
1.00056
1.00126
1.00315
1
1
1
1
1
1
1
1
1
1
1
1
1
1
1
1
1
1
1.00001
1.00002
1.00005
1.00013
1.00031
1.00074
1.00178
1
1
1
1
1
1
1
1
1
1
1
1
1
1
1
1
1
1
1.00001
1.00001
1.00004
1.00009
1.00022
1.0005
1.00128
1
1
1
1
1
1
1
1
1
1
1
1
1
1
1
1
1
1
1.00001
1.00001
1.00003
1.00007
1.00017
1.00045
1.00101
1
1
1
1
1
1
1
1
1
1
1
1
1
1
1
1
1
1
1
1.00001
1.00003
1.00006
1.00017
1.00039
1.00104
3.03442
1.53815
1.04232
0.943541
0.970006
1.05228
1.22517
1.36218
1.40443
1.40261
1.3966
1.39278
1.39385
1.39752
1.40549
1.41439
1.41902
1.41975
1.41974
1.41994
1.42084
1.42342
1.42976
1.44429
1.47666
1.54817
1.70616
2.05875
2.81131
3.54529
3.57079
3.59199
3.55277
3.5379
3.53624
3.56237
3.61415
3.69807
3.81902
3.9719
4.12484
4.26063
4.37233
4.4599
4.53356
4.58664
4.61634
4.6319
4.63522
4.63172
4.61995
4.59679
4.56827
4.53678
4.50185
4.4649
4.42536
4.38437
4.34132
4.29712
4.25129
4.20458
4.15662
4.10799
4.05836
4.0082
3.95728
3.90601
3.85431
3.80256
3.75071
3.69907
3.64758
3.59644
3.54557
3.49508
3.44491
3.39513
3.34573
3.29677
3.24827
3.20026
3.15282
3.10593
3.0597
3.01409
2.9692
2.92493
2.88139
2.83842
2.79623
2.75464
2.71384
2.67364
2.63456
2.59656
2.56029
2.52678
2.49792
2.48114
3.73589
2.34447
1.74944
1.49758
1.38014
1.29619
1.27678
1.28486
1.30763
1.35452
1.3999
1.41812
1.41766
1.41578
1.41187
1.41206
1.41305
1.4155
1.41956
1.42246
1.4237
1.42595
1.43091
1.44226
1.46822
1.52721
1.66041
1.95991
2.62956
3.49119
3.61316
3.58863
3.54061
3.52715
3.53997
3.57056
3.60983
3.67164
3.78009
3.94202
4.09447
4.23324
4.34625
4.43762
4.51183
4.5657
4.59786
4.6155
4.62
4.61805
4.60964
4.59007
4.56022
4.52888
4.49494
4.45878
4.41982
4.3791
4.33638
4.29239
4.24686
4.20032
4.15258
4.10405
4.05459
4.00454
3.95381
3.90271
3.85124
3.79966
3.74802
3.69652
3.64519
3.59413
3.54338
3.49293
3.44286
3.39311
3.34381
3.29487
3.24648
3.1985
3.15116
3.10429
3.05815
3.01254
2.96773
2.92347
2.87999
2.837
2.79493
2.75344
2.71277
2.67276
2.6336
2.59538
2.55881
2.52489
2.49508
2.47766
4.56043
3.26523
2.44877
1.931
1.59618
1.39
1.26872
1.25383
1.26127
1.28298
1.32829
1.37139
1.39982
1.41313
1.414
1.41346
1.41219
1.41231
1.41287
1.41417
1.4165
1.41878
1.42302
1.43194
1.45144
1.49478
1.59271
1.80835
2.28165
3.25585
3.58583
3.58459
3.56614
3.55875
3.56739
3.58907
3.62807
3.70371
3.80611
3.9377
4.07638
4.20718
4.3189
4.41018
4.48175
4.5353
4.56963
4.58935
4.59611
4.59517
4.59
4.57632
4.54861
4.51705
4.48357
4.44822
4.41022
4.3702
4.3281
4.28455
4.23948
4.19329
4.1459
4.09763
4.04846
3.99863
3.94821
3.89738
3.84625
3.79495
3.74365
3.69238
3.64131
3.5904
3.53983
3.48948
3.43954
3.38988
3.3407
3.29187
3.2436
3.19574
3.14851
3.10179
3.05581
3.01027
2.96555
2.92142
2.87809
2.83536
2.79331
2.75179
2.71111
2.67104
2.63187
2.59359
2.55678
2.52242
2.49156
2.47269
5.01484
3.84165
2.97287
2.36738
1.96062
1.68707
1.51435
1.40539
1.3415
1.32417
1.32764
1.33935
1.36438
1.39405
1.41478
1.4257
1.42556
1.4246
1.42232
1.41962
1.41978
1.42059
1.42305
1.42874
1.44165
1.47052
1.53553
1.68002
2.00724
2.72945
3.4694
3.59856
3.61981
3.62978
3.65524
3.70852
3.77151
3.82754
3.89095
3.9736
4.06913
4.16567
4.26773
4.35884
4.43296
4.48935
4.52716
4.55024
4.56039
4.56076
4.55837
4.55013
4.53099
4.49972
4.4661
4.43138
4.39453
4.35562
4.31453
4.27178
4.22742
4.18178
4.13494
4.08711
4.03843
3.98903
3.9391
3.88871
3.83809
3.78722
3.73636
3.68545
3.63472
3.58408
3.53375
3.48359
3.43385
3.38437
3.33539
3.28674
3.2387
3.19103
3.14398
3.09745
3.05174
3.00653
2.96203
2.91795
2.87472
2.832
2.7901
2.74868
2.70811
2.66807
2.62898
2.59062
2.55363
2.51874
2.48693
2.46618
5.28918
4.25931
3.42287
2.7904
2.32785
1.99116
1.74621
1.57042
1.44712
1.3698
1.32872
1.32881
1.33258
1.34323
1.3652
1.38666
1.4021
1.41153
1.41424
1.41405
1.41355
1.41376
1.41483
1.41803
1.42596
1.44432
1.48582
1.57964
1.78455
2.22711
3.14181
3.56114
3.68459
3.74712
3.838
3.94411
4.01056
4.04291
4.0604
4.07103
4.09095
4.13516
4.1983
4.2815
4.36274
4.42764
4.47304
4.50205
4.51667
4.52073
4.5195
4.51478
4.5029
4.47833
4.44528
4.41069
4.37463
4.33677
4.29685
4.25512
4.2117
4.16684
4.12073
4.07354
4.0255
3.97669
3.9274
3.87761
3.82762
3.77732
3.72702
3.67657
3.62629
3.57599
3.52601
3.47612
3.42668
3.37743
3.32878
3.28041
3.23267
3.18532
3.1388
3.09254
3.04703
3.00194
2.95765
2.91375
2.87071
2.8281
2.78637
2.74507
2.70464
2.66467
2.62564
2.58726
2.55013
2.51484
2.48229
2.45949
5.47352
4.58002
3.80326
3.17421
2.6829
2.30537
2.01727
1.79986
1.63704
1.51951
1.43496
1.38082
1.35213
1.35169
1.35451
1.36272
1.37978
1.39817
1.41286
1.42209
1.42422
1.42394
1.42323
1.42376
1.42639
1.43481
1.45668
1.50942
1.62993
1.89913
2.48273
3.371
3.69396
3.91477
4.12988
4.30023
4.35604
4.3488
4.31312
4.22662
4.14108
4.13192
4.14679
4.18782
4.2665
4.3403
4.39882
4.4393
4.46268
4.47322
4.47301
4.4708
4.46406
4.44872
4.41901
4.38514
4.34963
4.31264
4.27391
4.23338
4.19115
4.14733
4.10221
4.05591
4.00876
3.96079
3.91234
3.86334
3.81413
3.76454
3.71491
3.66504
3.61529
3.56542
3.51585
3.4663
3.41725
3.36831
3.32007
3.27213
3.22496
3.17803
3.13187
3.08593
3.04073
2.99586
2.95181
2.90813
2.8653
2.82287
2.7813
2.74016
2.69987
2.66004
2.62111
2.58278
2.5456
2.51001
2.47703
2.45239
5.60226
4.82432
4.11429
3.50771
3.00906
2.60804
2.28886
2.03668
1.83768
1.68248
1.56195
1.47396
1.40932
1.37125
1.35337
1.35379
1.35667
1.36392
1.37852
1.39187
1.40207
1.40822
1.4111
1.41235
1.4149
1.42066
1.43411
1.46537
1.53787
1.70156
2.0699
2.86718
3.62055
4.11662
4.55963
4.77864
4.77634
4.73496
4.6149
4.39205
4.22686
4.14442
4.13309
4.1411
4.1701
4.23143
4.29875
4.35503
4.39312
4.4147
4.42148
4.42065
4.41694
4.40742
4.38712
4.35548
4.32061
4.28427
4.24655
4.20726
4.16638
4.1239
4.08008
4.03497
3.98896
3.94204
3.89462
3.84658
3.7983
3.74955
3.7007
3.65149
3.60234
3.55299
3.50395
3.45483
3.40632
3.35807
3.31046
3.26304
3.21633
3.16979
3.12396
3.07834
3.03347
2.98888
2.94511
2.90168
2.8591
2.81691
2.77556
2.73464
2.69455
2.65491
2.61613
2.57791
2.54077
2.50501
2.4718
2.44575
5.69422
5.01007
4.36446
3.7903
3.29895
2.88861
2.55056
2.27452
2.04999
1.86872
1.72289
1.60769
1.51796
1.45149
1.40337
1.37554
1.36194
1.36236
1.36497
1.3714
1.38434
1.39683
1.40701
1.41391
1.41607
1.4195
1.4272
1.4453
1.48781
1.58638
1.80964
2.29767
3.32076
4.27406
5.14727
5.33949
5.29762
5.16041
4.87343
4.57448
4.35203
4.21047
4.13741
4.11838
4.12147
4.13928
4.1809
4.24271
4.29676
4.33489
4.35584
4.36208
4.36084
4.35596
4.34407
4.31968
4.28686
4.2514
4.21461
4.17646
4.13701
4.09607
4.05388
4.01032
3.96577
3.92016
3.87398
3.82706
3.77984
3.73202
3.68404
3.63557
3.58711
3.53835
3.48992
3.44162
3.39385
3.34624
3.29922
3.2523
3.206
3.15986
3.1144
3.06916
3.02466
2.98043
2.937
2.89391
2.85163
2.80974
2.76867
2.728
2.68816
2.64874
2.61016
2.5721
2.53507
2.49924
2.46596
2.43892
5.76125
5.15302
4.56599
4.02808
3.55287
3.14355
2.79643
2.50522
2.2622
2.06053
1.8935
1.75615
1.64394
1.55373
1.48309
1.42995
1.39238
1.37143
1.36229
1.36274
1.36496
1.3702
1.38035
1.38896
1.39693
1.40367
1.41056
1.42463
1.45476
1.52152
1.67122
2.00611
2.73819
4.23695
5.79566
5.89985
5.79859
5.53245
5.1138
4.76446
4.5008
4.312
4.18666
4.11552
4.08948
4.08535
4.0945
4.12107
4.17464
4.22516
4.26344
4.28633
4.29376
4.29251
4.28721
4.27428
4.24796
4.21489
4.1792
4.14198
4.10378
4.06439
4.02401
3.98227
3.93947
3.89545
3.85073
3.80511
3.75908
3.7123
3.66526
3.61759
3.56991
3.522
3.47448
3.42701
3.38002
3.33305
3.28661
3.24022
3.19441
3.14874
3.10372
3.05892
3.01484
2.97103
2.92799
2.88527
2.84335
2.8018
2.76104
2.72067
2.68111
2.64195
2.60361
2.56575
2.5289
2.49309
2.45984
2.4321
5.81112
5.26488
4.72952
4.22789
3.77356
3.37217
3.02339
2.72394
2.46854
2.25195
2.06871
1.91433
1.78471
1.67672
1.58781
1.51576
1.45985
1.41719
1.38693
1.37014
1.36295
1.36341
1.36552
1.37048
1.38043
1.39091
1.40214
1.41502
1.4413
1.49719
1.62078
1.8988
2.53879
3.98753
6.31059
6.37729
6.22594
5.85855
5.37309
4.98146
4.6788
4.44781
4.27733
4.15829
4.08634
4.05608
4.04034
4.04437
4.06092
4.0971
4.14249
4.18131
4.20687
4.21682
4.21593
4.21121
4.19901
4.17372
4.14099
4.10486
4.06749
4.02928
3.99055
3.95072
3.90989
3.86773
3.82472
3.78061
3.7359
3.69022
3.64413
3.59739
3.55075
3.50392
3.4574
3.41075
3.36448
3.31817
3.27233
3.22652
3.18127
3.13614
3.09163
3.04733
3.00371
2.96037
2.91775
2.87546
2.83393
2.79275
2.75235
2.71232
2.67308
2.63422
2.59617
2.55855
2.52194
2.48621
2.45309
2.42484
5.85087
5.35481
4.86401
4.39671
3.96516
3.57602
3.23084
2.92853
2.66576
2.43877
2.24328
2.07547
1.93171
1.80899
1.70476
1.61689
1.54401
1.48445
1.43821
1.40276
1.37832
1.36441
1.3602
1.36092
1.36362
1.36977
1.38211
1.39986
1.42848
1.48678
1.60913
1.87394
2.45302
3.69605
6.20815
6.62408
6.50194
6.18532
5.70651
5.26655
4.90908
4.62777
4.4107
4.24824
4.13207
4.05618
4.01715
3.99179
3.98981
3.99668
4.01619
4.05574
4.09235
4.11882
4.13318
4.13286
4.12945
4.11932
4.0976
4.06546
4.0294
3.99211
3.95452
3.91615
3.87709
3.83685
3.79574
3.75334
3.7101
3.66565
3.62075
3.5753
3.52988
3.48414
3.43857
3.39279
3.3473
3.30173
3.25657
3.21143
3.1668
3.12228
3.07835
3.0346
2.99151
2.94867
2.90654
2.8647
2.82361
2.78284
2.74284
2.70318
2.66429
2.62576
2.58804
2.5507
2.51436
2.47878
2.44586
2.41722
5.88305
5.42839
4.97631
4.54081
4.13241
3.75785
3.41982
3.11853
2.85231
2.61851
2.41406
2.23574
2.08058
1.9458
1.8291
1.72839
1.6422
1.56899
1.50822
1.45835
1.42004
1.3907
1.37134
1.36216
1.36294
1.36647
1.37546
1.39446
1.43255
1.50853
1.66312
1.9807
2.63612
3.60564
5.22543
6.30153
6.38854
6.28437
6.01502
5.58999
5.18377
4.85543
4.59157
4.38562
4.22705
4.10872
4.02579
3.97518
3.94393
3.9266
3.92904
3.94
3.96437
3.99856
4.02571
4.04216
4.04558
4.04339
4.03583
4.01862
3.9882
3.95362
3.91703
3.87936
3.84136
3.80266
3.76334
3.72275
3.68113
3.63832
3.59504
3.55106
3.50692
3.4623
3.41774
3.37289
3.32827
3.28353
3.23915
3.19476
3.15084
3.107
3.06371
3.02058
2.97809
2.9358
2.8942
2.85286
2.81224
2.77193
2.73235
2.6931
2.65461
2.61645
2.57908
2.54206
2.50605
2.47066
2.43799
2.40905
5.91094
5.49083
5.07256
4.66606
4.28005
3.9208
3.59179
3.29405
3.0271
2.7893
2.57844
2.39214
2.22782
2.08327
1.9562
1.84494
1.74768
1.66327
1.5906
1.52865
1.47743
1.43495
1.40439
1.37961
1.37693
1.37963
1.38903
1.41271
1.46462
1.57431
1.79987
2.2591
2.99508
3.58773
4.27114
5.22879
5.95639
6.10441
6.04364
5.85311
5.48687
5.14301
4.83047
4.5749
4.37169
4.21125
4.08644
3.99446
3.93239
3.89367
3.86462
3.85791
3.8621
3.87505
3.90189
3.92751
3.94617
3.95433
3.95322
3.9483
3.93581
3.91053
3.87787
3.84124
3.8038
3.76592
3.7278
3.68868
3.64883
3.60802
3.56662
3.52429
3.48158
3.4382
3.39476
3.35094
3.30729
3.26346
3.21996
3.17641
3.1333
3.09024
3.0477
3.00527
2.96345
2.92179
2.88078
2.83999
2.7999
2.76007
2.72096
2.68215
2.64408
2.60632
2.56934
2.53267
2.49702
2.46187
2.42951
2.40034
5.94105
5.54862
5.15945
4.77825
4.41264
4.06828
3.74883
3.4561
3.19019
2.95048
2.73528
2.54307
2.37151
2.2191
2.08347
1.96347
1.85705
1.76339
1.68106
1.60923
1.54781
1.49459
1.45398
1.41801
1.41073
1.41419
1.42746
1.46217
1.54124
1.70931
2.05257
2.7132
3.25183
3.56212
3.83433
4.26052
4.90277
5.51504
5.7869
5.75983
5.64486
5.39084
5.10585
4.81881
4.57174
4.3661
4.19902
4.06528
3.96267
3.88864
3.8408
3.80482
3.78187
3.78271
3.78859
3.80217
3.8268
3.84609
3.85924
3.85974
3.85731
3.84921
3.83135
3.80012
3.76515
3.72795
3.69013
3.6518
3.61347
3.5745
3.53499
3.49446
3.45339
3.41149
3.36936
3.32672
3.28417
3.24136
3.19885
3.15625
3.11407
3.07188
3.03019
2.98855
2.94747
2.90651
2.86616
2.82598
2.78645
2.74716
2.70856
2.67023
2.63264
2.59531
2.55877
2.5225
2.48726
2.45239
2.42038
2.39105
5.97949
5.60713
5.24049
4.8808
4.53281
4.20214
3.89214
3.60506
3.34147
3.1014
2.88357
2.68724
2.51018
2.35159
2.20903
2.08183
1.96785
1.86646
1.77622
1.69622
1.62651
1.56477
1.5165
1.47278
1.46911
1.47497
1.49651
1.55397
1.68367
1.95693
2.51294
3.08273
3.39528
3.53451
3.63461
3.79477
4.06046
4.48237
5.02935
5.41607
5.48414
5.44051
5.31545
5.06486
4.82688
4.57582
4.36569
4.18984
4.0462
3.93233
3.84644
3.78729
3.74383
3.7123
3.69833
3.70029
3.70765
3.72363
3.74393
3.75856
3.7654
3.76422
3.75916
3.74678
3.72168
3.68835
3.65124
3.61331
3.57568
3.53786
3.4999
3.46114
3.42189
3.38173
3.3412
3.29999
3.25874
3.21713
3.17574
3.13421
3.09305
3.05184
3.01108
2.97033
2.93009
2.8899
2.85028
2.81078
2.77189
2.73319
2.69516
2.65736
2.62028
2.58344
2.54738
2.51154
2.47674
2.4422
2.41058
2.38115
6.03432
5.66867
5.31731
4.97416
4.64182
4.32344
4.02275
3.74177
3.48136
3.24227
3.02319
2.82424
2.64325
2.47982
2.33192
2.19868
2.07864
1.97065
1.87392
1.78722
1.71056
1.64335
1.58798
1.54863
1.55055
1.56362
1.60465
1.70608
1.92868
2.39091
2.99169
3.33731
3.47487
3.52192
3.54202
3.57618
3.6561
3.81802
4.09425
4.52841
4.95708
5.22827
5.21694
5.16027
5.03202
4.79836
4.58718
4.36788
4.18428
4.03157
3.90609
3.80837
3.73546
3.68509
3.64414
3.6176
3.61287
3.61567
3.62393
3.64103
3.65698
3.66811
3.66841
3.66611
3.65859
3.64179
3.61029
3.57431
3.53716
3.49965
3.46236
3.42481
3.38716
3.34879
3.31006
3.27059
3.23093
3.19079
3.15073
3.11042
3.0704
3.03026
2.99051
2.95071
2.91136
2.87201
2.83317
2.7944
2.7562
2.71815
2.68073
2.64352
2.60699
2.57069
2.53515
2.49979
2.46548
2.43131
2.40014
2.37066
6.10728
5.73257
5.38942
5.05986
4.74026
4.43358
4.14162
3.86737
3.61079
3.37365
3.15469
2.95415
2.77077
2.60354
2.45164
2.31345
2.18847
2.07503
1.97283
1.88079
1.79851
1.72878
1.66876
1.65062
1.65759
1.68648
1.76604
1.94886
2.33499
2.96423
3.35545
3.50063
3.52428
3.51904
3.4986
3.46448
3.47072
3.50772
3.60143
3.78839
4.08284
4.49465
4.82201
4.99089
4.97545
4.91089
4.76223
4.56263
4.37435
4.1827
4.01977
3.88517
3.7742
3.68782
3.62553
3.57886
3.5441
3.52417
3.52482
3.52883
3.53824
3.55473
3.56658
3.5725
3.57142
3.56672
3.55498
3.53075
3.49801
3.46153
3.42453
3.38737
3.35052
3.31338
3.27622
3.23852
3.20065
3.16223
3.12374
3.08488
3.04615
3.0072
2.96853
2.92973
2.89132
2.85285
2.81482
2.77684
2.73937
2.70203
2.66527
2.6287
2.59278
2.55707
2.52208
2.48725
2.45347
2.41971
2.38903
2.35958
6.18007
5.79871
5.45798
5.138
4.83024
4.53439
4.25083
3.98297
3.73123
3.49639
3.27875
3.0775
2.89271
2.72291
2.56776
2.42592
2.29662
2.17895
2.07218
1.97582
1.89103
1.81875
1.77251
1.77563
1.79582
1.85893
2.01153
2.33506
2.98015
3.42532
3.59177
3.60048
3.58846
3.5509
3.47587
3.4142
3.37667
3.37046
3.38393
3.43486
3.54647
3.73376
4.01924
4.36618
4.62748
4.74443
4.72809
4.66679
4.52942
4.34894
4.18158
4.01499
3.86762
3.74719
3.64799
3.571
3.51704
3.47441
3.44567
3.43484
3.43625
3.44118
3.45187
3.46524
3.4749
3.47514
3.47309
3.46602
3.45019
3.4199
3.38601
3.34985
3.31335
3.27667
3.24043
3.2041
3.1679
3.13127
3.09455
3.05735
3.02014
2.98255
2.94511
2.90742
2.87
2.83246
2.7953
2.75813
2.72143
2.68482
2.64878
2.61289
2.57764
2.54255
2.50819
2.47392
2.44073
2.40742
2.37727
2.34792
6.30307
5.8871
5.53079
5.2135
4.91406
4.6272
4.35235
4.09068
3.84376
3.6121
3.39594
3.19523
3.00942
2.8382
2.68046
2.53583
2.40316
2.28195
2.17197
2.07257
1.98904
1.91892
1.91325
1.92668
1.97695
2.11172
2.40704
3.01207
3.52927
3.73152
3.73598
3.71883
3.66692
3.56265
3.46937
3.39983
3.34472
3.30725
3.28092
3.28267
3.29896
3.35192
3.46431
3.64053
3.8943
4.18533
4.40324
4.50204
4.48775
4.43504
4.31657
4.15338
4.0039
3.85995
3.72468
3.61468
3.52561
3.45834
3.41131
3.37428
3.3506
3.34588
3.34767
3.35308
3.36437
3.37519
3.38031
3.37936
3.37518
3.36425
3.3418
3.31067
3.27599
3.23997
3.20425
3.16868
3.13361
3.09841
3.06332
3.0278
2.99221
2.95614
2.92006
2.8836
2.8473
2.81077
2.77454
2.73825
2.70239
2.66658
2.6313
2.59615
2.5616
2.52719
2.49349
2.45983
2.42726
2.39445
2.36486
2.33567
6.34475
5.97874
5.61093
5.28946
4.99468
4.71502
4.44759
4.19245
3.94995
3.72155
3.50742
3.30754
3.12166
2.94933
2.79009
2.64306
2.50804
2.38421
2.27212
2.17421
2.09235
2.06206
2.07223
2.11556
2.23747
2.51317
3.08718
3.67624
3.91866
3.92186
3.89997
3.83412
3.70207
3.58131
3.48265
3.40219
3.33817
3.29028
3.24324
3.20854
3.18197
3.18388
3.19946
3.24794
3.3498
3.51123
3.72909
3.98055
4.16828
4.26953
4.25827
4.21623
4.12059
3.9767
3.84119
3.71325
3.5893
3.48823
3.40894
3.35078
3.30702
3.27546
3.25742
3.25781
3.26004
3.26556
3.27648
3.28437
3.28416
3.28191
3.2754
3.26064
3.23307
3.20107
3.16721
3.13263
3.09836
3.06416
3.03033
2.99627
2.96225
2.92776
2.8932
2.85815
2.82311
2.78773
2.75255
2.71721
2.68225
2.6473
2.61283
2.57847
2.54467
2.51099
2.47799
2.44499
2.41308
2.38082
2.35184
2.32287
6.32255
6.10149
5.71343
5.37381
5.07532
4.79951
4.53785
4.28818
4.05095
3.82581
3.61389
3.41532
3.22975
3.05702
2.89659
2.74814
2.61137
2.48625
2.37556
2.281
2.22912
2.2357
2.27153
2.37908
2.63493
3.17771
3.85615
4.14828
4.15194
4.12547
4.04562
3.88686
3.74345
3.62426
3.52392
3.43665
3.35969
3.29027
3.23364
3.18348
3.13626
3.09992
3.07219
3.07189
3.08394
3.12515
3.21322
3.35957
3.54431
3.76579
3.93373
4.04698
4.0389
4.00818
3.94277
3.81998
3.6917
3.57205
3.45974
3.3677
3.29689
3.24499
3.20529
3.17887
3.16884
3.16955
3.17246
3.17911
3.18717
3.18955
3.18858
3.18467
3.17472
3.15451
3.12687
3.09531
3.06256
3.02938
2.99647
2.96348
2.93072
2.89765
2.86456
2.83096
2.7973
2.76318
2.72917
2.6949
2.66094
2.62693
2.59334
2.55984
2.52685
2.49396
2.46171
2.42943
2.39823
2.36658
2.33824
2.30956
6.25754
6.12396
5.83044
5.47122
5.16063
4.88362
4.6256
4.38049
4.14721
3.92581
3.71621
3.5192
3.33439
3.16166
3.00069
2.85145
2.71418
2.59059
2.48508
2.41176
2.41516
2.44463
2.54143
2.78496
3.30509
4.06716
4.41305
4.41987
4.38876
4.29401
4.1114
3.94548
3.80703
3.68904
3.58449
3.48926
3.40122
3.31975
3.245
3.17876
3.12326
3.06869
3.02005
2.98198
2.95354
2.94921
2.95881
2.99236
3.06493
3.19543
3.35278
3.54718
3.70591
3.82765
3.83526
3.81827
3.77147
3.67326
3.54995
3.43516
3.33558
3.25273
3.18737
3.1388
3.10444
3.08516
3.08191
3.08295
3.08614
3.09266
3.09817
3.09794
3.09602
3.09022
3.0776
3.05331
3.02497
2.99392
2.96215
2.93
2.89814
2.86617
2.83434
2.80211
2.76984
2.73708
2.70435
2.67129
2.63844
2.60548
2.57288
2.5403
2.50819
2.47613
2.44469
2.41316
2.38272
2.35172
2.32407
2.29575
6.15682
6.094
5.91923
5.5718
5.25063
4.96877
4.71164
4.46991
4.24032
4.0222
3.81562
3.62005
3.43605
3.26374
3.10274
2.95405
2.81807
2.70299
2.60879
2.60882
2.63244
2.71724
2.94346
3.42702
4.29337
4.70415
4.71607
4.68058
4.57223
4.36684
4.1792
4.02208
3.88731
3.76699
3.65633
3.5528
3.45531
3.36349
3.27732
3.19754
3.12367
3.06054
3.00214
2.94734
2.89811
2.85928
2.83028
2.82145
2.82873
2.85462
2.91215
3.0226
3.16165
3.33064
3.48854
3.60887
3.64935
3.63872
3.60445
3.52899
3.41679
3.30977
3.21326
3.13454
3.07461
3.03141
3.00526
2.99217
2.99271
2.99483
2.99935
3.0068
3.01014
3.00939
3.00613
2.99782
2.98069
2.95531
2.9267
2.89616
2.86524
2.83405
2.80312
2.77196
2.74089
2.70943
2.678
2.64625
2.61465
2.58287
2.55138
2.51984
2.4887
2.45755
2.42697
2.39625
2.36662
2.33633
2.30941
2.28153
5.98375
5.99475
5.91154
5.70216
5.36154
5.06181
4.79896
4.55789
4.33112
4.11595
3.91162
3.71825
3.53558
3.36401
3.20427
3.05757
2.93068
2.82726
2.80985
2.83171
2.91392
3.13371
3.60841
4.53436
5.00478
5.0339
4.99493
4.87525
4.64728
4.43857
4.2634
4.11258
3.97728
3.8521
3.73431
3.6226
3.51653
3.41588
3.32072
3.23106
3.1472
3.06956
2.99895
2.93754
2.87743
2.82287
2.77384
2.73416
2.70469
2.69152
2.6968
2.71612
2.76128
2.85034
2.97544
3.1228
3.27957
3.39625
3.47418
3.46671
3.44113
3.38869
3.30383
3.20662
3.11449
3.03786
2.97933
2.93907
2.91642
2.90617
2.90681
2.9093
2.91471
2.92223
2.92262
2.92136
2.91685
2.90643
2.88566
2.85998
2.83152
2.80154
2.77143
2.74107
2.71089
2.68048
2.65023
2.61976
2.58947
2.559
2.52874
2.49837
2.46831
2.43817
2.40855
2.37872
2.34996
2.32043
2.29428
2.26693
5.54683
5.88844
5.86101
5.74051
5.47901
5.16407
4.88979
4.64608
4.42072
4.20806
4.00612
3.81443
3.63317
3.46368
3.30685
3.16968
3.05627
3.02601
3.04662
3.12819
3.35027
3.83625
4.81171
5.33968
5.37921
5.33613
5.20204
4.94983
4.71942
4.52633
4.3601
4.21048
4.07145
3.93998
3.81476
3.69527
3.58138
3.47303
3.3702
3.27285
3.18099
3.0946
3.01412
2.93919
2.87222
2.81089
2.75159
2.69727
2.64911
2.6089
2.57995
2.56282
2.56638
2.58053
2.61501
2.68446
2.79453
2.92726
3.07666
3.19801
3.29674
3.30201
3.28811
3.2528
3.17814
3.08767
3.00659
2.9407
2.89046
2.85428
2.8335
2.82454
2.8252
2.82781
2.833
2.83803
2.83755
2.83524
2.82892
2.81558
2.79358
2.76731
2.73911
2.70983
2.68042
2.65078
2.62146
2.59211
2.56304
2.53388
2.50493
2.47584
2.44699
2.41799
2.38943
2.36058
2.33277
2.3041
2.27877
2.25205
4.56605
5.64463
5.76942
5.71814
5.5733
5.27872
4.99023
4.7387
4.51167
4.29985
4.09955
3.90981
3.73108
3.56474
3.41795
3.29579
3.25479
3.27483
3.35757
3.58628
4.0933
5.11666
5.70874
5.75567
5.70657
5.55386
5.27461
5.02087
4.80921
4.6275
4.46387
4.31134
4.16651
4.02804
3.89546
3.76868
3.6477
3.5325
3.42299
3.3191
3.22068
3.12765
3.03993
2.95746
2.88063
2.80923
2.74531
2.68386
2.6264
2.57294
2.52629
2.48559
2.4571
2.43666
2.43891
2.44903
2.47451
2.5277
2.62308
2.74575
2.88275
3.01508
3.1186
3.15611
3.14577
3.11542
3.05205
2.97578
2.90822
2.85196
2.80636
2.77373
2.75573
2.74777
2.74854
2.75087
2.75436
2.75604
2.75506
2.75156
2.74326
2.72637
2.70358
2.67698
2.64919
2.62066
2.59225
2.56384
2.53582
2.50783
2.48011
2.45229
2.4247
2.39694
2.36956
2.34182
2.31507
2.28738
2.26293
2.23699
2.89433
5.06863
5.63762
5.64536
5.57624
5.40528
5.11024
4.84243
4.60708
4.39269
4.1926
4.00484
3.82989
3.67441
3.54434
3.49584
3.51607
3.60192
3.84179
4.37497
5.45399
6.09634
6.15012
6.09538
5.92645
5.62042
5.34302
5.11244
4.91495
4.73708
4.57087
4.41257
4.26074
4.11496
3.97523
3.84161
3.71411
3.59269
3.47723
3.36757
3.26352
3.1649
3.07151
2.98321
2.89992
2.8216
2.74841
2.68079
2.6193
2.55894
2.50309
2.45098
2.4058
2.36577
2.33742
2.31497
2.31545
2.32199
2.34058
2.38329
2.46441
2.57579
2.7035
2.84245
2.9529
3.01587
3.00815
2.98389
2.9335
2.87079
2.81422
2.76438
2.72404
2.69693
2.68205
2.67488
2.67528
2.6763
2.67758
2.67727
2.67526
2.67003
2.65886
2.63844
2.61487
2.58909
2.56248
2.53535
2.50839
2.48141
2.45475
2.42807
2.40168
2.37514
2.349
2.32246
2.29687
2.2703
2.24684
2.22187
2.1544
3.77092
5.26683
5.55364
5.53756
5.44674
5.24133
4.95826
4.70754
4.48646
4.28579
4.10132
3.93792
3.80093
3.74829
3.76969