/*--------------------------------*- C++ -*----------------------------------*\
  =========                 |
  \\      /  F ield         | OpenFOAM: The Open Source CFD Toolbox
   \\    /   O peration     | Website:  https://openfoam.org
    \\  /    A nd           | Version:  13
     \\/     M anipulation  |
\*---------------------------------------------------------------------------*/
FoamFile
{
    format      ascii;
    class       surfaceScalarField;
    location    "3";
    object      phi;
}
// * * * * * * * * * * * * * * * * * * * * * * * * * * * * * * * * * * * * * //

dimensions      [1 0 -1 0 0 0 0];

internalField   nonuniform List<scalar> 
10325
(
0.00840003
1.61601e-10
0.00840006
2.4562e-10
0.00839996
2.88039e-09
0.00840021
2.29387e-09
0.0083996
2.18472e-08
0.00840103
1.38909e-08
0.00839771
1.38453e-07
0.00840486
9.48262e-08
0.00838985
7.60644e-07
0.00841285
9.4173e-07
0.00837726
3.97989e-06
0.00840084
9.1287e-06
0.00834635
3.1142e-05
0.00824824
0.000113636
0.00767692
0.000579544
0.00700532
0.000669711
0.00636708
0.000635841
0.00570886
0.000656278
0.0050181
0.000688631
0.00428702
0.000729404
0.00350618
0.000779913
0.00267475
0.000828235
0.00180595
0.000866517
0.000910398
0.00089507
0.000909169
0.00840003
1.81498e-10
0.00840003
9.75893e-10
0.00840001
3.99764e-09
0.00840006
9.66943e-09
0.00839996
2.81528e-08
0.00839992
7.12541e-08
0.00840003
1.63444e-07
0.00839881
4.73509e-07
0.0084002
9.71766e-07
0.0083962
2.94331e-06
0.00839496
6.72687e-06
0.00838487
2.02327e-05
0.00835549
6.18994e-05
0.00824264
0.0002289
0.00768624
0.00114669
0.00699952
0.00135476
0.00636933
0.00126367
0.0057207
0.00130299
0.00503494
0.0013723
0.00429724
0.00146547
0.00350982
0.00156646
0.00267456
0.0016604
0.00180027
0.00173859
0.000899766
0.00179514
0.00180775
0.00840003
2.00403e-10
0.00840001
1.90025e-09
0.00840009
4.58038e-09
0.00839988
1.8392e-08
0.00840039
3.58968e-08
0.00839909
1.14057e-07
0.00840211
2.45169e-07
0.00839521
6.62268e-07
0.00840846
1.62198e-06
0.00838395
3.9723e-06
0.00841148
1.06372e-05
0.00837137
2.91056e-05
0.00836538
9.22717e-05
0.00825334
0.000333151
0.00775847
0.00165395
0.0070609
0.00205092
0.00642937
0.00189278
0.0057864
0.0019441
0.00510635
0.00205042
0.00436864
0.00220159
0.00357694
0.00235724
0.00273322
0.00250057
0.00184578
0.00262359
0.00092507
0.00271559
0.00273188
0.00840003
2.61698e-10
0.00840005
2.25452e-09
0.00839998
6.25407e-09
0.00840015
2.206e-08
0.00839975
4.66209e-08
0.00840069
1.44287e-07
0.00839854
2.96603e-07
0.00840261
8.93945e-07
0.00839425
1.86199e-06
0.00840645
5.47139e-06
0.00838465
1.29173e-05
0.00839852
3.77319e-05
0.00835926
0.000115355
0.00828704
0.000416525
0.00791014
0.00203936
0.0072067
0.00275247
0.00656314
0.00253395
0.00591968
0.00258567
0.00524243
0.00272578
0.00450593
0.00293615
0.00371016
0.00315235
0.00285746
0.00335066
0.00194636
0.00353347
0.000982773
0.00367964
0.00371449
0.00840003
4.47134e-10
0.00840005
1.83819e-09
0.00839999
9.10268e-09
0.00840013
1.82474e-08
0.00839973
6.72379e-08
0.00840075
1.3047e-07
0.00839822
4.09344e-07
0.00840415
8.64229e-07
0.00839137
2.42641e-06
0.00841285
5.7072e-06
0.00838038
1.53666e-05
0.00840849
4.19183e-05
0.00836907
0.000130003
0.0083398
0.000461871
0.00817441
0.00221121
0.00746618
0.00345905
0.00678871
0.00320925
0.00613463
0.00323829
0.00545738
0.00340138
0.004722
0.00367043
0.00392031
0.00395348
0.00304625
0.00422331
0.00209887
0.00447996
0.0010751
0.00470385
0.00478956
0.00840003
2.89862e-10
0.00840001
2.63676e-09
0.00840009
6.72015e-09
0.0083999
2.58662e-08
0.00840038
5.06595e-08
0.00839928
1.68053e-07
0.0084019
3.34948e-07
0.00839631
1.0093e-06
0.00840786
2.19377e-06
0.0083877
6.0619e-06
0.00841655
1.49085e-05
0.00838509
4.18292e-05
0.00841526
0.000126319
0.00842618
0.000440284
0.00863858
0.00200888
0.00791666
0.00418065
0.00714883
0.00397541
0.00646234
0.00392327
0.00577238
0.00408943
0.00503476
0.00440677
0.00422339
0.0047642
0.00332455
0.00512084
0.00232675
0.00547653
0.00121493
0.00581606
0.0060045
0.00840003
3.66959e-10
0.00840004
2.06059e-09
0.0084
7.61281e-09
0.0084001
1.99914e-08
0.00839985
5.61476e-08
0.00840053
1.31139e-07
0.00839884
3.54927e-07
0.00840317
8.02241e-07
0.00839418
2.17661e-06
0.0084121
5.03031e-06
0.00838876
1.35117e-05
0.00842343
3.5161e-05
0.00842154
0.000105092
0.00852506
0.000351118
0.00901537
0.00151857
0.00843226
0.00476597
0.00756296
0.00484425
0.00685547
0.0046297
0.00617021
0.00477407
0.00543402
0.00514076
0.00461322
0.00558513
0.00369106
0.00604127
0.00264412
0.00652098
0.00142801
0.00703307
0.00743319
0.00840003
3.07511e-10
0.00840005
2.0381e-09
0.00839999
6.9298e-09
0.00840015
1.97565e-08
0.00839978
5.14647e-08
0.00840069
1.32097e-07
0.0083987
3.14639e-07
0.0084034
8.29316e-07
0.008394
1.881e-06
0.00841152
5.07409e-06
0.00838726
1.2041e-05
0.00841888
3.32104e-05
0.0084036
9.49932e-05
0.00845333
0.000315944
0.00863915
0.00133174
0.00836801
0.00504063
0.00768249
0.0055304
0.00712714
0.00518407
0.00650338
0.00539683
0.00582939
0.00581268
0.00504517
0.00636884
0.00413387
0.00695132
0.00306659
0.00758686
0.00175162
0.0083482
0.00918617
0.00840003
3.91705e-10
0.00840003
1.71604e-09
0.00840003
7.86201e-09
0.00840002
1.67358e-08
0.00840002
5.69109e-08
0.00840007
1.1282e-07
0.0083997
3.54946e-07
0.0084008
7.05676e-07
0.00839778
2.12995e-06
0.00840376
4.5243e-06
0.00839512
1.27465e-05
0.00840517
3.17555e-05
0.00839993
9.37746e-05
0.00841616
0.000305008
0.00851554
0.00123174
0.00822496
0.00533456
0.0079525
0.0058028
0.00736121
0.00577458
0.00676454
0.0059921
0.00617918
0.00639559
0.00549191
0.00705523
0.00466969
0.0077725
0.00367034
0.00858481
0.00228216
0.00973621
0.0114701
0.00840003
2.74805e-10
0.00840002
2.1607e-09
0.00840006
6.40182e-09
0.00839996
2.11099e-08
0.00840022
4.8556e-08
0.00839953
1.37915e-07
0.00840132
3.06009e-07
0.00839722
8.4822e-07
0.00840675
1.87978e-06
0.00838798
5.15886e-06
0.0084178
1.21559e-05
0.00837999
3.33137e-05
0.00841482
9.31444e-05
0.00839317
0.000302927
0.00846824
0.00116925
0.00832651
0.0054771
0.00792222
0.00620693
0.00749821
0.00619799
0.00705394
0.00643504
0.00654877
0.00689814
0.00600738
0.0075957
0.00537104
0.00840821
0.00447561
0.00947944
0.0031641
0.011047
0.0146358
0.00840003
3.06734e-10
0.00840003
2.15964e-09
0.00840006
6.70554e-09
0.00839997
2.10578e-08
0.00840017
4.98981e-08
0.00839974
1.38353e-07
0.00840065
3.22702e-07
0.00839881
8.43671e-07
0.00840193
2.03373e-06
0.00839618
5.1388e-06
0.00840457
1.28749e-05
0.0083913
3.38001e-05
0.00840389
9.48971e-05
0.00839565
0.000301852
0.00844509
0.00112497
0.00851032
0.0054134
0.00809404
0.00662337
0.00767312
0.00661839
0.00733263
0.00677418
0.00696135
0.00726741
0.00659698
0.00795826
0.00616896
0.00883497
0.00575466
0.00989295
0.00571345
0.0110879
0.0114513
0.00889897
0.00840003
3.77798e-10
0.00840004
1.87942e-09
0.00840002
7.6745e-09
0.00840004
1.8387e-08
0.00839996
5.69969e-08
0.00840022
1.22881e-07
0.00839941
3.62775e-07
0.00840156
7.65994e-07
0.00839642
2.22265e-06
0.00840722
4.84058e-06
0.00838829
1.35705e-05
0.00841378
3.3048e-05
0.00838878
9.48355e-05
0.00841876
0.000292236
0.00847541
0.00105811
0.00891268
0.00498081
0.00846157
0.00707522
0.00799512
0.00708501
0.00764665
0.00712174
0.00736136
0.00755097
0.00710189
0.00821598
0.00690423
0.00903112
0.00686817
0.00992778
0.00731119
0.0106438
0.0104361
0.00832713
0.00840003
2.78813e-10
0.00840003
2.04927e-09
0.00840003
6.29241e-09
0.00840004
1.99365e-08
0.00840002
4.69364e-08
0.00840003
1.31439e-07
0.00840014
2.99844e-07
0.00839964
8.11085e-07
0.00840119
1.87293e-06
0.00839807
4.96072e-06
0.00840495
1.19815e-05
0.00839979
3.16091e-05
0.00841505
8.5376e-05
0.00844296
0.00026019
0.00859836
0.000906621
0.00964996
0.00393014
0.00907993
0.00764551
0.00848704
0.00767765
0.00809793
0.00751008
0.00783177
0.00781616
0.00765695
0.00838931
0.00762509
0.00906126
0.00784585
0.00970591
0.00838596
0.0101023
0.00981116
0.0090108
0.00840003
2.5472e-10
0.00840004
1.59375e-09
0.00840002
5.54595e-09
0.00840008
1.55769e-08
0.00839995
4.11475e-08
0.00840031
1.03235e-07
0.00839963
2.57077e-07
0.00840149
6.35553e-07
0.00839821
1.55817e-06
0.00840634
3.86974e-06
0.00839648
9.55087e-06
0.00842226
2.42601e-05
0.00842029
6.39653e-05
0.008517
0.000185086
0.00880595
0.000606791
0.0102758
0.00246359
0.00977774
0.00814418
0.00931191
0.00814337
0.00870723
0.00811431
0.00838602
0.00813622
0.00825843
0.00851603
0.00830468
0.00901381
0.00855453
0.00945517
0.00901816
0.00963748
0.00931072
0.00951763
0.00840003
2.14875e-10
0.00840004
1.36029e-09
0.00840002
4.71024e-09
0.00840007
1.33346e-08
0.00839997
3.4744e-08
0.00840025
8.89225e-08
0.00839971
2.15525e-07
0.00840116
5.4477e-07
0.00839848
1.30692e-06
0.00840483
3.29236e-06
0.00839611
8.00033e-06
0.00841587
2.03624e-05
0.00840607
5.27016e-05
0.00846361
0.000149127
0.00857904
0.000477195
0.00920434
0.00184498
0.00991694
0.00743014
0.0095892
0.00847095
0.00916572
0.0085376
0.00888832
0.00841251
0.00878927
0.00861405
0.00886045
0.00894121
0.00909399
0.00922041
0.00946739
0.00926288
0.00891106
0.00986651
0.00840003
2.06628e-10
0.00840004
1.11786e-09
0.00840002
4.34407e-09
0.00840007
1.09042e-08
0.00839997
3.20933e-08
0.00840023
7.27767e-08
0.00839969
2.00399e-07
0.00840112
4.56455e-07
0.00839831
1.20404e-06
0.00840511
2.83608e-06
0.00839365
7.26488e-06
0.00841622
1.78881e-05
0.00839469
4.68223e-05
0.00844364
0.000129086
0.00849557
0.000403245
0.00887894
0.00147285
0.00989203
0.00641462
0.00976638
0.00859682
0.00953848
0.00876529
0.00930407
0.00864672
0.00922792
0.00868911
0.00930606
0.00886212
0.00951467
0.00901143
0.00981163
0.00896479
0.00860536
0.0101163
0.00840003
1.46967e-10
0.00840003
1.10367e-09
0.00840003
3.34971e-09
0.00840003
1.07252e-08
0.00840006
2.51263e-08
0.00839998
7.0452e-08
0.00840026
1.59937e-07
0.00839958
4.31229e-07
0.00840163
9.91023e-07
0.00839747
2.60894e-06
0.00840813
6.19349e-06
0.00839248
1.6074e-05
0.00842374
4.05088e-05
0.00841445
0.000111458
0.0085044
0.000335314
0.00879273
0.00117266
0.0103749
0.00483428
0.0102153
0.00875669
0.00997458
0.00900602
0.0097024
0.00891843
0.00962571
0.00876529
0.00968285
0.00880364
0.0098502
0.00884319
0.0100823
0.00873235
0.00837693
0.0103099
0.00840003
1.3333e-10
0.00840003
7.85665e-10
0.00840003
2.88336e-09
0.00840005
7.72795e-09
0.0084
2.11701e-08
0.00840015
5.18118e-08
0.00839986
1.30334e-07
0.00840078
3.21576e-07
0.00839916
7.79323e-07
0.00840416
1.96257e-06
0.00839658
4.66639e-06
0.00841759
1.19671e-05
0.00840317
2.91685e-05
0.00846733
7.80764e-05
0.00855415
0.000220491
0.00902608
0.000716313
0.0110782
0.002778
0.0109201
0.00891467
0.0106714
0.00925464
0.010311
0.00927862
0.0100866
0.00898955
0.0100592
0.00883009
0.0101574
0.00874418
0.0103185
0.00857034
0.00821554
0.0104797
0.00840003
9.93572e-11
0.00840003
6.54554e-10
0.00840004
2.16956e-09
0.00840003
6.36492e-09
0.00840005
1.62023e-08
0.00840003
4.1572e-08
0.0084001
1.02531e-07
0.00840014
2.51656e-07
0.00840005
6.2516e-07
0.00840142
1.5067e-06
0.00839935
3.78804e-06
0.0084086
9.14242e-06
0.00840334
2.33006e-05
0.00843653
5.93455e-05
0.00847673
0.000165539
0.00868928
0.000517091
0.00952386
0.00193466
0.010975
0.00746358
0.0109173
0.00931259
0.0107072
0.00948868
0.0104711
0.00922568
0.0103975
0.00890308
0.0104379
0.00870294
0.0105342
0.00847333
0.00811322
0.0106358
0.00840003
8.54805e-11
0.00840003
5.05302e-10
0.00840003
1.83169e-09
0.00840004
4.93789e-09
0.00840003
1.356e-08
0.00840007
3.28126e-08
0.00839998
8.47741e-08
0.00840033
2.03351e-07
0.00839961
5.10843e-07
0.008402
1.24892e-06
0.0083977
3.0807e-06
0.00841003
7.67941e-06
0.0083947
1.90436e-05
0.00843255
4.91351e-05
0.00843502
0.000132958
0.00857427
0.000402243
0.00907763
0.00141747
0.0110155
0.00552611
0.0111595
0.00916991
0.0110725
0.00957653
0.0108452
0.00945346
0.010715
0.00903366
0.0106993
0.00871809
0.010741
0.00843063
0.00806165
0.0107918
0.00840003
6.41855e-11
0.00840003
3.87482e-10
0.00840004
1.35781e-09
0.00840003
3.77671e-09
0.00840005
1.00397e-08
0.00840002
2.46064e-08
0.00840011
6.36461e-08
0.00840006
1.47694e-07
0.00840024
3.89629e-07
0.0084007
8.77953e-07
0.00840051
2.34997e-06
0.00840527
5.29849e-06
0.00840482
1.41407e-05
0.00842876
3.3565e-05
0.00846103
9.08752e-05
0.00861803
0.000254153
0.00920154
0.00082652
0.0116425
0.00308328
0.0117335
0.00907992
0.0116397
0.0096716
0.0113818
0.00971228
0.0110962
0.00931928
0.0109845
0.00882983
0.0109644
0.00845015
0.00805938
0.0109655
0.00840003
4.49223e-11
0.00840003
2.9676e-10
0.00840003
9.94474e-10
0.00840004
2.89096e-09
0.00840003
7.36559e-09
0.00840005
1.90362e-08
0.00840005
4.57937e-08
0.00840007
1.16234e-07
0.00840028
2.75989e-07
0.00839996
6.93839e-07
0.00840214
1.66083e-06
0.00839932
4.14209e-06
0.00841173
1.00728e-05
0.00840585
2.52416e-05
0.00845087
6.44859e-05
0.00850838
0.000177118
0.00880494
0.000546568
0.00988099
0.00199647
0.0117369
0.00722435
0.0118504
0.00955905
0.0117035
0.00986005
0.0114155
0.00960785
0.0112802
0.00896444
0.0111986
0.0085314
0.00809924
0.0111579
0.00840003
3.41669e-11
0.00840003
2.21073e-10
0.00840003
7.52843e-10
0.00840004
2.16334e-09
0.00840003
5.56038e-09
0.00840006
1.43004e-08
0.00840002
3.46716e-08
0.00840014
8.76306e-08
0.00840004
2.09079e-07
0.00840039
5.2969e-07
0.00840064
1.25746e-06
0.0084012
3.18998e-06
0.00840464
7.66017e-06
0.00840821
1.94476e-05
0.00842648
4.86984e-05
0.0084707
0.000131095
0.00863434
0.000384803
0.009302
0.0013262
0.0117166
0.00480674
0.0120076
0.00926808
0.0120778
0.00978996
0.0119277
0.0097579
0.0115895
0.00930241
0.0114523
0.00866786
0.00818919
0.0113619
0.00840003
2.56815e-11
0.00840003
1.545e-10
0.00840003
5.5648e-10
0.00840004
1.5119e-09
0.00840003
4.09205e-09
0.00840005
1.00338e-08
0.00840002
2.51387e-08
0.00840016
6.16709e-08
0.00839996
1.49138e-07
0.00840072
3.73246e-07
0.0083998
8.80062e-07
0.00840357
2.24273e-06
0.00840016
5.24455e-06
0.00841665
1.35169e-05
0.00841599
3.24336e-05
0.00848321
8.5781e-05
0.00861081
0.000235039
0.00920724
0.000741977
0.011368
0.00264204
0.0124186
0.00821475
0.012413
0.00979465
0.012231
0.00993924
0.0118902
0.00964257
0.0117288
0.00882889
0.00833444
0.0115823
0.00840003
1.81553e-11
0.00840003
1.13008e-10
0.00840003
3.89592e-10
0.00840003
1.10004e-09
0.00840004
2.89197e-09
0.00840003
7.17588e-09
0.00840005
1.82712e-08
0.00840006
4.31593e-08
0.00840006
1.11218e-07
0.00840035
2.55786e-07
0.00839992
6.68492e-07
0.00840242
1.52716e-06
0.0083992
3.99418e-06
0.00841351
9.25869e-06
0.00840271
2.41635e-05
0.00845757
5.92524e-05
0.0084975
0.000162226
0.00878685
0.000481743
0.00971389
0.00169558
0.0121799
0.00574883
0.0125172
0.00945696
0.0125939
0.0098621
0.0124545
0.00978146
0.0120546
0.00922849
0.00855764
0.0118313
0.00840003
1.21446e-11
0.00840003
7.8322e-11
0.00840003
2.67887e-10
0.00840003
7.65802e-10
0.00840003
1.9675e-09
0.00840004
5.04077e-09
0.00840003
1.20958e-08
0.00840007
3.07168e-08
0.00840006
7.15996e-08
0.00840019
1.83958e-07
0.0084004
4.21953e-07
0.00840061
1.09046e-06
0.00840289
2.50469e-06
0.00840313
6.45343e-06
0.00841736
1.51316e-05
0.00842911
3.89825e-05
0.0085023
9.84309e-05
0.00869661
0.000277794
0.0095167
0.000880635
0.0122411
0.00301605
0.0129588
0.00873765
0.0129647
0.0098559
0.0127425
0.0100033
0.0124012
0.00956953
0.00881499
0.0121437
0.00840003
8.97158e-12
0.00840003
5.18687e-11
0.00840003
1.89772e-10
0.00840003
5.05821e-10
0.00840003
1.39647e-09
0.00840003
3.29958e-09
0.00840004
8.68934e-09
0.00840006
1.98649e-08
0.00840004
5.20194e-08
0.00840022
1.18353e-07
0.00839998
3.07252e-07
0.00840131
7.06233e-07
0.00839962
1.80928e-06
0.0084077
4.23862e-06
0.00839965
1.07097e-05
0.0084354
2.59429e-05
0.00843382
6.64189e-05
0.00857238
0.000177016
0.00888572
0.000533027
0.0100633
0.00185596
0.0126818
0.00611027
0.0129909
0.00954611
0.0131749
0.00981908
0.0129067
0.00983794
0.00919177
0.0125298
0.00840003
5.54229e-12
0.00840003
3.58673e-11
0.00840003
1.22159e-10
0.00840003
3.50172e-10
0.00840003
9.00061e-10
0.00840003
2.29383e-09
0.00840004
5.55843e-09
0.00840003
1.38726e-08
0.00840009
3.3067e-08
0.00840002
8.22089e-08
0.00840043
1.95763e-07
0.0083999
4.85714e-07
0.00840241
1.1559e-06
0.00839963
2.87267e-06
0.00841268
6.88478e-06
0.00840359
1.7148e-05
0.00845631
4.22559e-05
0.00848609
0.000109822
0.00874699
0.000306587
0.00959691
0.000982831
0.0124164
0.0032895
0.0133033
0.00865791
0.0133678
0.00975482
0.0132363
0.00996997
0.00957145
0.0128579
0.00840003
3.63812e-12
0.00840003
2.45174e-11
0.00840003
8.01802e-11
0.00840003
2.38444e-10
0.00840003
5.92329e-10
0.00840003
1.54921e-09
0.00840004
3.68199e-09
0.00840003
9.27982e-09
0.00840007
2.21511e-08
0.00840002
5.44739e-08
0.00840028
1.32142e-07
0.00840001
3.18899e-07
0.00840141
7.86243e-07
0.00840019
1.87318e-06
0.00840695
4.67764e-06
0.00840418
1.11345e-05
0.0084329
2.81805e-05
0.008451
6.97638e-05
0.00859399
0.000188763
0.00899383
0.000560628
0.0103759
0.00191724
0.0130046
0.00602153
0.0133477
0.00941127
0.0135784
0.00973994
0.00977202
0.0133787
0.00840003
2.46988e-12
0.00840003
1.5259e-11
0.00840003
5.40215e-11
0.00840003
1.4914e-10
0.00840003
3.9625e-10
0.00840003
9.78854e-10
0.00840003
2.421e-09
0.00840004
5.95404e-09
0.00840004
1.42122e-08
0.00840006
3.56042e-08
0.00840013
8.27576e-08
0.00840013
2.10825e-07
0.00840079
4.84283e-07
0.00840027
1.24017e-06
0.00840507
2.85049e-06
0.00840177
7.30111e-06
0.00842789
1.70955e-05
0.00842727
4.39299e-05
0.00854114
0.000110284
0.00875368
0.000310195
0.00971361
0.000981053
0.0125508
0.00316935
0.0136108
0.00834892
0.0136746
0.00967645
0.00978154
0.0136658
0.00840003
1.57925e-12
0.00840003
1.01191e-11
0.00840003
3.42071e-11
0.00840003
9.85155e-11
0.00840003
2.52346e-10
0.00840003
6.36692e-10
0.00840004
1.5748e-09
0.00840003
3.78451e-09
0.00840005
9.44954e-09
0.00840005
2.21455e-08
0.00840009
5.60784e-08
0.00840016
1.2947e-07
0.00840024
3.30799e-07
0.00840104
7.61499e-07
0.00840071
1.94347e-06
0.00840678
4.51109e-06
0.00840486
1.14671e-05
0.0084352
2.73395e-05
0.0084551
7.01629e-05
0.00860446
0.000183642
0.00901599
0.000545947
0.0103749
0.00182308
0.0131868
0.00552839
0.0137051
0.00915664
0.00961023
0.0138767
0.00840003
9.58145e-13
0.00840003
6.38129e-12
0.00840003
2.13308e-11
0.00840003
6.22267e-11
0.00840003
1.56812e-10
0.00840003
4.05401e-10
0.00840003
9.59768e-10
0.00840004
2.43621e-09
0.00840004
5.65692e-09
0.00840004
1.43055e-08
0.00840009
3.31963e-08
0.00840005
8.32813e-08
0.00840041
1.94807e-07
0.00840009
4.82415e-07
0.00840245
1.14634e-06
0.00840053
2.79439e-06
0.00841371
6.75628e-06
0.00840756
1.63875e-05
0.00846614
4.06202e-05
0.00850697
0.000102681
0.00881128
0.000281376
0.00973665
0.000870675
0.0125465
0.00272342
0.0139028
0.0077966
0.00955122
0.0139615
0.00840003
6.39011e-13
0.00840003
3.83972e-12
0.00840003
1.38752e-11
0.00840003
3.74482e-11
0.00840003
1.01501e-10
0.00840003
2.45208e-10
0.00840003
6.19751e-10
0.00840004
1.4787e-09
0.00840003
3.62812e-09
0.00840005
8.75863e-09
0.00840004
2.10401e-08
0.00840012
5.16484e-08
0.00840009
1.21906e-07
0.00840045
3.03482e-07
0.00840064
7.07969e-07
0.0084017
1.78109e-06
0.00840466
4.13781e-06
0.00840861
1.04679e-05
0.00842847
2.47725e-05
0.00846126
6.33471e-05
0.00858689
0.000162837
0.00897294
0.000474821
0.0101457
0.00155501
0.0132139
0.00472016
0.00874882
0.0140138
0.00840003
3.91708e-13
0.00840003
2.40398e-12
0.00840003
8.42108e-12
0.00840003
2.33864e-11
0.00840003
6.17905e-11
0.00840003
1.51161e-10
0.00840003
3.80503e-10
0.00840003
8.98186e-10
0.00840004
2.25415e-09
0.00840004
5.23584e-09
0.00840004
1.31652e-08
0.00840008
3.05037e-08
0.00840007
7.64649e-08
0.00840036
1.78171e-07
0.00840015
4.41677e-07
0.00840214
1.04502e-06
0.00840067
2.55122e-06
0.00841231
6.14119e-06
0.00840695
1.49184e-05
0.00846069
3.67488e-05
0.00849178
9.22054e-05
0.00875955
0.000248228
0.00953738
0.000747962
0.011906
0.00235742
0.00670118
0.0139478
0.00840003
2.22157e-13
0.00840003
1.51879e-12
0.00840003
4.96192e-12
0.00840003
1.47907e-11
0.00840003
3.64468e-11
0.00840003
9.57974e-11
0.00840003
2.2316e-10
0.00840003
5.70538e-10
0.00840004
1.31753e-09
0.00840003
3.31468e-09
0.00840005
7.73732e-09
0.00840004
1.91191e-08
0.00840012
4.54097e-08
0.00840008
1.09889e-07
0.00840046
2.66475e-07
0.00840053
6.31099e-07
0.00840185
1.56461e-06
0.00840413
3.63927e-06
0.00840897
9.17892e-06
0.00842636
2.14753e-05
0.0084597
5.492e-05
0.00857347
0.000137923
0.00892437
0.000391132
0.0100453
0.00123862
0.00371041
0.0130256
0.00840003
1.4806e-13
0.00840003
8.65983e-13
0.00840003
3.15899e-12
0.00840003
8.44818e-12
0.00840003
2.30707e-11
0.00840003
5.48222e-11
0.00840003
1.41085e-10
0.00840003
3.26908e-10
0.00840003
8.26057e-10
0.00840004
1.91989e-09
0.00840003
4.77805e-09
0.00840006
1.12375e-08
0.00840004
2.7511e-08
0.00840015
6.5853e-08
0.00840013
1.5822e-07
0.00840059
3.85638e-07
0.00840093
9.09676e-07
0.00840246
2.26269e-06
0.0084064
5.26297e-06
0.00841351
1.32939e-05
0.00843845
3.136e-05
0.00849485
8.04598e-05
0.00867628
0.000208449
0.00929831
0.000615246
0.00193416
0.0110749
0.00840003
7.90373e-14
0.00840003
5.41177e-13
0.00840003
1.7681e-12
0.00840003
5.26268e-12
0.00840003
1.29799e-11
0.00840003
3.39391e-11
0.00840003
7.92393e-11
0.00840003
2.00787e-10
0.00840003
4.65403e-10
0.00840003
1.16044e-09
0.00840004
2.71498e-09
0.00840004
6.65597e-09
0.00840006
1.58047e-08
0.00840005
3.80455e-08
0.0084002
9.1966e-08
0.00840021
2.17032e-07
0.00840085
5.33976e-07
0.00840151
1.23926e-06
0.00840375
3.09387e-06
0.00841025
7.12714e-06
0.00842167
1.79733e-05
0.00846282
4.23643e-05
0.00855816
0.000109355
0.00888562
0.000290814
0.000887169
0.00992799
0.00840003
4.93745e-14
0.00840003
3.06103e-13
0.00840003
1.075e-12
0.00840003
2.98087e-12
0.00840003
7.84058e-12
0.00840003
1.92886e-11
0.00840003
4.76693e-11
0.00840003
1.14558e-10
0.00840003
2.77703e-10
0.00840003
6.66566e-10
0.00840003
1.5987e-09
0.00840004
3.86089e-09
0.00840004
9.18256e-09
0.00840007
2.2285e-08
0.00840009
5.26591e-08
0.00840018
1.28661e-07
0.00840046
3.02283e-07
0.00840063
7.39627e-07
0.00840303
1.74113e-06
0.00840281
4.25731e-06
0.00841837
1.00918e-05
0.00841928
2.4802e-05
0.00849608
6.05979e-05
0.00859253
0.000156204
0.00043868
0.00907867
0.00840003
2.82699e-14
0.00840003
1.76984e-13
0.00840003
6.17807e-13
0.00840003
1.72204e-12
0.00840003
4.51642e-12
0.00840003
1.10979e-11
0.00840003
2.75084e-11
0.00840003
6.55971e-11
0.00840003
1.60432e-10
0.00840003
3.80083e-10
0.00840003
9.25653e-10
0.00840004
2.19307e-09
0.00840004
5.31491e-09
0.00840006
1.26521e-08
0.00840005
3.05005e-08
0.00840016
7.29434e-08
0.00840021
1.74763e-07
0.00840058
4.21224e-07
0.00840141
1.00291e-06
0.00840238
2.43076e-06
0.00840923
5.78553e-06
0.00841319
1.41396e-05
0.00845218
3.40839e-05
0.00850402
8.54684e-05
0.000223052
0.00873988
0.00840003
1.63347e-14
0.00840003
9.96551e-14
0.00840003
3.55295e-13
0.00840003
9.69907e-13
0.00840003
2.58595e-12
0.00840003
6.27912e-12
0.00840003
1.56183e-11
0.00840003
3.73204e-11
0.00840003
9.03213e-11
0.00840003
2.16628e-10
0.00840003
5.17116e-10
0.00840004
1.24783e-09
0.00840004
2.95333e-09
0.00840005
7.15879e-09
0.00840005
1.68483e-08
0.00840009
4.09966e-08
0.00840017
9.6124e-08
0.0084003
2.342e-07
0.00840098
5.49242e-07
0.00840125
1.33454e-06
0.00840611
3.14631e-06
0.00840694
7.61981e-06
0.00843537
1.82057e-05
0.0084523
4.45097e-05
0.000111138
0.0085991
0.00840003
9.12578e-15
0.00840003
5.7125e-14
0.00840003
1.97623e-13
0.00840003
5.55549e-13
0.00840003
1.44443e-12
0.00840003
3.55844e-12
0.00840003
8.82482e-12
0.00840003
2.08206e-11
0.00840003
5.15224e-11
0.00840003
1.19458e-10
0.00840003
2.9648e-10
0.00840003
6.83946e-10
0.00840003
1.69315e-09
0.00840004
3.91964e-09
0.00840004
9.62876e-09
0.00840008
2.25293e-08
0.00840008
5.45479e-08
0.00840026
1.29367e-07
0.00840037
3.08975e-07
0.00840105
7.43415e-07
0.00840257
1.7491e-06
0.00840459
4.2742e-06
0.00841667
9.99506e-06
0.0084266
2.4754e-05
5.93247e-05
0.00849566
0.00840003
5.00674e-15
0.00840003
3.19714e-14
0.00840003
1.10723e-13
0.00840003
3.10879e-13
0.00840003
8.07769e-13
0.00840003
1.99974e-12
0.00840003
4.87264e-12
0.00840003
1.18208e-11
0.00840003
2.80353e-11
0.00840003
6.85894e-11
0.00840003
1.59434e-10
0.00840003
3.94111e-10
0.00840003
9.07308e-10
0.00840003
2.25406e-09
0.00840004
5.17483e-09
0.00840004
1.28248e-08
0.0084001
2.96378e-08
0.00840008
7.27675e-08
0.0084004
1.6983e-07
0.00840031
4.12497e-07
0.00840208
9.76231e-07
0.00840181
2.33749e-06
0.00841109
5.62968e-06
0.00841232
1.33755e-05
3.28652e-05
0.00845668
0.00840003
2.78697e-15
0.00840003
1.79388e-14
0.00840003
6.0673e-14
0.00840003
1.73364e-13
0.00840003
4.41711e-13
0.00840003
1.10744e-12
0.00840003
2.6819e-12
0.00840003
6.45699e-12
0.00840003
1.56304e-11
0.00840003
3.6743e-11
0.00840003
8.99446e-11
0.00840003
2.08136e-10
0.00840003
5.14572e-10
0.00840004
1.18145e-09
0.00840003
2.92329e-09
0.00840005
6.7313e-09
0.00840004
1.65516e-08
0.00840012
3.84005e-08
0.00840011
9.33842e-08
0.0084005
2.19522e-07
0.00840055
5.25966e-07
0.00840232
1.25395e-06
0.00840388
2.96384e-06
0.0084111
7.18714e-06
1.68691e-05
0.00842562
0.00840003
1.58787e-15
0.00840003
9.55545e-15
0.00840003
3.34836e-14
0.00840003
9.34998e-14
0.00840003
2.43187e-13
0.00840003
6.01571e-13
0.00840003
1.45789e-12
0.00840003
3.54017e-12
0.00840003
8.3682e-12
0.00840003
2.03048e-11
0.00840003
4.7527e-11
0.00840003
1.1582e-10
0.00840003
2.69162e-10
0.00840003
6.56962e-10
0.00840004
1.52784e-09
0.00840004
3.71485e-09
0.00840005
8.68152e-09
0.00840005
2.09285e-08
0.00840014
4.93748e-08
0.00840012
1.17806e-07
0.00840065
2.80107e-07
0.00840062
6.63531e-07
0.0084034
1.58649e-06
0.00840388
3.74536e-06
9.01794e-06
0.00841736
0.00840003
7.83282e-16
0.00840003
5.09748e-15
0.00840003
1.82806e-14
0.00840003
4.91894e-14
0.00840003
1.3297e-13
0.00840003
3.1686e-13
0.00840003
7.99307e-13
0.00840003
1.85627e-12
0.00840003
4.57759e-12
0.00840003
1.06637e-11
0.00840003
2.58468e-11
0.00840003
6.08692e-11
0.00840003
1.45118e-10
0.00840003
3.4683e-10
0.00840003
8.14444e-10
0.00840004
1.97066e-09
0.00840004
4.56894e-09
0.00840005
1.11779e-08
0.00840008
2.56915e-08
0.0084001
6.31539e-08
0.00840034
1.44999e-07
0.00840034
3.54696e-07
0.00840191
8.2256e-07
0.00840169
1.98855e-06
4.67835e-06
0.00841069
0.00840003
4.01263e-16
0.00840003
2.80787e-15
0.00840003
9.31023e-15
0.00840003
2.6873e-14
0.00840003
6.75275e-14
0.00840003
1.71182e-13
0.00840003
4.0763e-13
0.00840003
9.9201e-13
0.00840003
2.35439e-12
0.00840003
5.58713e-12
0.00840003
1.34374e-11
0.00840003
3.12567e-11
0.00840003
7.62762e-11
0.00840003
1.7481e-10
0.00840003
4.2995e-10
0.00840003
9.81383e-10
0.00840004
2.41069e-09
0.00840005
5.51841e-09
0.00840004
1.34482e-08
0.00840011
3.11093e-08
0.0084001
7.47876e-08
0.00840046
1.75482e-07
0.00840048
4.14644e-07
0.0084023
9.89912e-07
2.3028e-06
0.00840302
0.00840003
2.4774e-16
0.00840003
1.26963e-15
0.00840003
4.67595e-15
0.00840003
1.32706e-14
0.00840003
3.47212e-14
0.00840003
8.41429e-14
0.00840003
2.06693e-13
0.00840003
4.88243e-13
0.00840003
1.1644e-12
0.00840003
2.78024e-12
0.00840003
6.45072e-12
0.00840003
1.56344e-11
0.00840003
3.56762e-11
0.00840003
8.73271e-11
0.00840003
1.96748e-10
0.00840003
4.83918e-10
0.00840004
1.08733e-09
0.00840004
2.65894e-09
0.00840005
6.00868e-09
0.00840005
1.44938e-08
0.00840012
3.31687e-08
0.00840016
7.83448e-08
0.00840045
1.82706e-07
0.00840097
4.20195e-07
9.98798e-07
0.00840193
0.00840003
5.44269e-17
0.00840003
4.78811e-16
0.00840003
2.18396e-15
0.00840003
6.3447e-15
0.00840003
1.5596e-14
0.00840003
4.10501e-14
0.00840003
9.25226e-14
0.00840003
2.35395e-13
0.00840003
5.27217e-13
0.00840003
1.29816e-12
0.00840003
2.95394e-12
0.00840003
7.0646e-12
0.00840003
1.63865e-11
0.00840003
3.80268e-11
0.00840003
9.07832e-11
0.00840003
2.03097e-10
0.00840003
4.97793e-10
0.00840004
1.08073e-09
0.00840004
2.70461e-09
0.00840006
5.7187e-09
0.00840004
1.44729e-08
0.00840017
3.01861e-08
0.00840008
7.62403e-08
0.00840076
1.58321e-07
3.92688e-07
0.00840039
0.00840003
6.38595e-17
0.00840003
2.9821e-16
0.00840003
9.36073e-16
0.00840003
2.37676e-15
0.00840003
6.73035e-15
0.00840003
1.49114e-14
0.00840003
4.06374e-14
0.00840003
8.34442e-14
0.00840003
2.2535e-13
0.00840003
4.62398e-13
0.00840003
1.21346e-12
0.00840003
2.56098e-12
0.00840003
6.44191e-12
0.00840003
1.42076e-11
0.00840003
3.35396e-11
0.00840003
7.88381e-11
0.00840003
1.71374e-10
0.00840003
4.34985e-10
0.00840003
8.53557e-10
0.00840004
2.37624e-09
0.00840005
4.19069e-09
0.00840004
1.26021e-08
0.00840017
2.04203e-08
0.00839998
6.51201e-08
9.8902e-08
0.00840096
0.00840003
0.00840003
0.00840003
0.00840003
0.00840003
0.00840003
0.00840003
0.00840003
0.00840003
0.00840003
0.00840003
0.00840003
0.00840003
0.00840003
0.00840003
0.00840003
0.00840003
0.00840003
0.00840003
0.00840004
0.00840003
0.00840008
0.00839997
0.00840035
0.00839951
0.00484801
0.00405171
0.00322766
0.0016206
0.00253257
0.000695009
0.00225496
0.000277109
0.00223666
1.71351e-05
0.00242602
-0.000190099
0.00264475
-0.000219646
0.00276783
-0.000123865
0.00280992
-4.29665e-05
0.00280406
4.96645e-06
0.00277885
2.40959e-05
0.00276349
1.41891e-05
0.00275787
4.2655e-06
0.00276307
-6.60089e-06
0.00277167
-1.00384e-05
0.00277802
-8.00901e-06
0.00277997
-4.16502e-06
0.00277758
1.78407e-07
0.00277324
2.04402e-06
0.00276802
2.85728e-06
0.00276245
2.90677e-06
0.00275597
3.18071e-06
0.00274636
4.93523e-06
0.0027288
1.00128e-05
0.00269301
2.19709e-05
0.00261688
4.89093e-05
0.00245021
0.000111442
0.00204982
0.000274876
0.00107914
0.000728746
3.49552e-05
0.000940646
-0.000697254
0.000741895
-0.00127462
0.000612434
-0.00169582
0.000447287
-0.00199426
0.000310767
-0.00216025
0.000163157
-0.00218327
1.77425e-05
-0.00211662
-7.42871e-05
-0.00199347
-0.000131114
-0.00179214
-0.000210836
-0.00148065
-0.000322829
-0.00111611
-0.000375332
-0.000727072
-0.00039865
-0.000333604
-0.000401788
7.14433e-05
-0.00041279
0.000438791
-0.000373885
0.000769737
-0.000336739
0.00107257
-0.00030853
0.0013502
-0.00028406
0.00160369
-0.000260613
0.00183368
-0.000237739
0.00204734
-0.000222563
0.00225303
-0.000215042
0.00244647
-0.000202482
0.00262683
-0.000188629
0.00279608
-0.000176196
0.00295471
-0.000164288
0.00310425
-0.000154007
0.00324508
-0.000144191
0.00337833
-0.000135622
0.00350408
-0.00012731
0.00362336
-0.000119912
0.00373611
-0.000112662
0.00384291
-0.000106144
0.00394365
-9.97681e-05
0.0040387
-9.40381e-05
0.00412793
-8.84225e-05
0.00421189
-8.33273e-05
0.00429049
-7.82715e-05