/*--------------------------------*- C++ -*----------------------------------*\
  =========                 |
  \\      /  F ield         | OpenFOAM: The Open Source CFD Toolbox
   \\    /   O peration     | Website:  https://openfoam.org
    \\  /    A nd           | Version:  13
     \\/     M anipulation  |
\*---------------------------------------------------------------------------*/
FoamFile
{
    format      ascii;
    class       volScalarField;
    location    "3";
    object      T;
}
// * * * * * * * * * * * * * * * * * * * * * * * * * * * * * * * * * * * * * //

dimensions      [0 0 0 1 0 0 0];

internalField   nonuniform List<scalar> 
5250
(
1.00001
1.00002
1.00004
1.0001
1.00028
1.00062
1.00173
1.00374
1.01043
1.02378
1.06376
1.16366
1.44349
2.10837
2.64834
2.75878
2.74173
2.73805
2.74996
2.76814
2.78067
2.78911
2.79885
2.80065
2.79936
1
1.00001
1.00005
1.0001
1.00028
1.00061
1.00167
1.0038
1.00996
1.02391
1.06208
1.16149
1.43553
2.09449
2.64347
2.75853
2.74098
2.73695
2.74887
2.76698
2.77945
2.78784
2.79757
2.79937
2.79809
1
1.00002
1.00004
1.00011
1.00024
1.00066
1.00145
1.00403
1.00895
1.02421
1.05843
1.1569
1.41878
2.06274
2.63181
2.7572
2.73857
2.73363
2.74554
2.76338
2.77581
2.78409
2.7943
2.79631
2.79509
1
1.00001
1.00004
1.00009
1.00026
1.00054
1.00159
1.00333
1.00941
1.0214
1.05719
1.14607
1.39582
2.01186
2.61317
2.75448
2.73415
2.72803
2.73961
2.75816
2.7708
2.77947
2.7885
2.78965
2.7886
1
1.00001
1.00004
1.00009
1.00023
1.00054
1.00141
1.0032
1.00865
1.01994
1.05287
1.13473
1.36467
1.94287
2.58673
2.74924
2.72735
2.71924
2.73075
2.74871
2.76148
2.76979
2.78037
2.78265
2.78106
1
1.00001
1.00003
1.00009
1.00019
1.00054
1.00115
1.00328
1.00709
1.01955
1.04611
1.12363
1.32683
1.85755
2.55047
2.73922
2.7164
2.70724
2.71941
2.73701
2.75113
2.7578
2.76734
2.77041
2.76934
1
1.00001
1.00003
1.00008
1.00018
1.00046
1.00113
1.00271
1.00699
1.01655
1.04293
1.1088
1.29178
1.76643
2.50751
2.72506
2.70167
2.69185
2.70382
2.72108
2.73626
2.74334
2.75243
2.75497
2.75266
1
1.00001
1.00003
1.00006
1.00018
1.00039
1.00109
1.00235
1.00656
1.01469
1.03934
1.09786
1.26372
1.69791
2.46086
2.71043
2.68928
2.68008
2.68834
2.70422
2.71686
2.72337
2.73127
2.73088
2.72584
1
1.00001
1.00002
1.00007
1.00014
1.00039
1.00088
1.00233
1.00551
1.01399
1.03455
1.08918
1.23634
1.63095
2.3914
2.68374
2.67917
2.67298
2.67497
2.6856
2.697
2.69867
2.70319
2.69838
2.68077
1
1.00001
1.00002
1.00006
1.00013
1.00035
1.00078
1.00215
1.00471
1.01302
1.03
1.08034
1.20874
1.56188
2.29905
2.64745
2.67219
2.66463
2.66152
2.66608
2.67261
2.67171
2.66489
2.64509
2.58121
1
1.00001
1.00002
1.00005
1.00011
1.00032
1.00066
1.00192
1.00414
1.01134
1.0265
1.06999
1.18166
1.48942
2.18316
2.59954
2.66353
2.65432
2.64781
2.64756
2.64679
2.63958
2.61885
2.56967
2.45472
1
1.00001
1.00002
1.00004
1.0001
1.00026
1.00062
1.00151
1.00384
1.00915
1.02354
1.05831
1.15442
1.4124
2.03822
2.53724
2.65047
2.64126
2.63069
2.62691
2.62068
2.60484
2.57041
2.50032
2.3668
1
1
1.00001
1.00003
1.00009
1.0002
1.00055
1.00122
1.00322
1.00759
1.01935
1.04798
1.12532
1.33376
1.86455
2.4566
2.62701
2.62033
2.6104
2.60252
2.59234
2.57111
2.52855
2.45545
2.33233
1
1
1.00001
1.00003
1.00007
1.00016
1.00045
1.00093
1.00273
1.00578
1.01601
1.03726
1.09892
1.25704
1.67586
2.35789
2.58943
2.59126
2.58388
2.5744
2.56128
2.53728
2.49277
2.42579
2.3212
1
1
1.00001
1.00002
1.00006
1.00013
1.00037
1.00076
1.00223
1.00471
1.01306
1.0302
1.08007
1.20715
1.55167
2.24686
2.54635
2.56683
2.55783
2.54734
2.53223
2.50796
2.46314
2.40281
2.31475
1
1
1.00001
1.00002
1.00005
1.00011
1.00029
1.00063
1.00178
1.00379
1.0106
1.02406
1.06433
1.16424
1.44135
2.07505
2.47496
2.54642
2.53806
2.52511
2.50508
2.48184
2.43927
2.38263
2.30778
1
1
1.00001
1.00001
1.00004
1.00009
1.00022
1.00053
1.00128
1.00326
1.00767
1.01984
1.04838
1.12723
1.33632
1.86486
2.37829
2.51888
2.51755
2.50557
2.48125
2.45699
2.41933
2.36679
2.3005
1
1
1
1.00001
1.00003
1.00006
1.00017
1.00038
1.00104
1.00223
1.00626
1.01376
1.03697
1.09029
1.23994
1.62396
2.25137
2.47249
2.4877
2.47819
2.45773
2.43135
2.39842
2.35212
2.29349
1
1
1
1.00001
1.00002
1.00005
1.00012
1.00032
1.00071
1.00187
1.00441
1.01106
1.02722
1.06893
1.17965
1.47383
2.10268
2.41728
2.46153
2.4531
2.43498
2.40836
2.37732
2.33764
2.28623
1
1
1
1.00001
1.00001
1.00004
1.00009
1.00023
1.00056
1.00134
1.00345
1.00799
1.02083
1.05043
1.1328
1.34914
1.88356
2.31988
2.42996
2.42898
2.41422
2.38825
2.35753
2.32148
2.27759
1
1
1
1
1.00001
1.00003
1.00006
1.00018
1.00038
1.00103
1.00231
1.00599
1.01423
1.03594
1.09033
1.23568
1.61298
2.18379
2.38121
2.39921
2.3894
2.36769
2.33814
2.30505
2.26623
1
1
1
1
1.00001
1.00002
1.00005
1.00011
1.0003
1.00069
1.00174
1.00423
1.01031
1.02571
1.06417
1.16664
1.43657
2.01548
2.31917
2.37083
2.36409
2.34549
2.31925
2.28915
2.25417
1
1
1
1
1.00001
1.00001
1.00004
1.00008
1.00022
1.00047
1.00129
1.00287
1.00756
1.01777
1.04561
1.11518
1.30366
1.77271
2.21032
2.33213
2.33759
2.32586
2.30223
2.27343
2.2414
1
1
1
1
1
1.00001
1.00002
1.00005
1.00015
1.00032
1.00091
1.00187
1.00534
1.01154
1.03101
1.07436
1.19543
1.50699
2.05138
2.27154
2.30658
2.30131
2.28387
2.25717
2.22797
1
1
1
1
1
1.00001
1.00002
1.00004
1.00009
1.00024
1.00057
1.00139
1.00344
1.00818
1.02081
1.05047
1.13112
1.34028
1.83444
2.18178
2.27121
2.27587
2.26539
2.24335
2.21407
1
1
1
1
1
1
1.00001
1.00002
1.00007
1.00015
1.0004
1.00088
1.00229
1.00535
1.01338
1.03253
1.08212
1.21008
1.54423
2.03798
2.22064
2.2473
2.24287
2.22533
2.20179
1
1
1
1
1
1
1.00001
1.00002
1.00004
1.0001
1.00025
1.0006
1.00153
1.00347
1.00916
1.02093
1.05469
1.13586
1.35748
1.84326
2.14581
2.21581
2.21943
2.20898
2.18796
1
1
1
1
1
1
1
1.00001
1.00003
1.00007
1.00016
1.00041
1.00091
1.00246
1.00532
1.01445
1.03285
1.08635
1.21708
1.56175
2.01006
2.1696
2.19303
2.1887
2.17207
1
1
1
1
1
1
1
1.00001
1.00002
1.00005
1.0001
1.00027
1.00057
1.00161
1.00336
1.00931
1.02075
1.05459
1.13461
1.35317
1.81465
2.09302
2.15989
2.1654
2.15669
1
1
1
1
1
1
1
1
1.00001
1.00003
1.00007
1.00015
1.00039
1.00093
1.00223
1.00557
1.01302
1.03315
1.08057
1.20816
1.53073
1.95579
2.11296
2.13897
2.13687
1
1
1
1
1
1
1
1
1.00001
1.00002
1.00004
1.00011
1.00023
1.0006
1.00139
1.0034
1.00834
1.02
1.05006
1.12531
1.32513
1.75463
2.03202
2.10578
2.11455
1
1
1
1
1
1
1
1
1
1.00001
1.00003
1.00006
1.00014
1.00036
1.00081
1.00214
1.00467
1.01251
1.02812
1.0733
1.18067
1.46565
1.88393
2.05515
2.08648
1
1
1
1
1
1
1
1
1
1.00001
1.00002
1.00003
1.0001
1.0002
1.00055
1.00118
1.00313
1.00712
1.01802
1.04331
1.10968
1.28052
1.67166
1.97086
2.05534
1
1
1
1
1
1
1
1
1
1
1.00001
1.00002
1.00005
1.00013
1.00031
1.00072
1.00185
1.00409
1.01083
1.02437
1.06327
1.15486
1.40091
1.80733
1.9959
1
1
1
1
1
1
1
1
1
1
1.00001
1.00001
1.00003
1.00008
1.00017
1.00047
1.00099
1.00266
1.0059
1.01514
1.0357
1.09036
1.22787
1.56099
1.88861
1
1
1
1
1
1
1
1
1
1
1
1.00001
1.00002
1.00004
1.00011
1.00023
1.00065
1.00139
1.00367
1.00827
1.021
1.05
1.12671
1.32297
1.70187
1
1
1
1
1
1
1
1
1
1
1
1
1.00001
1.00003
1.00006
1.00016
1.00032
1.00088
1.00188
1.00491
1.01112
1.02794
1.06687
1.16886
1.42148
1
1
1
1
1
1
1
1
1
1
1
1
1.00001
1.00001
1.00004
1.00008
1.00021
1.00046
1.00114
1.00272
1.00643
1.01601
1.03772
1.09524
1.23872
1
1
1
1
1
1
1
1
1
1
1
1
1
1.00001
1.00002
1.00004
1.00012
1.00025
1.00066
1.00147
1.00366
1.00864
1.02094
1.05109
1.12674
1
1
1
1
1
1
1
1
1
1
1
1
1
1
1.00001
1.00002
1.00006
1.00014
1.00035
1.00081
1.00195
1.00473
1.01098
1.02736
1.06474
1
1
1
1
1
1
1
1
1
1
1
1
1
1
1.00001
1.00001
1.00004
1.00007
1.0002
1.00043
1.00113
1.00251
1.00626
1.01479
1.03587
1
1
1
1
1
1
1
1
1
1
1
1
1
1
1
1.00001
1.00002
1.00004
1.0001
1.00026
1.00055
1.00149
1.00309
1.00845
1.01821
1
1
1
1
1
1
1
1
1
1
1
1
1
1
1
1
1.00001
1.00002
1.00006
1.00012
1.00033
1.00068
1.00186
1.00394
1.0103
1
1
1
1
1
1
1
1
1
1
1
1
1
1
1
1
1.00001
1.00001
1.00003
1.00007
1.00016
1.00042
1.00086
1.00237
1.00491
1
1
1
1
1
1
1
1
1
1
1
1
1
1
1
1
1
1.00001
1.00002
1.00004
1.00009
1.00021
1.00048
1.00122
1.00263
1
1
1
1
1
1
1
1
1
1
1
1
1
1
1
1
1
1
1.00001
1.00002
1.00005
1.0001
1.00028
1.00057
1.00159
1
1
1
1
1
1
1
1
1
1
1
1
1
1
1
1
1
1
1
1.00001
1.00002
1.00007
1.00014
1.00037
1.00081
1
1
1
1
1
1
1
1
1
1
1
1
1
1
1
1
1
1
1
1.00001
1.00002
1.00004
1.00011
1.00023
1.00065
1
1
1
1
1
1
1
1
1
1
1
1
1
1
1
1
1
1
1
1.00001
1.00002
1.00003
1.00009
1.00021
1.00051
1
1
1
1
1
1
1
1
1
1
1
1
1
1
1
1
1
1
1
1.00001
1.00001
1.00003
1.00008
1.00019
1.0005
2.23735
2.07128
2.01843
2.04712
2.10492
2.17437
2.23991
2.27198
2.27812
2.27613
2.27474
2.27493
2.27676
2.28008
2.28387
2.28742
2.28926
2.2906
2.29184
2.29333
2.29525
2.2984
2.30369
2.31422
2.33591
2.3814
2.47507
2.65408
2.88955
3.03815
3.03635
3.07581
3.12629
3.13502
3.11089
3.09829
3.09514
3.09457
3.10362
3.11497
3.12106
3.12586
3.12683
3.12737
3.11937
3.11678
3.11
3.10596
3.09623
3.09113
3.08042
3.07372
3.05937
3.05179
3.03626
3.02828
3.01315
3.00506
2.99009
2.98132
2.96602
2.95619
2.94029
2.92974
2.91342
2.90254
2.8861
2.87495
2.85858
2.8472
2.83105
2.81959
2.80374
2.79229
2.77675
2.76528
2.74989
2.73842
2.723
2.71169
2.69617
2.68521
2.66969
2.65926
2.64382
2.63405
2.6187
2.6096
2.5943
2.58579
2.57059
2.56252
2.54756
2.53966
2.52548
2.51762
2.50472
2.49812
2.48869
2.48676
2.23165
2.13258
2.07778
2.04018
2.00309
1.97383
1.96608
1.96962
1.98268
2.00132
2.01577
2.02059
2.02076
2.01973
2.01976
2.0201
2.02099
2.02283
2.02484
2.0265
2.02791
2.03003
2.03377
2.04168
2.05887
2.09658
2.17805
2.36078
2.60927
2.84761
2.93664
2.99483
3.06433
3.11451
3.13588
3.13955
3.13112
3.11772
3.09534
3.07523
3.0342
3.01655
2.98276
2.96425
2.93718
2.92459
2.90189
2.89146
2.87126
2.86126
2.8429
2.83167
2.81316
2.80203
2.78482
2.77388
2.75739
2.74628
2.73023
2.71862
2.7028
2.69088
2.67527
2.66315
2.64759
2.63518
2.61954
2.60686
2.59111
2.57843
2.56267
2.55038
2.53468
2.52301
2.50725
2.49624
2.48029
2.46982
2.45366
2.44367
2.42736
2.41781
2.40155
2.39231
2.37643
2.36724
2.35205
2.34274
2.32825
2.3189
2.30493
2.29562
2.28208
2.27279
2.25975
2.25077
2.23865
2.23096
2.22189
2.21873
2.23037
2.1427
2.06212
1.98657
1.91691
1.86293
1.8366
1.83424
1.83807
1.84944
1.865
1.87773
1.8852
1.88788
1.88816
1.88808
1.88819
1.88847
1.88898
1.89009
1.89122
1.89302
1.89576
1.90135
1.91318
1.93898
1.99551
2.12903
2.31367
2.65018
2.73498
2.77721
2.83804
2.90448
2.96745
3.00901
3.01428
3.00415
2.9699
2.9336
2.90076
2.87611
2.84848
2.83154
2.81072
2.79828
2.77996
2.76852
2.75121
2.74072
2.72455
2.71359
2.69569
2.68343
2.66657
2.65514
2.63882
2.62718
2.61094
2.59927
2.58319
2.57171
2.55566
2.5444
2.52828
2.51726
2.50104
2.49028
2.47384
2.46323
2.44659
2.43611
2.41968
2.40941
2.39365
2.38346
2.36854
2.35818
2.34393
2.33332
2.31945
2.30874
2.29505
2.28447
2.27091
2.2607
2.24738
2.23757
2.22451
2.21508
2.2024
2.19315
2.18097
2.1717
2.16011
2.15088
2.1401
2.13172
2.12341
2.11919
2.22243
2.13568
2.05435
1.9805
1.9151
1.86168
1.82025
1.79072
1.77451
1.77059
1.772
1.77799
1.78698
1.79617
1.80132
1.80363
1.80344
1.80311
1.80232
1.80239
1.80271
1.80347
1.80519
1.80879
1.81633
1.8328
1.86905
1.948
2.12842
2.40226
2.5075
2.62163
2.69212
2.73223
2.78736
2.82946
2.84161
2.8322
2.80605
2.77596
2.74518
2.72757
2.71388
2.70314
2.68792
2.67936
2.66544
2.65654
2.64125
2.63203
2.61677
2.60695
2.59063
2.57964
2.56337
2.55285
2.53645
2.52529
2.50825
2.49688
2.48001
2.46904
2.45266
2.44187
2.42562
2.41439
2.39804
2.38632
2.37027
2.35854
2.34316
2.33168
2.31691
2.30569
2.29149
2.28054
2.26681
2.25606
2.24246
2.23187
2.21822
2.20796
2.19449
2.18477
2.17164
2.16243
2.14973
2.14092
2.12867
2.12004
2.10805
2.09956
2.08773
2.07956
2.06784
2.06034
2.0491
2.04297
2.03413
2.03236
2.22236
2.13675
2.05821
1.98709
1.92287
1.86609
1.81692
1.77579
1.74429
1.72379
1.716
1.71606
1.71785
1.72291
1.73063
1.73649
1.7412
1.74297
1.744
1.74405
1.74425
1.74461
1.74552
1.74758
1.7522
1.76236
1.78483
1.83419
1.96369
2.10942
2.38394
2.50796
2.5429
2.60368
2.67264
2.71437
2.72152
2.71081
2.68242
2.6535
2.62253
2.6019
2.59314
2.58788
2.57846
2.57056
2.55971
2.55358
2.54198
2.53424
2.52044
2.51112
2.4957
2.48466
2.46883
2.45801
2.44278
2.4316
2.4162
2.40464
2.38913
2.37728
2.36158
2.34985
2.33454
2.32355
2.30889
2.29843
2.28403
2.27367
2.25931
2.2489
2.23467
2.22427
2.21044
2.20034
2.18721
2.17773
2.16525
2.15629
2.14405
2.13527
2.12286
2.11414
2.10171
2.09329
2.081
2.07298
2.06104
2.05346
2.04198
2.03473
2.02372
2.01663
2.00599
1.99904
1.9889
1.98255
1.97433
1.97164
2.22452
2.14409
2.06894
1.99992
1.93722
1.88035
1.83011
1.78629
1.74984
1.72034
1.698
1.68373
1.6782
1.67824
1.67963
1.68355
1.6899
1.69508
1.69961
1.70117
1.70205
1.70197
1.70212
1.70275
1.70464
1.70966
1.72185
1.7501
1.81334
1.95863
2.17728
2.34275
2.4527
2.53137
2.59278
2.64186
2.64594
2.63147
2.59879
2.55801
2.52482
2.50367
2.49124
2.48678
2.48279
2.47871
2.47132
2.46606
2.45568
2.44971
2.43873
2.43068
2.41685
2.40542
2.39032
2.37936
2.36568
2.35471
2.34047
2.32895
2.31505
2.30432
2.29111
2.28067
2.26722
2.25659
2.24298
2.23276
2.21966
2.21021
2.19756
2.18845
2.17579
2.1667
2.154
2.14517
2.1327
2.12443
2.11221
2.10427
2.09216
2.08447
2.07257
2.06505
2.05345
2.04601
2.03473
2.02724
2.01627
2.00869
1.998
1.99042
1.97999
1.97263
1.96244
1.95549
1.94573
1.93964
1.93161
1.92919
2.22662
2.15256
2.08213
2.01612
1.95541
1.89956
1.84911
1.80363
1.76365
1.72858
1.69963
1.67629
1.65981
1.65005
1.64707
1.64726
1.64871
1.65227
1.657
1.66082
1.66366
1.66518
1.66609
1.6668
1.66826
1.67142
1.67857
1.69492
1.73196
1.8149
1.9817
2.23717
2.35622
2.47708
2.56744
2.60581
2.60388
2.58277
2.54138
2.49383
2.45559
2.43078
2.41707
2.41096
2.40187
2.39651
2.39213
2.38823
2.38036
2.37496
2.36554
2.35875
2.34743
2.33747
2.32367
2.31262
2.29977
2.29042
2.27879
2.26966
2.25746
2.24789
2.23543
2.2263
2.21434
2.20589
2.19411
2.18554
2.17324
2.16433
2.15195
2.14347
2.13177
2.12404
2.11286
2.10539
2.09404
2.08623
2.07448
2.06659
2.05481
2.04715
2.03571
2.02845
2.0175
2.01056
2.00003
1.99323
1.98303
1.97624
1.96633
1.9595
1.94983
1.94304
1.93357
1.92695
1.91783
1.91176
1.90409
1.90138
2.22701
2.15904
2.0932
2.03075
1.97245
1.91831
1.86856
1.82309
1.78207
1.7454
1.71353
1.68599
1.66354
1.64565
1.63339
1.62617
1.62388
1.62409
1.62539
1.62853
1.63272
1.63643
1.63933
1.6409
1.64194
1.64373
1.64779
1.65719
1.67892
1.72838
1.84015
2.04282
2.28328
2.46449
2.57759
2.59665
2.58815
2.55749
2.50819
2.45427
2.41163
2.38133
2.36317
2.35237
2.33892
2.32866
2.32308
2.3182
2.31172
2.307
2.29901
2.29432
2.28601
2.28
2.26946
2.26116
2.24907
2.23987
2.22807
2.21993
2.20938
2.20231
2.19211
2.18483
2.17376
2.16567
2.15393
2.14584
2.13441
2.12699
2.11613
2.109
2.09806
2.09065
2.07935
2.07171
2.06038
2.05305
2.04203
2.035
2.02432
2.01744
2.00709
2.00037
1.99033
1.98372
1.97393
1.96731
1.95771
1.95102
1.94163
1.93492
1.92572
1.91913
1.91011
1.90377
1.89506
1.88936
1.88189
1.87952
2.22752
2.16519
2.10369
2.04441
1.9887
1.93632
1.8879
1.84288
1.80191
1.76427
1.73073
1.7005
1.67449
1.65198
1.63387
1.61954
1.6102
1.60497
1.60357
1.60382
1.60493
1.60746
1.6105
1.61324
1.61572
1.61804
1.62139
1.6283
1.64319
1.67602
1.74845
1.89769
2.17108
2.46718
2.60832
2.61056
2.59367
2.55391
2.49629
2.43365
2.38301
2.34436
2.31587
2.29568
2.27892
2.26452
2.25452
2.24808
2.24524
2.2434
2.23973
2.23649
2.23001
2.22612
2.21902
2.21424
2.20545
2.19907
2.18873
2.18143
2.17049
2.16308
2.15227
2.14534
2.13503
2.12854
2.11846
2.11203
2.10181
2.09515
2.08471
2.07791
2.06744
2.06058
2.0502
2.04346
2.03328
2.02658
2.01651
2.00977
1.99975
1.993
1.98314
1.97648
1.96688
1.96035
1.95097
1.94449
1.93525
1.92874
1.91961
1.91307
1.90411
1.89764
1.8889
1.88266
1.87422
1.8686
1.86128
1.85887
2.22568
2.16977
2.11291
2.05716
2.00382
1.95343
1.90629
1.86228
1.82162
1.78399
1.7497
1.71834
1.69032
1.66528
1.64373
1.62536
1.61073
1.59913
1.59168
1.58752
1.5865
1.58678
1.58787
1.59035
1.59366
1.5973
1.60119
1.60731
1.6199
1.64688
1.70569
1.83113
2.12892
2.42956
2.61773
2.63193
2.60829
2.5578
2.47786
2.40727
2.35119
2.30695
2.26769
2.23891
2.21725
2.2041
2.19467
2.18765
2.18441
2.18477
2.18615
2.1855
2.18362
2.18124
2.17643
2.1731
2.16621
2.16091
2.15156
2.14572
2.13673
2.13151
2.12271
2.11738
2.1081
2.10227
2.09256
2.08635
2.07648
2.07005
2.06015
2.05357
2.04362
2.03698
2.02706
2.02048
2.01065
2.00412
1.9944
1.98781
1.97818
1.97146
1.9619
1.95517
1.94568
1.93906
1.92973
1.92322
1.91409
1.90766
1.89875
1.89242
1.88372
1.87754
1.86903
1.86304
1.85479
1.84929
1.84207
1.83963
2.22148
2.17165
2.11999
2.06821
2.01796
1.9695
1.92401
1.88085
1.84089
1.80332
1.76886
1.73679
1.70769
1.681
1.65722
1.63596
1.61771
1.60224
1.59003
1.58045
1.57448
1.57134
1.57096
1.57143
1.57284
1.57587
1.58081
1.58806
1.60141
1.62854
1.68498
1.79735
2.04483
2.30485
2.5637
2.5734
2.5429
2.49062
2.42558
2.36329
2.30948
2.26771
2.23342
2.20365
2.18144
2.16429
2.15513
2.14542
2.14193
2.13884
2.13902
2.14
2.14225
2.14164
2.13991
2.13801
2.13416
2.13087
2.12383
2.11898
2.11028
2.10486
2.09574
2.09025
2.08128
2.07595
2.06698
2.06138
2.05212
2.04612
2.03666
2.03032
2.02088
2.01442
2.00505
1.99853
1.98916
1.9826
1.97324
1.96667
1.95738
1.95083
1.94164
1.93508
1.92601
1.91944
1.9105
1.90402
1.8952
1.88893
1.88022
1.87418
1.86564
1.85978
1.85144
1.84573
1.83762
1.83231
1.82515
1.82276
2.21443
2.17043
2.12413
2.07669
2.03011
1.98444
1.94081
1.89929
1.85999
1.82326
1.78861
1.75662
1.72659
1.69921
1.67374
1.65094
1.63011
1.61208
1.59614
1.58337
1.57276
1.56538
1.56055
1.55948
1.56009
1.56207
1.56654
1.57578
1.59344
1.62934
1.69913
1.83304
2.02385
2.20165
2.39623
2.47544
2.46865
2.44663
2.41407
2.35979
2.30263
2.25863
2.22266
2.19139
2.16509
2.14423
2.12885
2.11756
2.10974
2.10447
2.10098
2.10088
2.10144
2.10312
2.10375
2.10297
2.10082
2.09872
2.0943
2.09049
2.08267
2.07764
2.06915
2.0642
2.05581
2.05076
2.04224
2.03692
2.02823
2.02251
2.01356
2.00759
1.99859
1.99253
1.98355
1.97736
1.96834
1.96191
1.95286
1.94635
1.93738
1.931
1.92207
1.91581
1.90689
1.90073
1.89197
1.88587
1.87742
1.87135
1.86315
1.85718
1.849
1.84322
1.83495
1.82939
1.82121
1.81605
1.80885
1.8065
2.2056
2.16629
2.12493
2.08176
2.03861
1.99623
1.95469
1.91507
1.87697
1.84099
1.80697
1.77486
1.74498
1.71677
1.69093
1.66658
1.6448
1.62441
1.60681
1.59071
1.57754
1.56636
1.5581
1.55365
1.55376
1.55568
1.56092
1.57294
1.59855
1.65121
1.75792
1.90463
2.03556
2.11941
2.22737
2.347
2.4
2.40091
2.38497
2.36009
2.31008
2.26497
2.22587
2.19024
2.15888
2.13429
2.11343
2.09704
2.08558
2.07661
2.06907
2.06684
2.0639
2.06399
2.06469
2.06653
2.06603
2.0648
2.06206
2.0598
2.05503
2.05113
2.04324
2.03852
2.03031
2.0255
2.01742
2.01252
2.00421
1.99878
1.99024
1.98455
1.97596
1.97016
1.96152
1.9556
1.9469
1.94085
1.93213
1.92598
1.91731
1.9112
1.9026
1.89659
1.88805
1.88214
1.87366
1.86781
1.85943
1.85361
1.8453
1.83951
1.83128
1.82557
1.81748
1.81195
1.80408
1.79909
1.79209
1.79003
2.19644
2.16155
2.12399
2.08544
2.04529
2.00582
1.96696
1.92891
1.89264
1.85741
1.82431
1.79245
1.76276
1.73427
1.70821
1.68301
1.66057
1.63873
1.61995
1.60172
1.58676
1.57275
1.56224
1.55508
1.55509
1.55754
1.56502
1.58295
1.62222
1.70453
1.84233
1.97016
2.03301
2.07482
2.11558
2.18237
2.26528
2.31987
2.33742
2.32723
2.30567
2.2701
2.23426
2.19561
2.16155
2.1313
2.10597
2.08468
2.06735
2.05397
2.04394
2.03692
2.03077
2.02853
2.02771
2.02809
2.02914
2.02992
2.02926
2.02788
2.02558
2.0231
2.01753
2.01337
2.00535
2.00058
1.99262
1.98775
1.97973
1.97459
1.96652
1.96123
1.95307
1.94762
1.9393
1.93374
1.92536
1.91974
1.91137
1.90567
1.89726
1.8915
1.88301
1.87722
1.86867
1.86283
1.85436
1.84853
1.84028
1.8346
1.82657
1.82112
1.81324
1.80803
1.80028
1.79522
1.78764
1.78278
1.77597
1.77357
2.18553
2.15491
2.12121
2.08542
2.04969
2.01208
1.97605
1.93996
1.90517
1.87143
1.83928
1.808
1.7792
1.75041
1.72491
1.69901
1.6766
1.65381
1.63431
1.615
1.59839
1.58337
1.5706
1.56401
1.56436
1.56866
1.58073
1.6099
1.67535
1.79406
1.925
1.99962
2.02948
2.03797
2.0496
2.07554
2.12135
2.17986
2.24167
2.27132
2.26882
2.25733
2.23805
2.20272
2.17004
2.13564
2.10587
2.07907
2.05736
2.03927
2.02433
2.01403
2.00447
1.99849
1.9956
1.99273
1.99277
1.99333
1.995
1.99462
1.99344
1.99215
1.9896
1.98683
1.98072
1.97642
1.96856
1.9639
1.95641
1.95184
1.94427
1.9393
1.93131
1.92609
1.91795
1.91268
1.90454
1.89914
1.89096
1.88543
1.87717
1.87161
1.86333
1.85779
1.84958
1.84407
1.83598
1.8305
1.82255
1.81718
1.80939
1.80414
1.79642
1.79118
1.78349
1.77827
1.77076
1.76585
1.75918
1.75685
2.17413
2.1462
2.1165
2.08398
2.05023
2.01696
1.98175
1.94853
1.91525
1.88248
1.8521
1.82093
1.79324
1.76481
1.73937
1.71405
1.69076
1.66874
1.64763
1.6289
1.61055
1.59567
1.58233
1.57831
1.58079
1.58884
1.61004
1.65947
1.76136
1.8928
1.97861
2.00807
2.01467
2.01216
2.00912
2.01111
2.02388
2.05241
2.09862
2.15484
2.19439
2.21612
2.20803
2.19369
2.17384
2.14233
2.11217
2.08153
2.05502
2.03198
2.01314
1.99763
1.98467
1.97545
1.96765
1.9615
1.95996
1.95882
1.95907
1.95971
1.96105
1.96058
1.95946
1.95817
1.95533
1.95212
1.94542
1.9411
1.93378
1.92923
1.92183
1.91718
1.9096
1.90474
1.89695
1.89185
1.88398
1.87868
1.8708
1.86546
1.85763
1.85237
1.84459
1.83937
1.8316
1.8264
1.81867
1.81341
1.80574
1.8004
1.79279
1.78751
1.78002
1.77489
1.76746
1.76241
1.75505
1.75023
1.7436
1.74123
2.16284
2.13514
2.10835
2.07969
2.04906
2.01727
1.98667
1.95295
1.92361
1.89097
1.86232
1.83255
1.80461
1.77814
1.75154
1.72822
1.70347
1.68281
1.66057
1.64239
1.62342
1.60897
1.59833
1.59845
1.604
1.61935
1.65723
1.74061
1.871
1.96687
2.00189
2.00696
2.00046
1.99076
1.98033
1.97067
1.96985
1.97456
1.99108
2.02433
2.06783
2.11797
2.14638
2.15852
2.15121
2.13651
2.1138
2.08744
2.0598
2.03242
2.00901
1.98886
1.97139
1.95694
1.94589
1.93677
1.93154
1.9274
1.92594
1.92603
1.92659
1.92779
1.92764
1.92716
1.92621
1.92466
1.92104
1.91758
1.91054
1.90591
1.89868
1.89422
1.88702
1.88248
1.87524
1.8705
1.86323
1.85831
1.85103
1.84598
1.83857
1.83345
1.82592
1.82083
1.81325
1.80813
1.80068
1.79557
1.78834
1.78326
1.77608
1.77095
1.76368
1.75857
1.75133
1.7464
1.73932
1.73481
1.72839
1.72636
2.14904
2.12567
2.09872
2.07307
2.04535
2.01594
1.98752
1.95735
1.92726
1.89911
1.86889
1.84261
1.81395
1.789
1.76301
1.7391
1.71637
1.69374
1.67392
1.65363
1.63739
1.62274
1.61952
1.62348
1.63523
1.66417
1.7333
1.85441
1.96103
2.0044
2.00945
2.0011
1.98912
1.97331
1.9566
1.9432
1.93435
1.9301
1.93105
1.93929
1.95894
1.9911
2.03151
2.07248
2.09431
2.10146
2.09456
2.08106
2.05969
2.03547
2.0107
1.98636
1.96475
1.94671
1.931
1.9182
1.90953
1.90143
1.89641
1.89466
1.89311
1.89322
1.89373
1.89509
1.89477
1.89414
1.89312
1.89129
1.88713
1.88362
1.87691
1.87248
1.86535
1.86082
1.85383
1.84938
1.84253
1.83799
1.83107
1.82638
1.81928
1.81447
1.80724
1.80238
1.79517
1.79017
1.78289
1.77772
1.77039
1.76533
1.75817
1.7534
1.74644
1.74186
1.73498
1.73049
1.72368
1.71938
1.71314
1.71101
2.1374
2.1129
2.09011
2.06384
2.04067
2.01276
1.98611
1.95882
1.93091
1.90306
1.87646
1.84872
1.8239
1.79716
1.77406
1.74911
1.72748
1.7052
1.68515
1.66668
1.6504
1.6432
1.64527
1.65469
1.67843
1.73504
1.84754
1.96143
2.01384
2.0206
2.01107
1.99697
1.97793
1.95764
1.93903
1.92447
1.91097
1.9016
1.89439
1.89243
1.89373
1.90276
1.92181
1.95029
1.98569
2.02007
2.03906
2.04623
2.04047
2.02899
2.0097
1.98728
1.96504
1.94377
1.92383
1.90676
1.89258
1.88128
1.87345
1.86727
1.86281
1.86173
1.86162
1.86198
1.8627
1.86421
1.86406
1.86355
1.86227
1.86001
1.85489
1.85104
1.84426
1.83994
1.83307
1.82872
1.82201
1.81771
1.81106
1.80674
1.79997
1.79553
1.78855
1.78389
1.7769
1.77225
1.76543
1.76084
1.75403
1.74936
1.74247
1.73772
1.73078
1.72608
1.71911
1.71454
1.7077
1.70343
1.69729
1.69525
2.12265
2.10082
2.07871
2.0555
2.03165
2.00839
1.98244
1.95744
1.93188
1.90588
1.87996
1.85498
1.82947
1.80597
1.78128
1.75975
1.7362
1.71673
1.69574
1.6798
1.66818
1.66842
1.67629
1.69676
1.74346
1.84551
1.96636
2.0276
2.03656
2.02655
2.01097
1.99
1.96599
1.94429
1.92567
1.90893
1.89478
1.88236
1.87126
1.86201
1.85476
1.85297
1.85429
1.86287
1.88102
1.90744
1.93901
1.96929
1.98628
1.99415
1.98853
1.97835
1.96181
1.94115
1.92129
1.90204
1.88351
1.86803
1.8559
1.8469
1.83932
1.8349
1.83199
1.83155
1.83178
1.83236
1.83374
1.83372
1.83345
1.83265
1.83065
1.82807
1.82247
1.81849
1.81182
1.80758
1.80119
1.7972
1.79104
1.78726
1.78116
1.77741
1.77121
1.76719
1.76064
1.75621
1.74941
1.74471
1.73792
1.73308
1.72636
1.72152
1.71483
1.71013
1.70346
1.69896
1.69238
1.68829
1.6823
1.68051
2.10806
2.09055
2.0684
2.04596
2.02431
2.00124
1.97893
1.95436
1.93063
1.90665
1.88246
1.85804
1.83487
1.81102
1.78886
1.76602
1.74587
1.72477
1.70785
1.69361
1.69212
1.69861
1.71591
1.75667
1.84619
1.97253
2.04467
2.05684
2.04661
2.02981
2.00715
1.98066
1.95668
1.93543
1.91621
1.89822
1.88191
1.86694
1.85371
1.84133
1.8298
1.82107
1.81438
1.81317
1.81444
1.82176
1.83763
1.86157
1.88878
1.91578
1.93216
1.94289
1.9377
1.9299
1.91828
1.90035
1.88161
1.86323
1.84626
1.83236
1.82179
1.81352
1.80696
1.8029
1.80165
1.80123
1.80145
1.80204
1.80346
1.80328
1.80284
1.80188
1.79955
1.79697
1.79167
1.7882
1.78243
1.77873
1.77284
1.76894
1.76287
1.75891
1.75266
1.74863
1.74215
1.73795
1.73134
1.72692
1.72038
1.71584
1.70943
1.70486
1.6986
1.69413
1.68803
1.68376
1.67773
1.67387
1.66823
1.66651
2.08778
2.07659
2.05793
2.0357
2.01464
1.99404
1.97213
1.95102
1.92788
1.9055
1.88299
1.86032
1.83768
1.81594
1.79408
1.77332
1.75257
1.73544
1.71943
1.7161
1.72172
1.7367
1.77301
1.84913
1.97864
2.06252
2.07896
2.0695
2.05238
2.0276
1.9997
1.97353
1.95066
1.92916
1.90944
1.89026
1.87272
1.85553
1.8401
1.82564
1.81285
1.80056
1.78948
1.7806
1.77422
1.77224
1.77327
1.77901
1.79211
1.81416
1.83814
1.863
1.88108
1.89375
1.89025
1.88539
1.87707
1.86155
1.84318
1.82557
1.81111
1.7988
1.78852
1.78107
1.77581
1.77316
1.77281
1.77299
1.77346
1.77445
1.77532
1.77524
1.77485
1.77368
1.77062
1.76776
1.76214
1.7585
1.7528
1.74919
1.74356
1.74001
1.73419
1.73051
1.72448
1.72062
1.71445
1.71034
1.70409
1.6998
1.69361
1.68927
1.6832
1.67889
1.67288
1.66877
1.6628
1.65909
1.65356
1.65184
2.06721
2.06195
2.04679
2.02642
2.00568
1.98595
1.96565
1.94503
1.9243
1.90267
1.88155
1.86035
1.83944
1.81779
1.79805
1.77802
1.76007
1.74455
1.73917
1.74388
1.7576
1.78952
1.85828
1.98782
2.0818
2.10325
2.09429
2.07689
2.05045
2.02101
1.99336
1.96863
1.94557
1.92408
1.90333
1.88375
1.86479
1.84705
1.82981
1.81371
1.7984
1.78472
1.7715
1.7594
1.74885
1.7402
1.73386
1.7309
1.73173
1.73599
1.74683
1.767
1.78888
1.81243
1.83306
1.84557
1.84771
1.84447
1.83761
1.82432
1.80747
1.79169
1.77728
1.7653
1.75634
1.7491
1.74569
1.74368
1.74368
1.74402
1.7454
1.74621
1.74726
1.74724
1.74683
1.74559
1.74229
1.73948
1.73424
1.73086
1.72534
1.72193
1.71629
1.7128
1.707
1.70337
1.69753
1.69378
1.68791
1.68394
1.67813
1.67404
1.66837
1.66432
1.65866
1.65469
1.64901
1.6453
1.64003
1.63824
2.0362
2.04083
2.03359
2.01758
1.99711
1.97764
1.95865
1.93964
1.91992
1.90033
1.87983
1.85952
1.83968
1.81994
1.80023
1.78289
1.76694
1.76065
1.76438
1.77754
1.8076
1.87384
1.99409
2.09622
2.12367
2.11693
2.09996
2.07313
2.0427
2.01432
1.98852
1.96459
1.94165
1.91963
1.89852
1.87857
1.85922
1.84052
1.82204
1.80444
1.78736
1.77179
1.75721
1.74431
1.73145
1.71964
1.70873
1.70007
1.69364
1.69041
1.69119
1.69431
1.7035
1.72134
1.74143
1.76365
1.7853
1.79861
1.80727
1.80404
1.79843
1.78902
1.77646
1.76144
1.74684
1.73513
1.72654
1.72053
1.71742
1.71654
1.71672
1.71733
1.71923
1.72044
1.72093
1.72083
1.72015
1.71858
1.71488
1.71218
1.70699
1.70383
1.69846
1.69518
1.68967
1.68619
1.68063
1.67701
1.67155
1.66774
1.66234
1.65845
1.65306
1.64926
1.64389
1.64019
1.63476
1.63129
1.62616
1.62453
1.99948
2.0188
2.01754
2.00644
1.9887
1.96899
1.95051
1.9325
1.91451
1.896
1.87753
1.85839
1.83946
1.82084
1.80362
1.78833
1.78103
1.78407
1.79702
1.82611
1.89103
2.00429
2.11345
2.14605
2.1406
2.12375
2.09584
2.06449
2.03567
2.00933
1.98444
1.96044
1.93731
1.91537
1.89426
1.87378
1.8536
1.83392
1.81464
1.79621
1.77856
1.76192
1.74627
1.73154
1.71775
1.70432
1.69176
1.68003
1.66961
1.66116
1.6554
1.65179
1.65237
1.65445
1.66188
1.67695
1.69526
1.71735
1.73978
1.75588
1.76753
1.76642
1.76264
1.7564
1.74378
1.72923
1.71694
1.70724
1.69967
1.69427
1.69148
1.69141
1.69172
1.69262
1.69447
1.69573
1.69598
1.69576
1.69485
1.69305
1.68905
1.68633
1.68114
1.67801
1.67268
1.66943
1.66415
1.66075
1.65556
1.65205
1.64694
1.64335
1.63823
1.6346
1.62949
1.62596
1.62083
1.61756
1.61266
1.61105
1.92408
1.98634
1.99689
1.99309
1.98016
1.96168
1.94327
1.92576
1.90834
1.89119
1.87334
1.85573
1.83838
1.82174
1.80712
1.79976
1.80259
1.81565
1.84434
1.90827
2.01763
2.13465
2.17069
2.16577
2.14815
2.11874
2.08599
2.05643
2.02945
2.00392
1.97932
1.95563
1.933
1.91095
1.88955
1.86844
1.84785
1.82759
1.80809
1.78916
1.7713
1.75397
1.73759
1.72148
1.70637
1.69185
1.67857
1.66556
1.65359
1.64249
1.6326
1.62421
1.61838
1.61386
1.61423
1.61595
1.62181
1.63375
1.65112
1.67322
1.69464
1.71463
1.72784
1.73212
1.72871
1.72305
1.7116
1.69977
1.68965
1.68123
1.67449
1.66983
1.66769
1.66783
1.66839
1.66939
1.67076
1.6717
1.67204
1.67163
1.67025
1.66829
1.66402
1.66114
1.65602
1.65292
1.64793
1.64475
1.63985
1.63654
1.63173
1.62834
1.62362
1.62019
1.61542
1.61211
1.60724
1.60422
1.59961
1.59816
1.78188
1.9379
1.96992
1.97411
1.96837
1.9546
1.93654
1.91924
1.90243
1.88598
1.86964
1.85302
1.83751
1.82354
1.81641
1.8194
1.83291
1.86183
1.92606
2.03525
2.15254
2.19092
2.18672
2.1696
2.13973
2.10607
2.07599
2.04879
2.02323
1.99841
1.97437
1.95105
1.9283
1.90613
1.8843
1.86284
1.84178
1.82129
1.8016
1.78268
1.76452
1.74686
1.72976
1.71307
1.69709
1.68181
1.66744
1.65387
1.64112
1.62864
1.61683
1.6058
1.59601
1.5878
1.58203
1.5773
1.57775
1.57937
1.58359
1.59343
1.61004
1.63113
1.65292
1.67569
1.69127
1.69902
1.69647
1.69156
1.68183
1.67281
1.66429
1.65628
1.65065
1.64735
1.64575
1.64586
1.64644
1.64776
1.64827
1.64958
1.64947
1.64866
1.64647
1.64435
1.64002
1.63729
1.63254
1.62951
1.62485
1.62169
1.61716
1.61392
1.60944
1.60627
1.60169
1.59862
1.59393
1.5911
1.58669
1.58543
1.56725
1.85003
1.93953
1.95568
1.95519
1.94626
1.93065
1.91269
1.89571
1.87981
1.86438
1.85012
1.8373
1.83109
1.83465
1.84894
1.87868
1.94401
2.05462
2.17109
2.2106
2.20674
2.18985
2.16002
2.12564
2.09516
2.06793
2.04235
2.01746
1.99306
1.96929
1.94599
1.9232
1.90071
1.87858
1.85689
1.8358
1.81545
1.79579