/*--------------------------------*- C++ -*----------------------------------*\
  =========                 |
  \\      /  F ield         | OpenFOAM: The Open Source CFD Toolbox
   \\    /   O peration     | Website:  https://openfoam.org
    \\  /    A nd           | Version:  13
     \\/     M anipulation  |
\*---------------------------------------------------------------------------*/
FoamFile
{
    format      ascii;
    class       volVectorField;
    location    "3";
    object      U;
}
// * * * * * * * * * * * * * * * * * * * * * * * * * * * * * * * * * * * * * //

dimensions      [0 1 -1 0 0 0 0];

internalField   nonuniform List<vector> 
5250
(
(3 2.53874e-08 0)
(2.99999 1.14449e-08 0)
(2.99996 4.3653e-07 0)
(2.99991 6.80754e-08 0)
(2.99978 3.24012e-06 0)
(2.99945 8.63351e-07 0)
(2.99865 2.02415e-05 0)
(2.99666 1.16004e-05 0)
(2.99174 0.000109656 0)
(2.97936 0.000132546 0)
(2.94732 0.000552916 0)
(2.85937 0.00117342 0)
(2.60501 0.00348888 0)
(1.85964 0.00983134 0)
(0.864952 0.0266478 0)
(0.449423 0.024611 0)
(0.53642 0.0247265 0)
(0.559455 0.0266318 0)
(0.504334 0.0285634 0)
(0.413215 0.030539 0)
(0.327801 0.0328901 0)
(0.258648 0.0355494 0)
(0.188767 0.0380805 0)
(0.11006 0.0402335 0)
(0.0460466 0.0422802 0)
(3 4.63575e-08 0)
(2.99999 1.64094e-07 0)
(2.99996 9.86292e-07 0)
(2.99991 1.56245e-06 0)
(2.99978 7.19966e-06 0)
(2.99946 1.17543e-05 0)
(2.99866 4.30015e-05 0)
(2.99673 8.28786e-05 0)
(2.99184 0.000248357 0)
(2.97973 0.000560246 0)
(2.94818 0.00150823 0)
(2.86184 0.00383184 0)
(2.61209 0.0106517 0)
(1.87835 0.0306015 0)
(0.875543 0.0812097 0)
(0.445878 0.0710021 0)
(0.536257 0.0680015 0)
(0.560512 0.0710671 0)
(0.505106 0.0741896 0)
(0.414082 0.0774799 0)
(0.328788 0.081136 0)
(0.259315 0.0849032 0)
(0.188905 0.0879263 0)
(0.109436 0.0897115 0)
(0.0445871 0.0895808 0)
(3 5.49562e-08 0)
(2.99999 4.26398e-07 0)
(2.99997 1.25727e-06 0)
(2.99992 4.17296e-06 0)
(2.99979 9.41963e-06 0)
(2.99948 2.76134e-05 0)
(2.99871 5.99687e-05 0)
(2.99683 0.000168575 0)
(2.99213 0.000380648 0)
(2.98042 0.00101165 0)
(2.95002 0.0024592 0)
(2.86709 0.00654585 0)
(2.62714 0.0179785 0)
(1.92025 0.051902 0)
(0.900993 0.139537 0)
(0.442862 0.120647 0)
(0.539891 0.114262 0)
(0.567001 0.11956 0)
(0.511539 0.125442 0)
(0.420971 0.132224 0)
(0.335828 0.139046 0)
(0.265721 0.145819 0)
(0.194147 0.151651 0)
(0.112902 0.155367 0)
(0.0455285 0.155021 0)
(3 7.22087e-08 0)
(2.99999 6.14457e-07 0)
(2.99997 1.65008e-06 0)
(2.99992 6.01584e-06 0)
(2.9998 1.25121e-05 0)
(2.99951 3.84093e-05 0)
(2.99878 8.18876e-05 0)
(2.997 0.000230815 0)
(2.99254 0.000519345 0)
(2.98146 0.00138783 0)
(2.9528 0.00334535 0)
(2.87477 0.00895052 0)
(2.65019 0.0245016 0)
(1.98406 0.0709098 0)
(0.942069 0.194401 0)
(0.44242 0.169735 0)
(0.548477 0.159978 0)
(0.580027 0.167323 0)
(0.524796 0.176115 0)
(0.434809 0.186993 0)
(0.349395 0.197465 0)
(0.27829 0.20776 0)
(0.204941 0.217152 0)
(0.120407 0.223719 0)
(0.0484546 0.223865 0)
(3 1.02498e-07 0)
(2.99999 6.16858e-07 0)
(2.99997 2.29877e-06 0)
(2.99992 6.06896e-06 0)
(2.99981 1.71256e-05 0)
(2.99954 4.13925e-05 0)
(2.99887 0.00010619 0)
(2.99719 0.000263728 0)
(2.9931 0.000642585 0)
(2.98277 0.00164563 0)
(2.95635 0.00407372 0)
(2.8847 0.010752 0)
(2.67938 0.029503 0)
(2.06858 0.0856221 0)
(1.00002 0.241427 0)
(0.450082 0.220024 0)
(0.563826 0.207796 0)
(0.600491 0.215785 0)
(0.545803 0.226571 0)
(0.456505 0.241386 0)
(0.370174 0.255798 0)
(0.297421 0.270246 0)
(0.221474 0.284127 0)
(0.132138 0.29486 0)
(0.0535166 0.296739 0)
(3 1.09647e-07 0)
(2.99999 6.70201e-07 0)
(2.99997 2.37577e-06 0)
(2.99993 6.63418e-06 0)
(2.99983 1.77504e-05 0)
(2.99958 4.50597e-05 0)
(2.99896 0.000112212 0)
(2.99745 0.000282638 0)
(2.99369 0.00069438 0)
(2.98433 0.00175019 0)
(2.96037 0.00438966 0)
(2.89611 0.0114737 0)
(2.71296 0.0314925 0)
(2.17004 0.091212 0)
(1.08132 0.265591 0)
(0.480269 0.266434 0)
(0.591144 0.2585 0)
(0.630851 0.266556 0)
(0.576872 0.27844 0)
(0.488358 0.296841 0)
(0.400392 0.315761 0)
(0.325195 0.335392 0)
(0.245776 0.355359 0)
(0.149863 0.372663 0)
(0.0616447 0.378912 0)
(3 9.98723e-08 0)
(2.99999 7.00135e-07 0)
(2.99998 2.14722e-06 0)
(2.99994 6.85843e-06 0)
(2.99985 1.59616e-05 0)
(2.99962 4.46957e-05 0)
(2.99907 0.000102857 0)
(2.99768 0.000270061 0)
(2.99432 0.000647121 0)
(2.98585 0.00163513 0)
(2.96446 0.00407099 0)
(2.90736 0.0105247 0)
(2.74638 0.028505 0)
(2.27205 0.0813612 0)
(1.18355 0.240708 0)
(0.532226 0.299088 0)
(0.626729 0.310427 0)
(0.665864 0.318475 0)
(0.614265 0.331355 0)
(0.528538 0.353732 0)
(0.439824 0.378345 0)
(0.362343 0.404595 0)
(0.279448 0.432706 0)
(0.176037 0.460188 0)
(0.0748194 0.476175 0)
(3 9.83784e-08 0)
(2.99999 6.07021e-07 0)
(2.99998 2.14662e-06 0)
(2.99994 5.86503e-06 0)
(2.99986 1.58991e-05 0)
(2.99965 3.88079e-05 0)
(2.99915 9.87246e-05 0)
(2.9979 0.000239757 0)
(2.99483 0.000594651 0)
(2.98718 0.00146489 0)
(2.9678 0.0036323 0)
(2.91642 0.00927207 0)
(2.77214 0.0246537 0)
(2.34629 0.0691361 0)
(1.2856 0.203747 0)
(0.575721 0.338402 0)
(0.642512 0.371932 0)
(0.682507 0.370751 0)
(0.643367 0.383733 0)
(0.568012 0.410167 0)
(0.48356 0.4424 0)
(0.407159 0.477543 0)
(0.323582 0.516872 0)
(0.214425 0.560219 0)
(0.0967443 0.59755 0)
(3 1.02349e-07 0)
(2.99999 5.55132e-07 0)
(2.99998 2.19026e-06 0)
(2.99995 5.38773e-06 0)
(2.99987 1.60391e-05 0)
(2.99969 3.61701e-05 0)
(2.99924 9.90307e-05 0)
(2.99809 0.00022637 0)
(2.99534 0.00059078 0)
(2.98838 0.00139943 0)
(2.97095 0.00355499 0)
(2.92487 0.00890966 0)
(2.79587 0.0237268 0)
(2.41721 0.0662153 0)
(1.41546 0.194996 0)
(0.655076 0.388655 0)
(0.650532 0.422052 0)
(0.681084 0.41802 0)
(0.66418 0.434379 0)
(0.605039 0.463694 0)
(0.530213 0.505055 0)
(0.459261 0.551576 0)
(0.380617 0.605557 0)
(0.273362 0.674999 0)
(0.135975 0.75807 0)
(3 9.89594e-08 0)
(2.99999 5.74615e-07 0)
(2.99998 2.11817e-06 0)
(2.99995 5.60608e-06 0)
(2.99989 1.56439e-05 0)
(2.99972 3.71778e-05 0)
(2.99931 9.79397e-05 0)
(2.99831 0.000230011 0)
(2.99581 0.000591613 0)
(2.98965 0.00141891 0)
(2.97404 0.00358798 0)
(2.93326 0.00901573 0)
(2.81963 0.0238846 0)
(2.48795 0.066592 0)
(1.56975 0.194719 0)
(0.75553 0.436656 0)
(0.657731 0.454201 0)
(0.685981 0.456473 0)
(0.684104 0.479213 0)
(0.641118 0.51277 0)
(0.581124 0.5626 0)
(0.52029 0.621388 0)
(0.456772 0.697049 0)
(0.37013 0.812021 0)
(0.209443 1.01951 0)
(3 8.62431e-08 0)
(2.99999 6.42575e-07 0)
(2.99998 1.9461e-06 0)
(2.99996 6.27601e-06 0)
(2.9999 1.46488e-05 0)
(2.99975 4.11307e-05 0)
(2.9994 9.34246e-05 0)
(2.9985 0.000251715 0)
(2.99633 0.000578871 0)
(2.99088 0.00151927 0)
(2.97728 0.00362118 0)
(2.94178 0.00941263 0)
(2.84381 0.0244259 0)
(2.55942 0.0681993 0)
(1.74482 0.197919 0)
(0.874788 0.484676 0)
(0.66684 0.487992 0)
(0.697874 0.490882 0)
(0.709043 0.515507 0)
(0.680161 0.555199 0)
(0.63669 0.610791 0)
(0.594947 0.681185 0)
(0.566082 0.777558 0)
(0.565329 0.924462 0)
(0.606222 1.17263 0)
(3 1.02064e-07 0)
(2.99999 6.0295e-07 0)
(2.99999 2.14764e-06 0)
(2.99997 5.90209e-06 0)
(2.99992 1.59613e-05 0)
(2.99979 3.90961e-05 0)
(2.99948 0.000102333 0)
(2.99871 0.000240647 0)
(2.99686 0.000633894 0)
(2.99219 0.00147982 0)
(2.98063 0.00386663 0)
(2.95056 0.00948071 0)
(2.86875 0.0251774 0)
(2.63269 0.0692913 0)
(1.94149 0.200957 0)
(1.01675 0.52765 0)
(0.6866 0.525645 0)
(0.718552 0.526625 0)
(0.74095 0.54651 0)
(0.7249 0.58994 0)
(0.697602 0.6492 0)
(0.678952 0.727312 0)
(0.686517 0.832706 0)
(0.749329 0.977597 0)
(0.903964 1.16747 0)
(3 9.82072e-08 0)
(3 5.89022e-07 0)
(2.99999 2.09839e-06 0)
(2.99997 5.7668e-06 0)
(2.99993 1.56444e-05 0)
(2.99983 3.83192e-05 0)
(2.99956 9.98173e-05 0)
(2.99895 0.000237526 0)
(2.99737 0.000616047 0)
(2.99357 0.0014674 0)
(2.98395 0.00378856 0)
(2.95953 0.00933276 0)
(2.89379 0.0246343 0)
(2.70664 0.067413 0)
(2.15411 0.195487 0)
(1.18985 0.54668 0)
(0.737245 0.567783 0)
(0.756388 0.57245 0)
(0.783387 0.580074 0)
(0.778771 0.620159 0)
(0.764242 0.679928 0)
(0.765613 0.758088 0)
(0.799157 0.858359 0)
(0.889316 0.980067 0)
(1.06712 1.09976 0)
(3 7.96896e-08 0)
(3 5.44227e-07 0)
(2.99999 1.76971e-06 0)
(2.99998 5.30977e-06 0)
(2.99994 1.31777e-05 0)
(2.99986 3.50705e-05 0)
(2.99965 8.32437e-05 0)
(2.99914 0.00021604 0)
(2.99789 0.000511621 0)
(2.99483 0.00131201 0)
(2.98719 0.00316954 0)
(2.96796 0.00804941 0)
(2.91728 0.0205354 0)
(2.77616 0.0555614 0)
(2.3662 0.158545 0)
(1.41048 0.468424 0)
(0.83874 0.591033 0)
(0.816505 0.615583 0)
(0.834554 0.621863 0)
(0.841557 0.651835 0)
(0.835936 0.705537 0)
(0.84868 0.776312 0)
(0.895795 0.861893 0)
(0.992419 0.956499 0)
(1.16108 1.03318 0)
(3 6.9737e-08 0)
(3 4.37938e-07 0)
(2.99999 1.5178e-06 0)
(2.99998 4.27375e-06 0)
(2.99995 1.12101e-05 0)
(2.99988 2.83703e-05 0)
(2.99972 6.97025e-05 0)
(2.9993 0.000173866 0)
(2.99828 0.000420973 0)
(2.99579 0.00104809 0)
(2.98957 0.00254673 0)
(2.97401 0.00635441 0)
(2.93335 0.0159544 0)
(2.82097 0.0419943 0)
(2.49623 0.116315 0)
(1.62635 0.346202 0)
(0.936621 0.624771 0)
(0.857787 0.657468 0)
(0.874271 0.669361 0)
(0.894435 0.686013 0)
(0.902347 0.728478 0)
(0.923474 0.787678 0)
(0.976036 0.856598 0)
(1.07026 0.927728 0)
(1.22118 0.980448 0)
(3 6.25724e-08 0)
(3 3.67934e-07 0)
(2.99999 1.34315e-06 0)
(2.99998 3.59194e-06 0)
(2.99996 9.90764e-06 0)
(2.99991 2.39451e-05 0)
(2.99977 6.16207e-05 0)
(2.99944 0.000148102 0)
(2.99862 0.000371497 0)
(2.9966 0.000902995 0)
(2.9916 0.00224004 0)
(2.97912 0.00552233 0)
(2.94684 0.0139357 0)
(2.85864 0.0362588 0)
(2.60529 0.0998367 0)
(1.88099 0.291231 0)
(1.08659 0.666805 0)
(0.888183 0.693232 0)
(0.901232 0.705869 0)
(0.932247 0.713877 0)
(0.957806 0.746499 0)
(0.987604 0.794843 0)
(1.04219 0.849552 0)
(1.13096 0.902801 0)
(1.2634 0.940512 0)
(3 5.27336e-08 0)
(3 3.31327e-07 0)
(3 1.14842e-06 0)
(2.99999 3.23e-06 0)
(2.99997 8.54624e-06 0)
(2.99993 2.14031e-05 0)
(2.99982 5.38567e-05 0)
(2.99956 0.000132766 0)
(2.99891 0.000328368 0)
(2.99735 0.000813368 0)
(2.99341 0.00200424 0)
(2.98376 0.00499866 0)
(2.95889 0.0125535 0)
(2.89235 0.0326337 0)
(2.70336 0.0893422 0)
(2.14712 0.25861 0)
(1.28217 0.681251 0)
(0.939158 0.725191 0)
(0.935901 0.734144 0)
(0.96836 0.737625 0)
(1.00705 0.759029 0)
(1.04363 0.798033 0)
(1.098 0.842182 0)
(1.18005 0.882891 0)
(1.29575 0.910463 0)
(3 4.17747e-08 0)
(3 2.81455e-07 0)
(3 9.29261e-07 0)
(2.99999 2.75091e-06 0)
(2.99998 6.90656e-06 0)
(2.99994 1.82343e-05 0)
(2.99986 4.33006e-05 0)
(2.99967 0.000112303 0)
(2.99918 0.000263831 0)
(2.998 0.000680969 0)
(2.99509 0.0016102 0)
(2.98792 0.00412797 0)
(2.96987 0.010038 0)
(2.92267 0.0261282 0)
(2.79292 0.0696791 0)
(2.41647 0.199458 0)
(1.55261 0.576794 0)
(1.05 0.73232 0)
(0.995918 0.756665 0)
(1.0138 0.765427 0)
(1.05542 0.774736 0)
(1.09685 0.802434 0)
(1.14858 0.836783 0)
(1.22254 0.867976 0)
(1.32323 0.888251 0)
(3 3.44242e-08 0)
(3 2.13074e-07 0)
(3 7.4576e-07 0)
(2.99999 2.0765e-06 0)
(2.99998 5.5046e-06 0)
(2.99996 1.37351e-05 0)
(2.9999 3.42372e-05 0)
(2.99974 8.412e-05 0)
(2.99938 0.000205937 0)
(2.99847 0.000507214 0)
(2.99629 0.00123205 0)
(2.99078 0.00305244 0)
(2.97722 0.00746102 0)
(2.94194 0.0188404 0)
(2.84599 0.0489067 0)
(2.57142 0.134729 0)
(1.82402 0.400416 0)
(1.1707 0.737459 0)
(1.04466 0.777342 0)
(1.05231 0.79455 0)
(1.09357 0.796713 0)
(1.14185 0.811442 0)
(1.19301 0.835632 0)
(1.25998 0.858618 0)
(1.34798 0.87302 0)
(3 2.74687e-08 0)
(3 1.72179e-07 0)
(3 5.93436e-07 0)
(2.99999 1.67636e-06 0)
(2.99999 4.41185e-06 0)
(2.99997 1.10352e-05 0)
(2.99992 2.7777e-05 0)
(2.99981 6.75302e-05 0)
(2.99954 0.000168502 0)
(2.99885 0.000408877 0)
(2.99721 0.00101695 0)
(2.99311 0.00248263 0)
(2.98301 0.00617381 0)
(2.95704 0.0154294 0)
(2.88757 0.0399232 0)
(2.69069 0.108793 0)
(2.11733 0.316902 0)
(1.35254 0.756654 0)
(1.09435 0.809274 0)
(1.08747 0.821719 0)
(1.1231 0.820231 0)
(1.17736 0.822056 0)
(1.23106 0.836966 0)
(1.29306 0.853292 0)
(1.37076 0.863114 0)
(3 2.22408e-08 0)
(3 1.32574e-07 0)
(3 4.73653e-07 0)
(3 1.29289e-06 0)
(2.99999 3.50367e-06 0)
(2.99998 8.5191e-06 0)
(2.99994 2.20428e-05 0)
(2.99986 5.20882e-05 0)
(2.99967 0.000133783 0)
(2.99918 0.000315556 0)
(2.99801 0.000805789 0)
(2.99508 0.00191779 0)
(2.988 0.00486755 0)
(2.97003 0.0118923 0)
(2.92341 0.0307707 0)
(2.79574 0.0820619 0)
(2.42446 0.235247 0)
(1.63082 0.651509 0)
(1.20005 0.810742 0)
(1.14381 0.836248 0)
(1.16066 0.842667 0)
(1.21115 0.83717 0)
(1.26706 0.841989 0)
(1.32464 0.851569 0)
(1.39325 0.857315 0)
(3 1.61802e-08 0)
(3 1.01238e-07 0)
(3 3.46843e-07 0)
(3 9.8312e-07 0)
(2.99999 2.55983e-06 0)
(2.99998 6.42403e-06 0)
(2.99996 1.60743e-05 0)
(2.9999 3.87904e-05 0)
(2.99976 9.76231e-05 0)
(2.99941 0.00023041 0)
(2.99855 0.00058647 0)
(2.99649 0.00137603 0)
(2.99131 0.00350446 0)
(2.97862 0.00837694 0)
(2.9458 0.0213762 0)
(2.85745 0.0550258 0)
(2.60636 0.151718 0)
(1.92939 0.446677 0)
(1.33099 0.797615 0)
(1.19693 0.846794 0)
(1.1975 0.865722 0)
(1.23913 0.86047 0)
(1.29684 0.853184 0)
(1.3532 0.854216 0)
(1.41529 0.855634 0)
(3 1.17332e-08 0)
(3 7.6717e-08 0)
(3 2.58529e-07 0)
(3 7.46381e-07 0)
(3 1.91108e-06 0)
(2.99999 4.92208e-06 0)
(2.99997 1.18947e-05 0)
(2.99993 3.01175e-05 0)
(2.99983 7.16878e-05 0)
(2.99958 0.000180835 0)
(2.99897 0.000430955 0)
(2.99751 0.00108184 0)
(2.99383 0.00260466 0)
(2.9849 0.00649957 0)
(2.96206 0.0160763 0)
(2.90174 0.0413932 0)
(2.73338 0.111426 0)
(2.24292 0.323688 0)
(1.53468 0.771203 0)
(1.26358 0.864355 0)
(1.23905 0.884274 0)
(1.26307 0.8836 0)
(1.31746 0.869922 0)
(1.37677 0.862364 0)
(1.43602 0.85874 0)
(3 8.87969e-09 0)
(3 5.5653e-08 0)
(3 1.93768e-07 0)
(3 5.42691e-07 0)
(3 1.42682e-06 0)
(2.99999 3.59108e-06 0)
(2.99998 8.83539e-06 0)
(2.99995 2.20284e-05 0)
(2.99988 5.28867e-05 0)
(2.99971 0.000133212 0)
(2.9993 0.000315257 0)
(2.9983 0.000800306 0)
(2.99583 0.00189522 0)
(2.98984 0.00480725 0)
(2.97482 0.0116354 0)
(2.93624 0.0298904 0)
(2.83235 0.0784251 0)
(2.53247 0.222283 0)
(1.83353 0.618904 0)
(1.38272 0.855633 0)
(1.29657 0.889414 0)
(1.2992 0.900635 0)
(1.34092 0.888911 0)
(1.39859 0.873538 0)
(1.45573 0.864958 0)
(3 6.49362e-09 0)
(3 3.95419e-08 0)
(3 1.3939e-07 0)
(3 3.84455e-07 0)
(3 1.02673e-06 0)
(2.99999 2.53089e-06 0)
(2.99999 6.37811e-06 0)
(2.99997 1.54054e-05 0)
(2.99992 3.8234e-05 0)
(2.9998 9.23414e-05 0)
(2.99952 0.000227164 0)
(2.99883 0.000552168 0)
(2.99717 0.00135027 0)
(2.99302 0.00330823 0)
(2.98293 0.00812573 0)
(2.95708 0.0202152 0)
(2.88879 0.0520128 0)
(2.69743 0.140765 0)
(2.15889 0.411028 0)
(1.54788 0.835454 0)
(1.35374 0.90275 0)
(1.33656 0.916068 0)
(1.36128 0.908576 0)
(1.41527 0.888145 0)
(1.47355 0.873283 0)
(3 4.47366e-09 0)
(3 2.82351e-08 0)
(3 9.66591e-08 0)
(3 2.74315e-07 0)
(3 7.12997e-07 0)
(3 1.79504e-06 0)
(2.99999 4.45514e-06 0)
(2.99998 1.08579e-05 0)
(2.99995 2.68355e-05 0)
(2.99987 6.46378e-05 0)
(2.99968 0.000160109 0)
(2.99924 0.000384533 0)
(2.99812 0.000953115 0)
(2.99548 0.00229772 0)
(2.98888 0.00570355 0)
(2.97266 0.0139911 0)
(2.9307 0.0355706 0)
(2.81783 0.094064 0)
(2.49121 0.268924 0)
(1.82492 0.695325 0)
(1.45662 0.883232 0)
(1.39049 0.914509 0)
(1.3937 0.921843 0)
(1.43484 0.905664 0)
(1.49096 0.88288 0)
(3 3.10792e-09 0)
(3 1.91665e-08 0)
(3 6.7188e-08 0)
(3 1.86141e-07 0)
(3 4.92826e-07 0)
(3 1.21931e-06 0)
(2.99999 3.04072e-06 0)
(2.99999 7.38774e-06 0)
(2.99996 1.80626e-05 0)
(2.99991 4.41156e-05 0)
(2.99979 0.000106387 0)
(2.99949 0.00026178 0)
(2.99877 0.000627705 0)
(2.99698 0.00155076 0)
(2.99266 0.00372712 0)
(2.98192 0.00923514 0)
(2.95483 0.0227484 0)
(2.88302 0.0586398 0)
(2.68195 0.158955 0)
(2.13879 0.455278 0)
(1.59889 0.847942 0)
(1.44478 0.916009 0)
(1.42894 0.931278 0)
(1.45193 0.92372 0)
(1.50287 0.89837 0)
(3 2.14461e-09 0)
(3 1.29189e-08 0)
(3 4.57468e-08 0)
(3 1.25391e-07 0)
(3 3.35895e-07 0)
(3 8.18623e-07 0)
(3 2.08386e-06 0)
(2.99999 4.93691e-06 0)
(2.99998 1.245e-05 0)
(2.99994 2.93456e-05 0)
(2.99986 7.36494e-05 0)
(2.99967 0.000174368 0)
(2.9992 0.000434141 0)
(2.99806 0.00103859 0)
(2.99528 0.00256593 0)
(2.98849 0.0062264 0)
(2.97157 0.0154248 0)
(2.92803 0.0389042 0)
(2.81047 0.102871 0)
(2.47129 0.293342 0)
(1.85181 0.724188 0)
(1.53305 0.898536 0)
(1.4754 0.930228 0)
(1.47852 0.936961 0)
(1.51705 0.919193 0)
(3 1.35459e-09 0)
(3 8.89484e-09 0)
(3 2.96545e-08 0)
(3 8.61438e-08 0)
(3 2.1815e-07 0)
(3 5.6168e-07 0)
(3 1.34976e-06 0)
(2.99999 3.38329e-06 0)
(2.99999 8.06089e-06 0)
(2.99996 1.99672e-05 0)
(2.99991 4.78391e-05 0)
(2.99979 0.000117481 0)
(2.99949 0.000283049 0)
(2.99875 0.000691592 0)
(2.99698 0.0016794 0)
(2.99262 0.00408898 0)
(2.98198 0.0100472 0)
(2.95498 0.0248664 0)
(2.88395 0.0641011 0)
(2.685 0.174297 0)
(2.16401 0.491577 0)
(1.67251 0.861819 0)
(1.52933 0.931446 0)
(1.51135 0.946443 0)
(1.53031 0.93899 0)
(3 9.01186e-10 0)
(3 5.85731e-09 0)
(3 1.96604e-08 0)
(3 5.67119e-08 0)
(3 1.44409e-07 0)
(3 3.69388e-07 0)
(3 8.90653e-07 0)
(3 2.22479e-06 0)
(2.99999 5.30548e-06 0)
(2.99998 1.31527e-05 0)
(2.99994 3.13498e-05 0)
(2.99987 7.73195e-05 0)
(2.99968 0.000185282 0)
(2.99923 0.000453937 0)
(2.99811 0.00109574 0)
(2.99545 0.00267466 0)
(2.98886 0.00651744 0)
(2.97272 0.0160579 0)
(2.93113 0.0404026 0)
(2.81993 0.106438 0)
(2.50051 0.302896 0)
(1.92314 0.725882 0)
(1.61768 0.908075 0)
(1.55676 0.942825 0)
(1.5556 0.950225 0)
(3 5.95159e-10 0)
(3 3.72487e-09 0)
(3 1.2886e-08 0)
(3 3.60735e-08 0)
(3 9.44358e-08 0)
(3 2.34982e-07 0)
(3 5.81201e-07 0)
(3 1.41554e-06 0)
(2.99999 3.43997e-06 0)
(2.99999 8.39142e-06 0)
(2.99997 2.01762e-05 0)
(2.99992 4.9428e-05 0)
(2.9998 0.000118399 0)
(2.99951 0.000290494 0)
(2.99883 0.000695279 0)
(2.99714 0.0017084 0)
(2.99312 0.00411234 0)
(2.9831 0.0101337 0)
(2.95814 0.0249337 0)
(2.89272 0.0638924 0)
(2.71052 0.172972 0)
(2.23491 0.480959 0)
(1.76142 0.861171 0)
(1.61098 0.939536 0)
(1.58797 0.956162 0)
(3 3.73985e-10 0)
(3 2.42224e-09 0)
(3 8.10352e-09 0)
(3 2.34516e-08 0)
(3 5.94825e-08 0)
(3 1.51793e-07 0)
(3 3.68281e-07 0)
(3 9.05645e-07 0)
(3 2.19503e-06 0)
(2.99999 5.30463e-06 0)
(2.99998 1.29771e-05 0)
(2.99995 3.09469e-05 0)
(2.99988 7.64339e-05 0)
(2.99971 0.000180801 0)
(2.99929 0.00044926 0)
(2.9983 0.00105926 0)
(2.99587 0.00263905 0)
(2.99003 0.00627454 0)
(2.9756 0.0156464 0)
(2.93914 0.0387589 0)
(2.84262 0.101873 0)
(2.56775 0.286448 0)
(2.02435 0.695241 0)
(1.70672 0.903118 0)
(1.63622 0.946858 0)
(3 2.34582e-10 0)
(3 1.4979e-09 0)
(3 5.12947e-09 0)
(3 1.44725e-08 0)
(3 3.7504e-08 0)
(3 9.4276e-08 0)
(3 2.28974e-07 0)
(3 5.66847e-07 0)
(3 1.3444e-06 0)
(2.99999 3.33723e-06 0)
(2.99999 7.84385e-06 0)
(2.99997 1.95072e-05 0)
(2.99993 4.57365e-05 0)
(2.99982 0.000113456 0)
(2.99957 0.000267247 0)
(2.99896 0.000658725 0)
(2.99747 0.00156294 0)
(2.99392 0.00383342 0)
(2.98511 0.00922082 0)
(2.96337 0.022766 0)
(2.90689 0.057283 0)
(2.75197 0.152948 0)
(2.33734 0.422689 0)
(1.86366 0.822797 0)
(1.69234 0.930034 0)
(3 1.5195e-10 0)
(3 9.14471e-10 0)
(3 3.25059e-09 0)
(3 8.83743e-09 0)
(3 2.37061e-08 0)
(3 5.74792e-08 0)
(3 1.451e-07 0)
(3 3.44494e-07 0)
(3 8.53328e-07 0)
(3 2.02804e-06 0)
(2.99999 4.96254e-06 0)
(2.99998 1.19065e-05 0)
(2.99996 2.8786e-05 0)
(2.99989 6.98297e-05 0)
(2.99974 0.000166821 0)
(2.99938 0.0004098 0)
(2.99852 0.000969555 0)
(2.99641 0.00240185 0)
(2.99135 0.00570635 0)
(2.97888 0.01418 0)
(2.94762 0.0348354 0)
(2.86564 0.0905757 0)
(2.63369 0.249845 0)
(2.1361 0.633645 0)
(1.79802 0.890245 0)
(3 9.02858e-11 0)
(3 5.73349e-10 0)
(3 1.94419e-09 0)
(3 5.53381e-09 0)
(3 1.42086e-08 0)
(3 3.57179e-08 0)
(3 8.71958e-08 0)
(3 2.1226e-07 0)
(3 5.15652e-07 0)
(3 1.23497e-06 0)
(3 3.01645e-06 0)
(2.99999 7.16137e-06 0)
(2.99997 1.75769e-05 0)
(2.99994 4.15303e-05 0)
(2.99985 0.000102024 0)
(2.99963 0.000241272 0)
(2.99913 0.000591798 0)
(2.99787 0.00140276 0)
(2.99492 0.00344113 0)
(2.98758 0.0082316 0)
(2.9697 0.0203203 0)
(2.92377 0.0506161 0)
(2.80012 0.133524 0)
(2.46118 0.371047 0)
(1.9912 0.772989 0)
(3 5.42165e-11 0)
(3 3.48318e-10 0)
(3 1.17859e-09 0)
(3 3.3635e-09 0)
(3 8.60749e-09 0)
(3 2.17676e-08 0)
(3 5.26421e-08 0)
(3 1.29681e-07 0)
(3 3.09749e-07 0)
(3 7.56439e-07 0)
(3 1.80831e-06 0)
(2.99999 4.3873e-06 0)
(2.99998 1.0536e-05 0)
(2.99996 2.54e-05 0)
(2.99991 6.13623e-05 0)
(2.99979 0.000146945 0)
(2.99949 0.000357445 0)
(2.99878 0.000852264 0)
(2.99704 0.00208111 0)
(2.99292 0.00498817 0)
(2.98271 0.0122234 0)
(2.95747 0.0300321 0)
(2.89208 0.0766166 0)
(2.70959 0.208113 0)
(2.27927 0.544493 0)
(3 3.32828e-11 0)
(3 2.05088e-10 0)
(3 7.14031e-10 0)
(3 1.98011e-09 0)
(3 5.20091e-09 0)
(3 1.27941e-08 0)
(3 3.17549e-08 0)
(3 7.59853e-08 0)
(3 1.86074e-07 0)
(3 4.43318e-07 0)
(3 1.07929e-06 0)
(3 2.5734e-06 0)
(2.99999 6.23644e-06 0)
(2.99998 1.49351e-05 0)
(2.99995 3.59999e-05 0)
(2.99988 8.65778e-05 0)
(2.99971 0.000207561 0)
(2.99931 0.00050268 0)
(2.99836 0.00119852 0)
(2.99602 0.00291838 0)
(2.99051 0.00700157 0)
(2.97689 0.0171234 0)
(2.94304 0.04249 0)
(2.85428 0.110087 0)
(2.60723 0.305169 0)
(3 1.88045e-11 0)
(3 1.23472e-10 0)
(3 4.11076e-10 0)
(3 1.18918e-09 0)
(3 2.99651e-09 0)
(3 7.65893e-09 0)
(3 1.82345e-08 0)
(3 4.53323e-08 0)
(3 1.06662e-07 0)
(3 2.62377e-07 0)
(3 6.18517e-07 0)
(3 1.50865e-06 0)
(2.99999 3.57894e-06 0)
(2.99999 8.64094e-06 0)
(2.99997 2.06895e-05 0)
(2.99993 4.94223e-05 0)
(2.99983 0.000119438 0)
(2.99961 0.000282183 0)
(2.99905 0.000688643 0)
(2.99775 0.00161498 0)
(2.99453 0.00396273 0)
(2.98689 0.0093632 0)
(2.96785 0.0230766 0)
(2.91965 0.0570263 0)
(2.78943 0.150549 0)
(3 1.13973e-11 0)
(3 7.03368e-11 0)
(3 2.44944e-10 0)
(3 6.77798e-10 0)
(3 1.77876e-09 0)
(3 4.36847e-09 0)
(3 1.08082e-08 0)
(3 2.58825e-08 0)
(3 6.29752e-08 0)
(3 1.50339e-07 0)
(3 3.62774e-07 0)
(3 8.69509e-07 0)
(3 2.08355e-06 0)
(2.99999 5.01885e-06 0)
(2.99998 1.19522e-05 0)
(2.99996 2.89762e-05 0)
(2.99991 6.8592e-05 0)
(2.99978 0.00016694 0)
(2.99947 0.000394617 0)
(2.99875 0.000961618 0)
(2.99697 0.00227888 0)
(2.99278 0.00556157 0)
(2.98243 0.0133628 0)
(2.95701 0.0329853 0)
(2.89136 0.0836108 0)
(3 6.53211e-12 0)
(3 4.01963e-11 0)
(3 1.40435e-10 0)
(3 3.86853e-10 0)
(3 1.01958e-09 0)
(3 2.49039e-09 0)
(3 6.18124e-09 0)
(3 1.47367e-08 0)
(3 3.5911e-08 0)
(3 8.541e-08 0)
(3 2.06531e-07 0)
(3 4.92361e-07 0)
(3 1.18298e-06 0)
(3 2.83424e-06 0)
(2.99999 6.77191e-06 0)
(2.99998 1.62935e-05 0)
(2.99995 3.87213e-05 0)
(2.99988 9.36888e-05 0)
(2.99971 0.000221701 0)
(2.99932 0.000537484 0)
(2.99836 0.00127296 0)
(2.99612 0.00309026 0)
(2.99063 0.00737284 0)
(2.9775 0.0179772 0)
(2.94463 0.0443449 0)
(3 3.72584e-12 0)
(3 2.27366e-11 0)
(3 7.96522e-11 0)
(3 2.18733e-10 0)
(3 5.77234e-10 0)
(3 1.40663e-09 0)
(3 3.49485e-09 0)
(3 8.3046e-09 0)
(3 2.02633e-08 0)
(3 4.79711e-08 0)
(3 1.16138e-07 0)
(3 2.75573e-07 0)
(3 6.62669e-07 0)
(3 1.57898e-06 0)
(3 3.77177e-06 0)
(2.99999 9.04541e-06 0)
(2.99997 2.14316e-05 0)
(2.99993 5.16884e-05 0)
(2.99984 0.000121846 0)
(2.99962 0.000294765 0)
(2.99909 0.000692811 0)
(2.99786 0.00167864 0)
(2.99481 0.00395756 0)
(2.98764 0.00960199 0)
(2.96982 0.0230276 0)
(3 2.06616e-12 0)
(3 1.29013e-11 0)
(3 4.43303e-11 0)
(3 1.24117e-10 0)
(3 3.2207e-10 0)
(3 7.94141e-10 0)
(3 1.9564e-09 0)
(3 4.65915e-09 0)
(3 1.13585e-08 0)
(3 2.68347e-08 0)
(3 6.50738e-08 0)
(3 1.5382e-07 0)
(3 3.71145e-07 0)
(3 8.81004e-07 0)
(3 2.11273e-06 0)
(2.99999 5.04634e-06 0)
(2.99998 1.20169e-05 0)
(2.99996 2.88595e-05 0)
(2.99991 6.83642e-05 0)
(2.9998 0.000165103 0)
(2.99951 0.000389142 0)
(2.99884 0.000943974 0)
(2.99723 0.00222671 0)
(2.99335 0.00540949 0)
(2.98404 0.0129293 0)
(3 1.1352e-12 0)
(3 7.22989e-12 0)
(3 2.46051e-11 0)
(3 6.92422e-11 0)
(3 1.7839e-10 0)
(3 4.42881e-10 0)
(3 1.07663e-09 0)
(3 2.60306e-09 0)
(3 6.21872e-09 0)
(3 1.49973e-08 0)
(3 3.54943e-08 0)
(3 8.57445e-08 0)
(3 2.02331e-07 0)
(3 4.89093e-07 0)
(3 1.15187e-06 0)
(3 2.78364e-06 0)
(2.99999 6.56817e-06 0)
(2.99998 1.58194e-05 0)
(2.99995 3.74119e-05 0)
(2.99989 8.98939e-05 0)
(2.99974 0.000213413 0)
(2.99939 0.000510186 0)
(2.99853 0.00121861 0)
(2.99655 0.00290828 0)
(2.99168 0.00698533 0)
(3 6.37616e-13 0)
(3 3.96781e-12 0)
(3 1.34953e-11 0)
(3 3.81087e-11 0)
(3 9.7553e-11 0)
(3 2.433e-10 0)
(3 5.88472e-10 0)
(3 1.4212e-09 0)
(3 3.40868e-09 0)
(3 8.10138e-09 0)
(3 1.95181e-08 0)
(3 4.59724e-08 0)
(3 1.11229e-07 0)
(3 2.60685e-07 0)
(3 6.31406e-07 0)
(3 1.48022e-06 0)
(3 3.57638e-06 0)
(2.99999 8.39898e-06 0)
(2.99998 2.02117e-05 0)
(2.99994 4.77031e-05 0)
(2.99986 0.000113937 0)
(2.99967 0.000270708 0)
(2.99923 0.000641387 0)
(2.99816 0.0015376 0)
(2.99563 0.00362212 0)
(3 3.44878e-13 0)
(3 2.11424e-12 0)
(3 7.40255e-12 0)
(3 2.03083e-11 0)
(3 5.35222e-11 0)
(3 1.30422e-10 0)
(3 3.20684e-10 0)
(3 7.65816e-10 0)
(3 1.83761e-09 0)
(3 4.39338e-09 0)
(3 1.04082e-08 0)
(3 2.50614e-08 0)
(3 5.8719e-08 0)
(3 1.4234e-07 0)
(3 3.31793e-07 0)
(3 8.05879e-07 0)
(3 1.87578e-06 0)
(2.99999 4.54906e-06 0)
(2.99999 1.06227e-05 0)
(2.99997 2.56253e-05 0)
(2.99993 6.01336e-05 0)
(2.99983 0.000144109 0)
(2.99959 0.000340587 0)
(2.99903 0.000810229 0)
(2.99768 0.00193117 0)
(3 1.70333e-13 0)
(3 1.141e-12 0)
(3 3.95451e-12 0)
(3 1.08212e-11 0)
(3 2.84694e-11 0)
(3 6.91765e-11 0)
(3 1.71082e-10 0)
(3 4.0329e-10 0)
(3 9.81982e-10 0)
(3 2.30022e-09 0)
(3 5.56266e-09 0)
(3 1.30339e-08 0)
(3 3.13368e-08 0)
(3 7.37883e-08 0)
(3 1.76038e-07 0)
(3 4.17512e-07 0)
(3 9.86997e-07 0)
(3 2.36127e-06 0)
(2.99999 5.53273e-06 0)
(2.99998 1.33316e-05 0)
(2.99996 3.10625e-05 0)
(2.99991 7.49772e-05 0)
(2.99978 0.000174838 0)
(2.99948 0.000421004 0)
(2.99877 0.000985457 0)
(3 9.41456e-14 0)
(3 5.891e-13 0)
(3 1.99101e-12 0)
(3 5.69867e-12 0)
(3 1.44653e-11 0)
(3 3.60596e-11 0)
(3 8.65761e-11 0)
(3 2.08519e-10 0)
(3 4.94949e-10 0)
(3 1.1766e-09 0)
(3 2.79335e-09 0)
(3 6.58402e-09 0)
(3 1.57081e-08 0)
(3 3.67508e-08 0)
(3 8.78271e-08 0)
(3 2.05145e-07 0)
(3 4.89577e-07 0)
(3 1.14264e-06 0)
(3 2.71831e-06 0)
(2.99999 6.3583e-06 0)
(2.99998 1.50485e-05 0)
(2.99995 3.52856e-05 0)
(2.99988 8.30014e-05 0)
(2.9997 0.000195295 0)
(2.99931 0.000456664 0)
(3 4.1982e-14 0)
(3 2.4186e-13 0)
(3 9.54349e-13 0)
(3 2.73936e-12 0)
(3 7.01729e-12 0)
(3 1.74521e-11 0)
(3 4.16706e-11 0)
(3 1.00806e-10 0)
(3 2.35222e-10 0)
(3 5.6697e-10 0)
(3 1.3036e-09 0)
(3 3.14545e-09 0)
(3 7.19004e-09 0)
(3 1.7299e-08 0)
(3 3.95394e-08 0)
(3 9.43073e-08 0)
(3 2.16911e-07 0)
(3 5.10081e-07 0)
(3 1.18531e-06 0)
(2.99999 2.73421e-06 0)
(2.99999 6.43291e-06 0)
(2.99996 1.45292e-05 0)
(2.99991 3.46263e-05 0)
(2.99979 7.63937e-05 0)
(2.9995 0.000183508 0)
(3 1.16858e-14 0)
(3 9.79891e-14 0)
(3 4.27192e-13 0)
(3 1.20915e-12 0)
(3 3.10094e-12 0)
(3 7.77662e-12 0)
(3 1.84597e-11 0)
(3 4.41337e-11 0)
(3 1.03995e-10 0)
(3 2.42552e-10 0)
(3 5.73385e-10 0)
(3 1.31937e-09 0)
(3 3.12475e-09 0)
(3 7.11719e-09 0)
(3 1.69166e-08 0)
(3 3.81528e-08 0)
(3 9.03821e-08 0)
(3 2.03744e-07 0)
(3 4.76459e-07 0)
(3 1.07972e-06 0)
(2.99999 2.47316e-06 0)
(2.99997 5.65393e-06 0)
(2.99993 1.26422e-05 0)
(2.99983 2.91413e-05 0)
(2.99957 6.31691e-05 0)
(3 9.73498e-15 0)
(3 4.79377e-14 0)
(3 1.36416e-13 0)
(3 3.36023e-13 0)
(3 9.64159e-13 0)
(3 2.1019e-12 0)
(3 5.72593e-12 0)
(3 1.15466e-11 0)
(3 3.12554e-11 0)
(3 6.328e-11 0)
(3 1.66337e-10 0)
(3 3.47883e-10 0)
(3 8.7486e-10 0)
(3 1.92083e-09 0)
(3 4.49384e-09 0)
(3 1.06002e-08 0)
(3 2.26002e-08 0)
(3 5.81541e-08 0)
(3 1.10114e-07 0)
(3 3.15487e-07 0)
(2.99999 5.27808e-07 0)
(2.99997 1.65076e-06 0)
(2.99993 2.49776e-06 0)
(2.99984 8.35596e-06 0)
(2.9996 1.16815e-05 0)
(1.27874 1.07803 0)
(1.68964 0.878491 0)
(1.87392 0.615696 0)
(1.90262 0.353296 0)
(1.85459 0.13512 0)
(1.76302 -0.00869297 0)
(1.66862 -0.0454061 0)
(1.62023 -0.0156357 0)
(1.6119 0.0247306 0)
(1.61455 0.0453188 0)
(1.61787 0.0439504 0)
(1.61862 0.0330389 0)
(1.6166 0.0227251 0)
(1.61288 0.0147229 0)
(1.60769 0.01188 0)
(1.60342 0.0128486 0)
(1.60155 0.0154107 0)
(1.60082 0.0172334 0)
(1.60028 0.0172691 0)
(1.59945 0.0161364 0)
(1.59793 0.0148478 0)
(1.59491 0.0136832 0)
(1.5886 0.013032 0)
(1.57513 0.0135213 0)
(1.5459 0.0162329 0)
(1.48165 0.0232612 0)
(1.33829 0.038882 0)
(1.01963 0.0738457 0)
(0.518978 0.148464 0)
(0.114341 0.182959 0)
(-0.117101 0.143886 0)
(-0.304255 0.0818973 0)
(-0.478186 0.0280817 0)
(-0.606212 -0.0058445 0)
(-0.670256 -0.0231741 0)
(-0.684738 -0.0233696 0)
(-0.659081 -0.0132286 0)
(-0.613897 -0.00895479 0)
(-0.544487 -0.0190125 0)
(-0.446167 -0.0396613 0)
(-0.338851 -0.0488949 0)
(-0.230654 -0.0545012 0)
(-0.12742 -0.0568829 0)
(-0.0320638 -0.0626152 0)
(0.0725855 -0.0524208 0)
(0.150818 -0.0450696 0)
(0.225614 -0.040521 0)
(0.292962 -0.0370391 0)
(0.35289 -0.033624 0)
(0.406597 -0.0304364 0)
(0.459679 -0.0286742 0)
(0.512649 -0.0283097 0)
(0.562302 -0.026747 0)
(0.608932 -0.0248972 0)
(0.653266 -0.0232704 0)
(0.695703 -0.0218553 0)
(0.736636 -0.0206473 0)
(0.77617 -0.0195413 0)
(0.8145 -0.0185502 0)
(0.851666 -0.017615 0)
(0.887808 -0.0167602 0)
(0.922951 -0.0159449 0)
(0.957201 -0.0151931 0)
(0.990577 -0.0144772 0)
(1.02315 -0.0138169 0)
(1.05494 -0.0131856 0)
(1.08601 -0.0125942 0)
(1.11638 -0.0120173 0)
(1.14612 -0.0114624 0)
(1.17526 -0.0109116 0)
(1.20385 -0.010375 0)
(1.23194 -0.009842 0)
(1.25955 -0.00932508 0)
(1.28671 -0.00881444 0)
(1.31343 -0.00832371 0)
(1.3397 -0.00783934 0)
(1.36555 -0.00737657 0)
(1.39096 -0.00691805 0)
(1.41593 -0.0064818 0)
(1.44046 -0.00604838 0)
(1.46457 -0.00563826 0)
(1.48824 -0.00523024 0)
(1.5115 -0.00484353 0)
(1.53436 -0.00445699 0)
(1.55683 -0.00409095 0)
(1.57891 -0.00372276 0)
(1.60063 -0.00337177 0)
(1.62199 -0.00302349 0)
(1.64303 -0.00269132 0)
(1.66371 -0.002358 0)
(1.68406 -0.00205378 0)
(1.70406 -0.00177376 0)
(1.72372 -0.0015249 0)
(1.74296 -0.00132154 0)
(1.76174 -0.00110302 0)
(1.77993 -0.000833308 0)
(1.79724 -0.000493587 0)
(1.81309 -6.12336e-05 0)
(1.82569 0.000591844 0)
(1.83503 0.00139792 0)
(1.37306 0.990293 0)
(1.68572 0.708445 0)
(1.85949 0.397148 0)
(1.94452 0.130399 0)
(1.99532 -0.0603266 0)
(2.02592 -0.161403 0)
(2.03569 -0.168597 0)
(2.03444 -0.128742 0)
(2.02128 -0.0806812 0)
(1.99953 -0.0421087 0)
(1.98201 -0.020168 0)
(1.97641 -0.0132799 0)
(1.97658 -0.0150208 0)
(1.97803 -0.0197821 0)
(1.97899 -0.0223393 0)
(1.97888 -0.021928 0)
(1.97824 -0.0196994 0)
(1.9768 -0.0173317 0)
(1.97495 -0.0151971 0)
(1.9737 -0.0134452 0)
(1.9727 -0.0121686 0)
(1.97099 -0.0108699 0)
(1.96732 -0.00906787 0)
(1.95895 -0.00586018 0)
(1.93978 0.000585002 0)