/*--------------------------------*- C++ -*----------------------------------*\
  =========                 |
  \\      /  F ield         | OpenFOAM: The Open Source CFD Toolbox
   \\    /   O peration     | Website:  https://openfoam.org
    \\  /    A nd           | Version:  13
     \\/     M anipulation  |
\*---------------------------------------------------------------------------*/
FoamFile
{
    format      ascii;
    class       surfaceScalarField;
    location    "56";
    object      phi;
}
// * * * * * * * * * * * * * * * * * * * * * * * * * * * * * * * * * * * * * //

dimensions      [0 3 -1 0 0 0 0];

internalField   nonuniform List<scalar> 
1300
(
3.75095
5.62643
-3.31548
3.75095
-7.7407
5.62643
-4.36525
4.36525
-0.554262
0.554262
1.87639
1.87456
-2.75057
2.75057
-2.22326
2.22326
-2.53757
2.53757
-5.24649
5.24649
-5.06917
5.06917
4.65765
-4.65765
-6.29147
6.29147
-0.977893
0.977893
-3.66325
3.66325
3.16966
-3.16966
-2.15016
2.15016
-0.0557647
0.0557647
-0.553485
4.30444
3.19747
3.19747
-2.00369
2.00369
-4.86816
4.86816
6.21814
-6.21814
5.31433
-5.31433
-1.99885
-2.43488
1.80437
-11.5429
-5.93633
-5.93633
-8.44038
8.44038
-2.81395
2.81248
2.94558
-2.94558
-1.77706
1.77706
-4.32618
-0.0390759
-4.32618
4.33456
0.0306954
4.33456
-0.620129
0.0658664
-0.620129
3.9624
-3.9624
0.457806
0.0964568
0.457806
3.06523
-3.06523
-1.8771
3.7535
1.87385
-1.87189
6.17632
-1.87907
3.75363
-6.01096
6.01096
-2.96605
0.21548
-2.96605
2.5681
0.182463
2.5681
-6.83307
6.83307
-2.26373
0.0404715
-2.26373
2.19192
0.031339
2.19192
2.87823
-2.87823
-2.64759
0.110022
-2.64759
2.41372
0.123849
2.41372
0.353522
5.27291
-5.97995
8.79243
-5.27291
0.0264214
5.20839
0.0381003
5.20839
-5.10599
0.0368184
-5.10599
5.01182
0.0573525
5.01182
4.74456
-0.0869128
4.74456
-4.775
0.117356
-4.775
-3.38809
-4.03458
-6.44022
0.148752
-6.44022
-1.0558
0.0779062
-1.0558
0.87724
0.100653
0.87724
-3.67702
3.67702
-4.0737
0.41045
-4.0737
3.12404
0.0456117
3.12404
1.86849
1.88246
5.61945
-5.61945
2.44979
-2.14051
-0.00964681
-2.14051
-2.19218
-3.12215
2.19218
-0.0420182
-0.287405
0.231641
-0.287405
3.1594
0.0380715
3.1594
2.2442
0.169525
-2.2442
0.240511
3.26501
-3.26501
1.33838
0.665308
1.33838
-5.56416
5.56416
4.95563
0.0561883
-4.95563
0.0874699
6.15669
0.0614432
6.15669
-6.19953
-0.0186104
-6.19953
2.55065
-4.98553
-2.60362
6.11362
0.177851
-6.11362
0.177291
2.9171
0.0284808
2.9171
-2.91994
2.91994
-2.98431
0.0387288
-2.98431
-2.17613
0.399073
-2.17613
1.47828
0.298775
1.47828
-4.22512
-0.10106
-4.22512
-4.2227
0.148995
4.2227
0.111856
1.12627
-1.12627
-0.715946
0.095817
-0.715946
-4.08737
-0.137743
4.08737
-0.124976
-3.8527
-0.109696
-3.8527
-3.02429
0.0399749
3.02429
0.0409411
3.11281
0.0465865
-3.11281
0.0475838
-1.87082
3.75328
-1.88013
3.75398
-5.63082
-0.380133
-5.63082
6.32022
-0.309265
6.32022
3.3276
0.335655
-3.3276
0.361553
2.43023
0.137871
2.43023
-6.79799
-0.0350823
-6.79799
6.81554
0.0175343
6.81554
2.33099
0.0992425
-2.33099
0.0672578
2.1706
0.0213159
2.1706
2.89725
-0.0190213
2.89725
-2.8732
-0.00502226
-2.8732
2.79679
-2.79679
2.72633
0.0704654
-2.72633
0.0787334
-11.1331
11.1145
-0.0353146
-11.0978
5.17307
5.17307
4.17272
0.571839
4.17272
-4.99201
0.217004
-4.99201
2.68657
-5.29019
3.04833
-6.43642
4.65805
-16.2009
4.31504
-8.34962
6.67914
-6.67914
6.56798
0.111165
-6.56798
0.127755
-1.16513
0.109327
-1.16513
-3.07329
-0.603727
-3.07329
4.32156
-0.644546
4.32156
-3.02834
3.02834
-3.07757
0.0492346
3.07757
0.0464721
2.14427
0.0263321
-2.14427
0.0037616
0.372699
0.0851066
-0.372699
0.0852937
3.4729
-0.207895
3.4729
-3.06994
-0.195071
-3.06994
-1.25702
0.0918955
1.25702
0.0813566
-5.81461
0.250454
-5.81461
-11.1907
0.0929198
-11.1526
-6.10661
-6.10661
2.33377
11.1262
-2.89191
0.018702
2.89191
0.0251963
2.97533
0.0530115
-2.97533
0.055384
-2.86098
0.064191
2.86098
0.0589585
-2.55137
0.375237
-2.55137
-1.07454
1.07454
-1.24222
0.16768
1.24222
0.236065
1.3954
-0.269132
1.3954
0.794143
0.0830972
-0.794143
0.0781971
-3.75779
-0.0949104
-3.75779
6.55292
-0.2327
6.55292
-2.95766
-0.112278
2.95766
-0.0604125
-0.0333051
11.1478
-5.13977
0.0337782
5.13977
-11.2093
11.243
-3.22254
0.671173
3.22254
0.950184
5.2845
0.279665
-5.2845
0.292487
6.76424
0.0513045
-6.76424
0.0850938
-2.58096
-0.492329
-2.58096
-5.04832
-0.582508
5.04832
-0.726751
-11.4753
-0.204039
11.6793
-11.4179
6.01865
0.138042
-6.01865
11.3811
-1.03008
-0.0961843
1.03008
0.0444524
1.72124
-0.325842
1.72124
3.66246
-0.189555
-3.66246
-0.0953309
-6.70435
-0.093644
6.70435
-0.151427
-2.13711
-0.443854
2.13711
-0.415868
-4.26708
4.30515
1.90924
-2.40846
-2.57707
-5.53062
1.85188
1.9014
4.30167
-10.1613
-6.03966
-9.98398
7.26222
-6.96974
-9.24929
9.16238
7.83302
-7.94272
-5.785
5.83147
6.48267
-6.44173
1.87877
1.87473
7.95634
-7.74086
-15.6363
15.2561
7.50037
-7.45989
15.7831
-15.8182
-17.861
17.9123
-5.69617
5.80619
-6.73635
6.73132
-6.9682
6.90779
-2.84099
-3.59543
13.123
-12.9742
8.53923
-8.54888
-8.5798
8.99025
3.38256
0.922595
3.42914
-1.88219
3.76095
-1.87144
3.78068
2.70015
-5.54115
2.59003
-5.1671
4.32281
4.21643
-4.28079
-1.24983
-5.92349
5.95197
-5.81596
5.87491
9.1038
-9.14288
-1.88515
3.75988
-1.86883
3.77023
-3.42503
-2.35996
3.37942
0.922253
8.08138
5.0416
-8.25923
-1.72475
-8.01105
7.82149
-8.21739
8.02231
-0.435518
5.81885
-5.38333
4.43264
-1.56113
7.37998
5.70109
5.91809
5.86584
-5.58617
1.1039
-6.48723
-6.39976
-2.36631
2.46213
2.25169
-2.15523
6.09972
1.7333
5.97475
-5.73052
-2.2122
-5.82543
3.82079
2.01068
3.87002
4.07802
2.40465
4.11799
3.03059
-3.03585
0.00525799
-3.05655
6.08714
0.724031
-5.41651
-4.49426
4.96396
2.99238
5.14643
-5.51308
-2.22779
-5.15152
-9.55459
-6.08169
-10.1371
10.0992
5.15694
9.78994
-11.9725
11.821
4.79012
2.71024
4.82146
-4.91893
-2.54096
-4.85167
11.6355
-2.61225
-9.02327
-10.3273
-7.53374
10.3097
5.47338
10.9685
6.94383
11.0536
4.42317
7.21235
-9.89655
2.36281
-3.86097
-1.8352
-3.78224
3.66443
2.14177
3.78827
-4.21624
-2.52011
-4.19754
-4.29335
-2.67485
4.31237
2.41895
-4.41319
-3.8042
4.52547
2.38232
4.02489
-10.0645
4.32473
-7.92016
-9.20158
-3.77265
-9.07382
3.49551
2.60682
-6.10233
-2.04563
8.46257
-4.24614
7.21274
-5.16936
-3.37952
-5.1656
-6.85146
-1.72833
-6.70247
-8.88988
8.39755
-9.18889
8.54435
12.563
-5.67574
-6.88722
-3.96836
-2.47337
3.92078
-0.491636
-3.71061
3.71587
0.0503402
3.83102
4.75362
4.26198
-3.88512
-1.93083
-3.82974
3.82686
2.04805
3.89105
6.81378
2.29002
6.84448
-6.5809
-2.56198
-6.68196
9.04918
-8.65011
2.85839
-2.7665
5.38136
2.64095
-5.17347
-2.83758
6.21375
-3.21474
-2.99901
-12.1996
10.5347
1.66488
-4.8196
-0.386956
-0.331191
-5.49081
-3.75848
5.37345
0.54464
11.0793
7.32086
-5.51158
5.76203
6.16771
6.2239
-0.175858
5.81454
-5.14337
5.26767
-2.54493
-2.72274
5.4391
-5.57684
-1.24286
-5.48922
4.24636
0.397902
1.56336
-1.33172
-1.84095
-0.525364
-1.76275
1.33706
0.914628
1.42217
0.927687
1.53445
-2.94671
0.554919
2.39179
-2.01902
-1.60031
-3.76559
-1.12176
4.88734
5.7099
2.1116
-5.61456
-0.210863
2.58685
-2.4862
-0.752461
-3.01313
2.22496
-2.97742
-3.67316
-2.01936
5.69251
-3.37004
-0.459699
3.31703
0.552994
-3.82679
-2.0967
3.78806
0.329933
-3.1271
6.19052
-3.06342
-5.05794
2.52791
3.55923
4.53859
-4.78959
2.44725
2.34233
-1.23036
4.24175
0.904679
4.37962
-6.88826
4.66047
5.78135
3.2089
-6.11701
0.965481
-5.92277
8.53272
-7.35596
-1.17676
4.13558
4.39713
7.09227
5.4707
-5.68601
12.7783
-1.18791
-6.16804
7.11069
-3.90179
4.84316
-8.74496
-10.3139
4.14582
-9.16646
10.94
-1.77351
-3.62574
-8.34672
12.7922
-1.21052
-11.5817
8.57942
-4.22748
-4.31052
8.53801
-6.83974
6.85148
-1.98198
-4.86951
-10.1163
-5.7019
10.21
1.61108
-9.87482
12.2376
-2.66246
4.10394
0.717521
4.12526
3.27725
-5.45137
2.17412
3.56249
-5.54446
2.0842
-7.53557
-6.73102
12.061
-5.33002
-10.5037
-9.52245
-0.981215
2.53309
9.70453
-9.47693
7.43153
2.0454
3.30339
0.587666
-3.37385
-0.408389
0.234213
4.5353
-4.76952
4.02249
4.19201
3.30214
1.23316
3.84425
2.10772
-3.86945
-0.328087
-4.16139
1.48654
-1.74244
-3.69012
5.17665
-4.06584
0.375729
-2.74551
-3.50052
6.24603
-4.58071
3.03658
3.15394
5.08463
-4.91248
1.41196
-2.39394
-2.51854
2.65388
-4.39632
1.98787
3.18878
4.37019
0.565998
5.86856
6.19248
-8.47538
0.555222
11.2341
-9.50933
2.4684
8.58518
-9.89993
0.377476
-8.69635
0.994843
-5.24098
-5.10749
5.18116
-6.9095
-3.56379
6.18703
0.657446
-6.29889
-0.40358
-6.04151
-2.84837
-6.48536
-3.04874
-6.14015
-8.73476
-1.65367
-7.08108
6.74388
-6.69057
-3.44652
7.41732
1.12702
-7.41443
7.31825
-7.49386
7.16802
0.0952301
3.62064
4.35721
1.88385
-2.39029
4.27413
-5.10462
7.39464
-8.69233
3.58772
4.1764
-6.73837
-4.51594
5.02746
4.02172
5.32624
8.89971
-10.3751
1.4754
-10.6748
12.011
-1.33616
-16.4418
5.76698
-7.54212
2.4829
0.375498
2.59222
0.560338
2.50009
-3.06043
-2.20616
-2.1248
-2.42109
-3.46414
5.88522
1.11392
-3.50939
2.39547
-3.56784
4.68176
-0.182483
-3.3269
5.28803
-2.78793
5.66352
-3.75032
1.9132
3.42581
5.74799
-2.32218
4.39172
-1.75077
1.91
-4.23217
-1.55414
-2.96217
5.10393
-3.28387
3.65959
-0.334416
3.99401
-4.07105
0.856312
-0.768907
3.42311
3.66362
4.30573
-3.07257
2.92546
-4.67623
-1.30672
-4.11023
-0.921445
-0.269663
-3.72057
3.99023
5.99828
-6.26795
-5.23949
9.53721
-4.29772
7.69982
-5.38627
-2.31356
-4.25811
-4.392
3.88287
1.93167
9.63149
0.210092
-5.59636
-4.93328
-3.98309
3.12872
2.13895
-1.80371
3.46859
2.1349
-0.571537
0.464105
0.958061
1.79136
-1.32725
0.288366
1.50299
-1.04335
1.81187
0.774982
-1.89497
0.132212
-1.31249
3.53745
1.0793
-1.99393
0.666671
0.995766
-3.5407
4.99695
-2.64061
-2.35634
5.99272
1.14587
-3.78648
4.34336
-3.94545
2.37174
-3.4935
-1.41474
-5.36019
-3.62689
-2.53313
4.92859
-3.3521
5.4637
1.25544
-5.25283
6.50827
-3.70302
1.68366
-3.07588
3.85086
-0.978743
-2.09713
2.88766
2.80486
-3.03258
0.0194558
-0.144929
2.39528
-2.54021
-0.582134
-2.60115
-4.57297
4.9029
-2.10582
4.55307
2.16832
-1.91628
6.46935
1.80954
-3.72582
-3.2484
-3.7081
-1.38349
3.1551
-0.594186
-4.25749
-5.46369
4.15825
0.221373
-6.98289
7.7979
-0.815011
-3.99051
-0.669958
4.80554
-6.02857
0.484105
-3.94437
3.85353
4.75821
4.97959
-11.372
-0.209722
-6.21502
1.13113
-7.34615
5.52827
-3.55303
7.69885
-10.3523
6.90576
-9.22525
6.52209
-0.824067
6.24916
-4.07505
2.77411
-8.47601
-6.86493
5.46752
-2.75728
6.18504
-3.11827
9.30331
-5.78073
5.25805
4.04525
-1.00669
-4.15891
-5.25073
4.24404
0.00732182
4.13258
4.97886
-2.87114
4.65078
2.26565
-4.65959
-2.13067
-6.49493
1.83534
-3.34099
-1.91951
3.75485
3.16512
3.75279
1.23631
-3.3444
7.18112
-8.16234
-1.8511
-3.25639
5.23806
-0.994018
3.38244
-6.63883
-1.85854
4.82084
-0.783345
-4.0375
0.854901
-4.41869
1.67079
-6.08948
5.23871
-5.64229
2.22191
-9.76403
-5.19252
-5.14807
-2.25919
-5.23467
-7.58143
5.32224
-1.81445
5.5038
-8.52399
7.74065
-3.48701
8.80925
-5.4342
-1.05116
5.85007
1.31795
10.1272
0.207586
-4.72352
-1.90591
3.87696
-1.97105
1.22281
-3.51298
0.363977
2.48685
3.50587
-6.73321
-0.00516143
-4.72868
-3.91995
7.94168
5.61726
11.6155
1.24044
9.12465
-1.18297
10.3651
4.14326
4.37933
-3.00822
4.48361
0.982014
4.56973
-0.909034
2.82224
1.68319
1.7611
0.725103
2.30719
1.35642
3.1635
0.103073
-2.02173
4.62471
-8.60781
-0.971645
-8.03597
1.12641
5.71269
-4.58628
2.99543
-0.856477
1.02438
-0.0442677
-1.35887
1.40314
-2.76701
-1.93041
-0.427413
-1.67123
2.3379
1.86622
-1.91049
-0.85652
0.355967
-3.98286
3.13753
-3.11807
-0.313214
6.19506
-2.81338
0.273173
-1.12973
-2.32798
-2.85334
2.72113
6.17618
0.293169
3.11277
5.19607
3.09937
0.228223
3.90415
-5.67767
-3.63141
-5.88739
-0.359118
4.44642
1.74625
7.95828
5.79151
4.79749
-1.84134
-10.0037
6.54844
-2.06483
5.21228
-1.17479
-4.91469
5.02732
2.36732
-5.68476
0.0424704
-4.87222
-6.93705
-0.513706
8.25435
-9.61349
8.56233
5.71396
1.36713
-4.40958
-0.738485
4.2419
0.137423
10.5025
-1.12756
-6.74982
7.87738
-4.58513
3.61349
0.772158
2.69643
2.1753
1.31882
-5.431
-10.0173
-2.01106
-1.52964
-4.36741
0.519937
-2.38616
6.23061
-2.61713
3.91706
5.26026
6.28464
-2.13849
-4.12945
6.43622
-2.51916
3.76547
)
;

boundaryField
{
    wall-4
    {
        type            calculated;
        value           uniform 0;
    }
    velocity-inlet-5
    {
        type            calculated;
        value           uniform -3.75095;
    }
    velocity-inlet-6
    {
        type            calculated;
        value           uniform -5.62643;
    }
    pressure-outlet-7
    {
        type            calculated;
        value           nonuniform List<scalar> 8(3.31548 7.7407 4.43373 9.73851 7.42267 5.15427 5.7349 8.97309);
    }
    wall-8
    {
        type            calculated;
        value           uniform 0;
    }
    frontAndBackPlanes
    {
        type            empty;
    }
}


// ************************************************************************* //
