/*--------------------------------*- C++ -*----------------------------------*\
  =========                 |
  \\      /  F ield         | OpenFOAM: The Open Source CFD Toolbox
   \\    /   O peration     | Website:  https://openfoam.org
    \\  /    A nd           | Version:  13
     \\/     M anipulation  |
\*---------------------------------------------------------------------------*/
FoamFile
{
    format      ascii;
    class       volScalarField;
    location    "72";
    object      p;
}
// * * * * * * * * * * * * * * * * * * * * * * * * * * * * * * * * * * * * * //

dimensions      [0 2 -2 0 0 0 0];

internalField   nonuniform List<scalar> 
918
(
0.557198
1.17936
0.000619875
0.556653
-0.00948678
1.14638
-0.512037
0.655287
0.537402
-0.107259
-0.0541569
0.539765
1.00693
0.772593
-1.1241
-0.0115082
0.651562
-0.3819
0.53652
-0.0616463
0.684773
0.543938
0.546962
0.537539
0.597407
0.74731
0.887898
0.0254726
0.0129555
0.00592158
-0.0144731
-0.0359911
-0.0308735
1.03004
1.08112
1.10381
0.505126
0.333722
-0.377491
-0.450659
-0.437527
-0.54437
0.654827
0.65472
-0.214388
0.657972
0.65863
0.524414
0.536772
0.537684
0.538699
0.537687
0.539065
0.403467
-0.10795
-0.139269
-0.0878815
-0.0814625
0.0513117
-0.054949
-0.0574093
-0.0526521
-0.0515694
0.454208
0.53403
0.530503
0.544062
0.553272
1.11891
1.09084
1.11698
1.0306
1.04713
0.98492
0.957616
0.793453
0.815347
0.75794
0.746242
-1.55473
-2.50413
-0.535279
-0.285037
-0.0153543
-0.00959852
-0.00400926
0.648889
0.65015
0.651
0.652855
1.07909
-0.379411
-0.480279
0.536662
0.535474
0.543788
0.54449
0.54051
0.539599
-0.0526156
-0.0493308
-0.0524054
-0.0573129
-0.0556864
0.6688
0.670699
0.538067
0.535068
0.560891
0.581328
0.571438
0.277274
0.608338
0.624274
0.580023
0.74208
0.734429
0.743886
0.861338
0.825165
0.925129
0.948197
0.0182552
-0.0016139
-0.0162051
-0.0195983
-0.0184252
0.500951
0.493484
0.521101
0.508567
0.511079
0.250578
0.117407
0.41863
0.443427
-0.29685
-0.364
-0.429986
-0.460605
-0.568829
0.612805
0.654798
0.653575
-0.224064
-0.152326
-0.286053
-0.0792337
-0.142366
0.514663
0.521688
0.516681
0.532251
0.526714
0.528679
0.541045
0.538114
0.539674
0.46555
0.589022
0.329739
0.294224
-0.24298
-0.154686
-0.242417
-0.0712809
-0.069102
0.0654497
0.0911685
0.0379876
0.0260877
-0.0651539
-0.0594994
-0.0620128
-0.050107
-0.0493883
0.446936
0.435684
0.466911
0.474482
0.520362
0.521868
0.526385
0.52431
0.908401
0.930637
0.938327
0.912193
-3.49155
-6.26963
0.0389416
0.174888
-0.00670446
-0.0110082
0.00439664
-0.0105972
-0.00341616
-0.00452806
-0.0093725
-0.010548
-0.00524923
-0.00416528
0.643468
0.644388
1.00143
1.00856
0.97686
0.929783
0.524888
0.526957
0.53245
0.528334
-0.0486811
-0.0485422
-0.0482984
0.661337
0.666328
0.664008
0.238648
0.148628
0.328495
0.357734
0.636793
0.625701
0.635124
0.639402
0.675989
0.955579
0.973835
0.972059
0.980526
1.02461
1.04106
1.00636
0.480336
0.490352
0.48528
0.524084
0.5219
0.522777
0.519196
0.520127
0.518372
-0.0328508
-0.412248
0.490797
0.507492
0.493067
0.495274
0.692883
0.771442
0.652322
0.653468
0.653224
-0.00974542
-0.068255
0.249329
0.215122
0.386303
0.422826
0.40174
0.879558
0.840098
0.890202
0.863386
0.824942
0.850243
-0.363815
-1.86126
-0.981562
0.523256
0.338093
0.424864
0.00791718
-0.008792
-0.00423075
1.00128
1.07342
0.644804
0.819696
0.822253
0.713737
0.743138
0.798535
0.72535
0.75908
0.793121
0.773585
0.568722
0.503932
0.520036
0.840416
0.896044
0.118205
0.0561281
0.0123714
0.110223
0.167846
0.141754
1.03338
0.949665
1.01975
0.534831
0.535554
-0.00491864
-0.017502
0.539807
0.539863
-0.0170138
-0.00431101
0.408268
-0.831649
0.0966899
0.528396
0.518268
0.535419
-0.0930975
0.354954
-0.0542994
0.046977
-0.00953628
0.529904
0.465346
0.424361
-0.00114916
-0.0206884
-0.0521644
-0.213392
0.5325
0.530804
0.534887
0.535826
0.536508
-0.019315
-0.0148376
-0.0104458
-0.0489528
-0.0413794
-0.0542261
0.499287
0.518752
-0.171252
0.535034
0.53717
0.536988
0.530255
0.535884
0.534138
-0.0120569
-0.0176766
-0.0190148
0.218618
0.351296
0.646915
0.73268
0.619417
0.395726
0.161459
0.550633
0.613628
0.519787
0.67291
0.650363
0.65449
0.162197
0.0117833
0.171139
0.112964
0.526259
0.524987
0.516519
0.513475
0.530286
0.528402
0.532959
0.529985
0.532935
0.534315
-0.049582
-0.0756308
-0.0851361
-0.151849
0.309706
0.570734
0.254332
0.28366
0.141251
-0.0484205
-0.0503331
-0.0518676
-0.059812
0.000350873
-0.025386
0.0416384
0.0418205
0.0137132
-0.0119104
-0.00982294
-0.0208548
-0.0151113
0.523166
0.52313
0.527603
0.536321
0.475027
0.478816
0.443581
0.464376
0.449599
0.388185
0.42361
0.398779
-0.00904233
0.000507696
-0.00601362
-0.0186472
-0.0146709
-0.0347218
-0.031382
-0.0268373
-0.0225888
-0.0295495
-0.0466365
-0.0493637
-0.171442
-0.287326
0.987936
0.908527
0.137087
0.521642
0.528104
0.524861
0.529798
0.532926
0.533721
0.531426
0.527972
0.518981
0.520438
0.517225
0.518316
-0.102424
-0.244142
-0.0724847
-0.147437
0.145654
0.62797
0.363188
0.298311
0.293724
0.52285
0.915478
0.698022
0.666169
0.663088
-0.344092
0.044166
-0.280725
0.333804
0.161499
0.646118
0.695477
0.71738
0.665242
0.618388
-0.100001
0.555859
-0.0752814
-0.0227441
0.179141
0.0543248
0.657135
0.638577
0.646054
0.648153
0.660497
0.641143
0.623324
0.623552
0.643224
0.647942
0.481895
0.249261
0.199734
0.161275
0.642696
0.515272
0.564405
0.489008
0.52159
0.524099
0.522755
0.504128
0.511729
0.507241
0.513809
0.517469
0.526006
0.52649
0.521739
0.523868
-0.056285
-0.0625627
-0.025208
-0.135706
-0.128369
-0.190596
-0.0592666
0.0739622
0.0357534
0.23681
0.340439
0.0514541
-0.0571687
-0.0298484
0.0121838
0.179315
0.207989
0.0736938
0.161376
0.152716
0.133686
0.236622
0.23995
-0.0306632
-0.0320022
-0.0368409
-0.0392938
0.0181337
0.0896133
0.09881
-0.00857013
-0.0139635
-0.0465034
-0.0465295
-0.0229855
-0.0282295
-0.0232472
0.00428987
-0.053512
-0.0211974
-0.0073465
-0.00616296
-0.00668784
-0.0121064
0.518085
0.519656
0.519998
0.527949
0.540204
0.554785
0.521246
0.497289
0.488057
0.491071
0.463987
0.474262
0.47012
0.483664
0.504863
0.513526
0.511836
0.514663
0.496935
0.498723
0.4852
0.48883
0.464004
0.444549
0.432564
-0.0436063
-0.00579218
-0.0133942
-0.0393726
-0.0105651
-0.0221749
-0.0116348
0.00693744
-0.00950911
-0.0104097
-0.0201885
-0.0272223
-0.0269498
-0.0733786
0.0133986
-0.185051
-0.220307
-0.293592
0.890159
1.01438
0.809289
0.582166
0.60262
0.846138
0.930423
0.542443
0.734794
0.757948
0.587559
0.854634
0.526494
0.526088
0.523688
0.523166
0.524387
-0.00720027
0.099388
0.09691
0.160806
0.277422
0.388957
0.320281
0.194812
0.324725
0.32717
0.621052
0.633186
0.58846
0.612461
0.613096
0.424847
0.500464
0.552165
0.513393
0.565353
0.587064
0.540984
0.574008
0.523322
0.478821
0.475009
0.424502
0.444158
0.419676
0.402798
0.516244
0.49337
0.504172
0.494526
0.515719
0.543324
0.540288
0.562163
0.577383
0.497862
0.452723
0.462133
0.492312
0.453789
0.469392
0.48535
0.233418
0.135683
0.218513
-0.0663347
0.00386885
-0.00842592
-0.0572606
-0.00560521
0.278532
-0.412086
-0.388889
-1.01554
0.504603
0.953188
0.586994
0.563579
0.661889
0.648458
0.654805
0.67176
0.668646
0.63128
0.640138
0.644883
0.593922
0.614676
0.633915
0.629756
0.524317
0.380991
0.380712
0.328062
0.198209
0.238292
0.433976
0.358345
0.283517
0.283599
0.456053
0.342473
0.412723
0.44577
0.376995
0.331727
0.534533
0.600775
0.594058
0.567609
0.477735
0.489696
0.514243
0.54764
0.57121
0.60422
0.513237
0.519189
0.520421
0.517887
0.515153
0.518261
0.518553
0.521141
0.521713
0.524743
0.523818
-0.0531424
-0.0388351
-0.0510016
-0.063103
-0.0185703
-0.0210153
0.022826
0.0110377
-0.0160997
-0.0119119
-0.0334851
-0.0374964
-0.0341862
-0.0263678
0.102677
0.115416
0.100574
0.0603392
0.250019
0.38016
0.454404
0.329343
0.223422
0.24813
0.266592
-0.0128121
0.0129469
0.000229933
0.0397894
0.0316753
-0.0401272
-0.0439833
-0.0401365
-0.0319089
-0.023873
-0.0398062
-0.0452583
-0.0361589
-0.0408496
-0.04355
-0.0473997
0.499565
0.493038
0.494598
0.48854
0.487273
0.501533
0.505864
0.507812
0.513272
0.51566
0.50567
0.511059
0.515054
-0.0129924
-0.0361847
-0.039534
-0.0309684
-0.0327843
-0.0301259
-0.0316644
0.123492
0.0544165
0.0581622
0.0109698
-0.121478
-0.0634631
0.492148
0.491018
0.480274
0.721242
0.570456
0.491446
0.588613
0.694227
0.27629
0.472827
0.308071
0.888258
0.785036
0.9313
0.542113
0.246207
0.410908
0.452923
0.266879
0.342975
0.324006
0.213166
0.243816
0.282466
0.381191
0.266358
0.243337
-0.000276181
0.190655
0.302279
0.284187
0.408526
0.469081
0.267451
0.187156
0.142065
0.605362
0.625098
0.638294
0.610635
0.632711
0.581333
0.573536
0.588722
0.596751
0.590886
-0.743938
-0.450206
-1.39732
-0.720584
-0.26471
0.535188
0.507865
0.769596
0.64514
0.678605
0.663114
0.622634
0.592695
0.617786
0.639715
0.339089
0.449562
0.424765
0.43066
0.333533
0.263628
0.561953
0.559356
0.592491
0.616149
0.587852
0.618163
0.511045
0.510769
0.510233
0.506468
0.504725
0.50708
0.0583887
0.0259935
0.0671431
0.0494394
0.027036
0.0150872
-0.0121795
-0.022236
-0.0290477
-0.0284828
-0.0140529
-0.00999795
0.172318
0.109459
0.0299108
0.0587013
-0.00212143
-0.0705497
-0.0898227
0.015862
0.112015
0.102212
0.40532
0.654578
0.474655
0.642079
0.484826
0.540498
0.46866
0.459881
0.484766
0.380228
0.460609
0.25209
-0.256436
-0.16563
0.795189
0.805635
0.581307
0.407002
0.174379
0.351187
0.540446
0.469877
0.505273
0.574411
0.561309
0.0310565
0.0881146
0.376837
0.603564
0.241853
0.232783
0.226196
0.41113
0.328981
)
;

boundaryField
{
    wall-4
    {
        type            zeroGradient;
    }
    velocity-inlet-5
    {
        type            zeroGradient;
    }
    velocity-inlet-6
    {
        type            zeroGradient;
    }
    pressure-outlet-7
    {
        type            fixedValue;
        value           uniform 0;
    }
    wall-8
    {
        type            zeroGradient;
    }
    frontAndBackPlanes
    {
        type            empty;
    }
}


// ************************************************************************* //
