/*--------------------------------*- C++ -*----------------------------------*\
  =========                 |
  \\      /  F ield         | OpenFOAM: The Open Source CFD Toolbox
   \\    /   O peration     | Website:  https://openfoam.org
    \\  /    A nd           | Version:  13
     \\/     M anipulation  |
\*---------------------------------------------------------------------------*/
FoamFile
{
    format      ascii;
    class       surfaceScalarField;
    location    "72";
    object      phi;
}
// * * * * * * * * * * * * * * * * * * * * * * * * * * * * * * * * * * * * * //

dimensions      [0 3 -1 0 0 0 0];

internalField   nonuniform List<scalar> 
1300
(
3.75095
5.62643
-3.32107
3.75095
-7.73363
5.62643
-4.39287
4.39287
-0.349477
0.349477
1.87639
1.87457
-2.68877
2.68877
-2.07032
2.07032
-2.52318
2.52318
-5.24649
5.24649
-5.06932
5.06932
4.6538
-4.6538
-6.31478
6.31478
-0.939251
0.939251
-3.68428
3.68428
3.1696
-3.1696
-2.05299
2.05299
0.0463908
-0.0463908
-0.553472
4.30443
3.19748
3.19748
-2.01363
2.01363
-4.86912
4.86912
6.21811
-6.21811
5.30065
-5.30065
-1.97958
-2.45585
1.78636
-11.5005
-5.94726
-5.94726
-8.44037
8.44037
-2.81394
2.81249
2.94631
-2.94631
-1.7723
1.7723
-4.35493
-0.03794
-4.35493
4.3629
0.0299773
4.3629
-0.4461
0.0966225
-0.4461
3.99859
-3.99859
0.258635
0.0908423
0.258635
3.06537
-3.06537
-1.87712
3.7535
1.87384
-1.8719
6.17632
-1.87905
3.75362
-6.01419
6.01419
-2.93406
0.245295
-2.93406
2.47521
0.21356
2.47521
-6.85075
6.85075
-2.10407
0.033751
-2.10407
2.04358
0.0267432
2.04358
2.88152
-2.88152
-2.62993
0.106746
-2.62993
2.39209
0.131095
2.39209
0.35351
5.27292
-5.97994
8.79243
-5.27292
0.0264271
5.20836
0.0381303
5.20836
-5.10606
0.0367405
-5.10606
5.01216
0.0571562
5.01216
4.73859
-0.0847903
4.73859
-4.77256
0.118758
-4.77256
-3.38604
-4.05201
-6.46603
0.151244
-6.46603
-1.03304
0.0937899
-1.03304
0.822434
0.116816
0.822434
-3.68593
3.68593
-4.10475
0.420474
-4.10475
3.12396
0.0456402
3.12396
1.86849
1.88246
5.61944
-5.61944
2.44984
-2.02141
-0.0315815
-2.02141
-2.1218
-3.17885
2.1218
-0.068807
-0.177059
0.22345
-0.177059
3.15944
0.038041
3.15944
2.23607
0.156019
-2.23607
0.222442
3.27709
-3.27709
1.33919
0.67444
1.33919
-5.56344
5.56344
4.95635
0.0558135
-4.95635
0.0872316
6.15674
0.0613663
6.15674
-6.19954
-0.0185691
-6.19954
2.53086
-4.98671
-2.6238
6.13185
0.182932
-6.13185
0.184585
2.91826
0.0280544
2.91826
-2.91963
2.91963
-2.98476
0.0384507
-2.98476
-2.17088
0.398578
-2.17088
1.47403
0.298272
1.47403
-4.25652
-0.0984112
-4.25652
-4.25267
0.14792
4.25267
0.110223
1.13006
-1.13006
-0.581224
0.135124
-0.581224
-4.12202
-0.134497
4.12202
-0.123434
-3.88832
-0.110272
-3.88832
-3.02456
0.0397985
3.02456
0.0408026
3.11289
0.0465492
-3.11289
0.0475249
-1.87082
3.75328
-1.88014
3.75397
-5.63452
-0.379675
-5.63452
6.32524
-0.311047
6.32524
3.32619
0.358089
-3.32619
0.392128
2.30439
0.170815
2.30439
-6.81212
-0.0386227
-6.81212
6.83637
0.0143738
6.83637
2.18194
0.122453
-2.18194
0.0778644
2.02529
0.0182861
2.02529
2.90155
-0.0200358
2.90155
-2.87561
-0.00591195
-2.87561
2.79291
-2.79291
2.71732
0.0755918
-2.71732
0.0873885
-11.1331
11.1146
-0.0353177
-11.0978
5.17304
5.17304
4.16538
0.573208
4.16538
-4.9906
0.218046
-4.9906
2.68216
-5.30595
3.0674
-6.45344
4.66392
-16.1644
4.3029
-8.35492
6.70458
-6.70458
6.59437
0.110204
-6.59437
0.128349
-1.15146
0.118423
-1.15146
-3.08405
-0.601887
-3.08405
4.32786
-0.641929
4.32786
-3.02812
3.02812
-3.07742
0.0492968
3.07742
0.0465477
2.0124
0.0128946
-2.0124
-0.00901404
0.205258
0.0533774
-0.205258
0.0281988
3.49048
-0.213389
3.49048
-3.0787
-0.198393
-3.0787
-1.24937
0.0979038
1.24937
0.0898199
-5.81418
0.250738
-5.81418
-11.1907
0.0929168
-11.1526
-6.10662
-6.10662
2.33375
11.1262
-2.89357
0.0179671
2.89357
0.024686
2.97519
0.0529272
-2.97519
0.0555628
-2.85944
0.0665253
2.85944
0.0601919
-2.54562
0.374737
-2.54562
-1.07276
1.07276
-1.23809
0.165329
1.23809
0.235941
1.40216
-0.272099
1.40216
0.707142
0.115292
-0.707142
0.125918
-3.78853
-0.0997889
-3.78853
6.5604
-0.23516
6.5604
-2.96366
-0.115039
2.96366
-0.0621077
-0.0332896
11.1479
-5.13976
0.0336965
5.13976
-11.2092
11.2429
-3.21603
0.670415
3.21603
0.949351
5.28373
0.279712
-5.28373
0.293124
6.78752
0.0488527
-6.78752
0.082942
-2.59153
-0.492518
-2.59153
-5.05298
-0.581534
5.05298
-0.72512
-11.4749
-0.204432
11.6794
-11.4178
6.01861
0.138129
-6.01861
11.381
-1.03075
-0.0993077
1.03075
0.0420122
1.72971
-0.327557
1.72971
3.68684
-0.196352
-3.68684
-0.101693
-6.71489
-0.0972297
6.71489
-0.154496
-2.14672
-0.444811
2.14672
-0.417004
-4.26712
4.30516
1.9092
-2.38543
-2.60128
-5.56428
1.85185
1.90143
4.30169
-10.145
-6.01942
-9.9604
7.26156
-6.96844
-9.24147
9.15668
7.89124
-8.00151
-5.78483
5.83138
6.4829
-6.4421
1.87881
1.87469
8.02132
-7.77602
-15.594
15.2143
7.54794
-7.51419
15.7414
-15.78
-17.8219
17.8707
-5.70576
5.8125
-6.74035
6.73444
-6.97576
6.91365
-2.83941
-3.61404
13.0995
-12.9483
8.57787
-8.60945
-8.61678
9.03725
3.3826
0.922565
3.42915
-1.88214
3.76096
-1.87148
3.78068
2.71775
-5.55716
2.5882
-5.18948
4.35581
4.22206
-4.287
-1.27728
-5.9248
5.95286
-5.81302
5.87321
9.13514
-9.17308
-1.88517
3.75986
-1.8688
3.77024
-3.42502
-2.35981
3.37938
0.922311
8.06273
5.03682
-8.24566
-1.71475
-8.04085
7.84449
-8.23103
8.03264
-0.434393
5.81883
-5.38444
4.43472
-1.56235
7.38118
5.69921
5.91726
5.86567
-5.58595
1.10277
-6.48721
-6.39998
-2.26006
2.39518
2.17392
-2.08308
6.14118
1.75006
6.01775
-5.7618
-2.23972
-5.86159
3.82063
2.01074
3.86993
4.07845
2.40446
4.11825
3.03044
-3.03596
0.00551986
-3.05663
6.08707
0.723898
-5.41644
-4.49413
4.97637
3.04495
5.18993
-5.55406
-2.22196
-5.16193
-9.53278
-6.06118
-10.1143
10.0752
5.13912
9.76411
-11.944
11.7895
4.80641
2.74153
4.83316
-4.94889
-2.5653
-4.87102
11.6341
-2.63944
-8.99467
-10.3035
-7.51836
10.2892
5.45225
10.946
6.92479
11.0289
4.41925
7.21485
-9.87151
2.35315
-3.86802
-1.83774
-3.78063
3.67197
2.14053
3.80306
-4.21752
-2.52283
-4.19955
-4.29581
-2.67995
4.31584
2.4186
-4.41725
-3.81378
4.53229
2.38136
4.03449
-10.0539
4.32043
-7.93446
-9.1838
-3.76451
-9.05545
3.51871
2.6113
-6.13001
-2.03844
8.50521
-4.28315
7.22793
-5.18133
-3.42811
-5.19035
-6.8815
-1.73528
-6.73358
-8.87466
8.38214
-9.17028
8.52835
12.5096
-5.64182
-6.86774
-3.96845
-2.47365
3.92092
-0.491778
-3.71048
3.716
0.0504793
3.83116
4.75372
4.26195
-3.88405
-1.92897
-3.82848
3.82398
2.04923
3.8905
6.83753
2.29761
6.86751
-6.61009
-2.56299
-6.7085
9.03608
-8.6375
2.83385
-2.73594
5.3979
2.63474
-5.18451
-2.85633
6.21137
-3.21852
-2.99285
-12.1977
10.5271
1.67055
-4.81647
-0.38175
-0.42814
-5.48845
-3.75303
5.36969
0.54757
11.0747
7.32164
-5.51131
5.76205
6.16807
6.22388
-0.176093
5.80475
-5.13433
5.25432
-2.59968
-2.65464
5.47184
-5.60634
-1.23666
-5.52079
4.28413
0.411406
1.48015
-1.2567
-1.78462
-0.475435
-1.6587
1.27657
0.897352
1.32995
0.95198
1.4432
-2.95912
0.543256
2.41587
-2.00714
-1.53982
-3.82279
-1.1468
4.96959
5.73857
2.10593
-5.63687
-0.224714
2.527
-2.41018
-0.778075
-3.04472
2.25483
-3.03291
-3.6713
-2.07954
5.75084
-3.36961
-0.458879
3.31668
0.553252
-3.8272
-2.0976
3.78875
0.329496
-3.12847
6.19121
-3.06274
-5.05744
2.52757
3.55951
4.53831
-4.7895
2.44767
2.34183
-1.23
4.24683
0.943099
4.41764
-6.93359
4.71163
5.80365
3.23361
-6.16174
0.999802
-5.93379
8.55311
-7.3752
-1.17791
4.17424
4.37887
7.0606
5.44896
-5.67198
12.7326
-1.20508
-6.17012
7.13887
-3.90526
4.8488
-8.75406
-10.2978
4.12765
-9.12872
10.8995
-1.77074
-3.61913
-8.3249
12.7479
-1.20406
-11.5438
8.56006
-4.28131
-4.38751
8.66882
-6.92075
6.95281
-1.99389
-4.95892
-10.0911
-5.68892
10.1883
1.60119
-9.92246
12.2756
-2.70762
4.1175
0.715659
4.13578
3.30128
-5.48421
2.18294
3.61947
-5.61336
2.08173
-7.56594
-6.72135
12.055
-5.33365
-10.4859
-9.50299
-0.982864
2.53467
9.74094
-9.45946
7.41934
2.04012
3.29992
0.590584
-3.37551
-0.405118
0.237405
4.51841
-4.75581
4.04047
4.19649
3.26953
1.24887
3.84549
2.10736
-3.87018
-0.329377
-4.16401
1.48405
-1.74541
-3.69428
5.17834
-4.06766
0.373378
-2.74564
-3.49727
6.24291
-4.58337
3.03548
3.15573
5.08471
-4.91283
1.41555
-2.39263
-2.5202
2.65211
-4.39752
1.99301
3.18532
4.37438
0.560594
5.87041
6.18459
-8.48171
0.547249
11.2214
-9.50666
2.46103
8.56786
-9.88037
0.377381
-8.67807
0.99745
-5.2806
-5.13256
5.19238
-6.92765
-3.56169
6.21257
0.654938
-6.3228
-0.410787
-6.03227
-2.84239
-6.47708
-3.04149
-6.12878
-8.71347
-1.65147
-7.062
6.73067
-6.67759
-3.43672
7.40271
1.12564
-7.40763
7.30832
-7.48604
7.15848
0.0954086
3.62059
4.35735
1.8837
-2.39059
4.27429
-5.11996
7.41756
-8.71785
3.59789
4.2005
-6.76349
-4.51734
5.02046
4.01562
5.31873
8.87949
-10.3445
1.46496
-10.6479
11.9812
-1.33334
-16.4061
5.75819
-7.52658
2.43613
0.39772
2.55455
0.542683
2.49826
-3.04094
-2.19326
-2.10344
-2.43901
-3.46581
5.90481
1.09073
-3.52945
2.43873
-3.56638
4.6571
-0.215507
-3.31395
5.27223
-2.77397
5.66995
-3.78188
1.88807
3.4374
5.75295
-2.31555
4.39512
-1.76039
1.92702
-4.24257
-1.53879
-2.95999
5.10052
-3.28292
3.6563
-0.344713
4.00101
-4.04746
0.828935
-0.777924
3.41856
3.64101
4.31661
-3.06774
2.9188
-4.67919
-1.32376
-4.11859
-0.93327
-0.257386
-3.7007
3.95808
5.97746
-6.23484
-5.23204
9.52357
-4.29152
7.69006
-5.37946
-2.31061
-4.2507
-4.3868
3.87597
1.92878
9.61884
0.209146
-5.5886
-4.92518
-3.97583
3.10286
2.15146
-1.74687
3.41742
2.17501
-0.694862
0.425157
0.90479
1.78355
-1.35839
0.323709
1.45984
-0.932989
1.71628
0.810717
-1.83157
0.172866
-1.31148
3.56631
1.10439
-2.00174
0.643354
0.975984
-3.57566
5.05626
-2.68562
-2.37064
6.03224
1.13828
-3.82391
4.38251
-3.9711
2.38972
-3.53652
-1.43419
-5.40529
-3.65523
-2.52095
4.95968
-3.38386
5.48978
1.28839
-5.26507
6.55346
-3.72763
1.64808
-3.0557
3.86642
-0.929477
-2.12622
2.90359
2.84725
-3.07547
0.0307492
-0.17188
2.41048
-2.58236
-0.622428
-2.62957
-4.57352
4.90301
-2.10524
4.55291
2.16906
-1.91708
6.46998
1.80878
-3.72586
-3.24865
-3.70753
-1.38403
3.15428
-0.581249
-4.28977
-5.54017
4.16732
0.250321
-7.06018
7.87838
-0.818201
-4.01523
-0.696399
4.87064
-6.08534
0.471978
-4.00361
3.87478
4.81787
5.0682
-11.3254
-0.218347
-6.18633
1.12372
-7.31006
5.50259
-3.53845
7.66609
-10.3198
6.88305
-9.19413
6.48818
-0.821871
6.24058
-4.05765
2.75408
-8.44301
-6.84182
5.53699
-2.79547
6.25265
-3.16574
9.41839
-5.87336
5.32467
4.09372
-1.02928
-4.16107
-5.31227
4.283
0.0123923
4.14818
4.98035
-2.87299
4.65097
2.26937
-4.662
-2.12814
-6.4954
1.8334
-3.33967
-1.92103
3.75443
3.16368
3.75427
1.23423
-3.34915
7.19064
-8.17351
-1.857
-3.27557
5.29403
-1.01103
3.41468
-6.69025
-1.86591
4.79201
-0.781853
-4.01016
0.849809
-4.4115
1.67471
-6.08621
5.25295
-5.66373
2.22184
-9.74842
-5.18579
-5.14377
-2.2585
-5.22754
-7.56688
5.30837
-1.80868
5.49963
-8.50082
7.71897
-3.48039
8.78877
-5.42701
-1.05007
5.84401
1.31447
10.1032
0.220485
-4.73783
-1.91791
3.8464
-1.92849
1.18495
-3.48021
0.366189
2.49148
3.54077
-6.77561
0.0121134
-4.72571
-3.91613
7.93175
5.60744
11.5849
1.24044
9.11212
-1.18037
10.3526
4.13836
4.3743
-2.98785
4.45281
0.970236
4.56813
-0.926244
2.81431
1.6283
1.72209
0.688085
2.30264
1.33836
3.13158
0.0906359
-2.0128
4.61998
-8.59581
-0.968625
-8.0226
1.13408
5.70726
-4.57318
2.94377
-0.792311
1.01528
-0.108449
-1.23484
1.34329
-2.76309
-1.92971
-0.469869
-1.69566
2.33901
1.87065
-1.86914
-0.893947
0.358088
-4.01332
3.17843
-3.14768
-0.300425
6.25303
-2.82016
0.237799
-1.17208
-2.39177
-2.86721
2.69434
6.17606
0.293922
3.11333
5.19693
3.09933
0.226346
3.88294
-5.65368
-3.683
-5.87203
-0.369436
4.5012
1.7603
7.98065
5.85402
4.84299
-1.84726
-10.0208
6.51472
-2.06191
5.18138
-1.17122
-4.91499
5.0468
2.37076
-5.70174
0.0380059
-4.87698
-6.93889
-0.512671
8.23164
-9.59057
8.54049
5.6981
1.3639
-4.40381
-0.739964
4.23848
0.135822
10.4884
-1.12867
-6.71687
7.84554
-4.57859
3.60997
0.744585
2.67284
2.08788
1.29557
-5.4213
-9.99448
-2.05932
-1.51634
-4.42995
0.539638
-2.41029
6.22058
-2.61061
3.90997
5.23492
6.25021
-2.13024
-4.1046
6.42176
-2.51179
3.73841
)
;

boundaryField
{
    wall-4
    {
        type            calculated;
        value           uniform 0;
    }
    velocity-inlet-5
    {
        type            calculated;
        value           uniform -3.75095;
    }
    velocity-inlet-6
    {
        type            calculated;
        value           uniform -5.62643;
    }
    pressure-outlet-7
    {
        type            calculated;
        value           nonuniform List<scalar> 8(3.32107 7.73363 4.43543 9.71413 7.43805 5.15466 5.74956 8.96682);
    }
    wall-8
    {
        type            calculated;
        value           uniform 0;
    }
    frontAndBackPlanes
    {
        type            empty;
    }
}


// ************************************************************************* //
