/*--------------------------------*- C++ -*----------------------------------*\
  =========                 |
  \\      /  F ield         | OpenFOAM: The Open Source CFD Toolbox
   \\    /   O peration     | Website:  https://openfoam.org
    \\  /    A nd           | Version:  13
     \\/     M anipulation  |
\*---------------------------------------------------------------------------*/
FoamFile
{
    format      ascii;
    class       volVectorField;
    location    "72";
    object      U;
}
// * * * * * * * * * * * * * * * * * * * * * * * * * * * * * * * * * * * * * //

dimensions      [0 1 -1 0 0 0 0];

internalField   nonuniform List<vector> 
918
(
(0.98516 -0.000507644 0)
(0.00501698 2.96625 0)
(0.00552011 0.885488 0)
(0.979704 0.00214546 0)
(-0.0146935 2.06142 3.29311e-20)
(-0.0070492 2.9488 -2.4536e-18)
(0.820411 1.16468 4.50345e-19)
(0.101775 0.0660236 -1.46136e-20)
(0.999909 -0.000276075 0)
(0.0667912 0.734454 0)
(0.00987784 0.491111 0)
(0.732596 0.00105685 0)
(0.0110958 2.93041 0)
(0.00254942 2.79518 0)
(-0.0179084 3.1484 7.80836e-19)
(-0.0184494 1.9198 9.92371e-21)
(0.284587 0.0540004 1.01794e-18)
(0.188772 1.14326 3.16868e-19)
(0.96272 0.00501579 0)
(0.0077402 0.466526 0)
(-0.0148867 0.0666728 -6.86217e-19)
(1.00197 -0.00497486 0)
(1.00023 -0.00978411 0)
(0.975739 -0.00643884 0)
(0.598834 0.0283778 0)
(0.0141877 2.64215 0)
(-0.0148917 2.91 9.01757e-19)
(0.0106243 0.932788 0)
(-0.0177227 1.18212 0)
(0.0112959 0.915592 0)
(-0.0174889 2.59019 0)
(-0.00352044 2.11236 -2.63003e-20)
(-0.0103088 1.89865 0)
(-0.0206066 2.9876 -8.81473e-23)
(-0.016684 3.00529 1.90682e-18)
(0.00209721 3.00017 0)
(0.871432 -0.00965876 0)
(0.402404 0.932523 1.80583e-19)
(0.806186 1.17865 -5.14772e-19)
(0.957444 1.02477 5.59545e-19)
(0.674358 1.27045 -1.04423e-19)
(0.675057 1.24433 6.00579e-19)
(0.136354 0.120551 1.42561e-20)
(0.132862 0.0545693 0)
(1.16259 0.564181 0)
(0.109586 0.093881 6.46263e-20)
(0.0723645 0.0498959 -6.70628e-20)
(0.919918 -0.0074587 0)
(1.00027 0.000161571 0)
(0.999909 0.000338686 0)
(1.00363 -0.00775862 0)
(1.00096 -0.0009191 0)
(1.00017 3.74901e-05 0)
(0.0730408 1.82591 -7.71241e-19)
(0.0327727 0.947344 0)
(0.0985139 0.814502 0)
(0.0147097 0.895959 0)
(0.041272 0.651068 0)
(0.00717127 2.01528 0)
(-0.00380955 0.784394 0)
(0.0113097 0.505405 0)
(-0.00746282 0.779462 0)
(0.0101314 0.479662 0)
(0.841969 -0.0156685 0)
(0.841685 0.0280166 0)
(0.7598 -0.00143904 0)
(0.800913 0.0296899 0)
(0.701312 0.0141228 0)
(0.0146816 3.00041 9.09281e-19)
(0.0114837 3.00806 0)
(0.00610661 3.00274 0)
(0.0135299 2.99736 1.03114e-23)
(0.00796515 2.95849 -1.35142e-18)
(0.014499 2.98206 0)
(0.0108803 2.90356 0)
(0.0243046 2.93097 2.06299e-24)
(0.00471693 2.82498 0)
(0.0300829 2.91657 0)
(-0.00486433 2.74535 0)
(0.304615 3.54069 0)
(-0.131602 3.6212 0)
(0.137433 3.23839 -7.26638e-19)
(-0.0136884 2.97706 0)
(-0.0227198 1.98362 0)
(-0.00769587 2.1686 -9.78769e-21)
(-0.0124017 1.92769 4.22552e-21)
(0.34113 0.140787 -3.53577e-19)
(0.315979 0.0314173 -3.43664e-19)
(0.295481 0.145645 -1.05815e-18)
(0.246649 0.0614184 -6.87304e-19)
(0.229424 0.984003 0)
(0.272301 1.29352 -3.6841e-19)
(0.366013 1.22788 6.1451e-19)
(0.987431 0.00857474 0)
(0.941849 0.00582479 0)
(1.0003 0.000581233 0)
(1.00286 0.00930977 0)
(1.00301 0.00847246 -2.74517e-18)
(0.991907 0.00969527 2.07305e-18)
(-0.0104522 0.778277 0)
(0.00942853 0.473823 0)
(-0.0478853 1.0075 0)
(-0.027318 0.823236 0)
(0.00462604 0.468795 0)
(-0.0501382 0.0989512 2.12719e-19)
(0.054426 0.0594903 0)
(0.993554 -0.00836966 0)
(0.95447 -0.00653312 0)
(0.744528 0.0280108 0)
(0.679907 0.0255974 0)
(0.660621 0.0233967 0)
(0.971917 -0.0072181 0)
(0.59091 0.0732008 0)
(0.453814 -0.00703901 1.54144e-18)
(-0.0374961 2.86126 6.63852e-19)
(0.0411735 2.90974 0)
(0.0534762 2.88631 0)
(-0.00470283 2.70083 0)
(-0.0132069 2.98527 8.53027e-19)
(-0.0177851 2.89506 0)
(-0.0153563 2.98808 -2.64657e-18)
(-0.013312 2.92519 9.0615e-19)
(-0.0281042 1.34565 0)
(-0.00319315 1.37448 0)
(-0.00814518 2.13342 5.25964e-22)
(-0.00744663 2.09484 0)
(-0.0208721 1.90709 0)
(0.938672 -0.00736502 0)
(0.857617 -0.00997842 0)
(0.863278 0.00513289 0)
(0.949646 -0.00779463 0)
(0.884113 -0.00819766 0)
(0.513738 1.12536 -2.28006e-19)
(0.562898 1.17632 0)
(0.367098 0.877589 3.36708e-20)
(0.309832 0.736314 0)
(0.919126 1.0615 -1.5448e-19)
(1.03788 0.871161 3.14877e-19)
(0.358959 1.35508 0)
(0.52671 1.32604 0)
(0.549261 1.26461 0)
(0.121193 0.185088 -3.02616e-19)
(0.165505 0.125238 0)
(0.175968 0.0791039 1.90685e-19)
(1.00873 0.925579 0)
(1.08304 0.779422 0)
(1.10826 0.721073 -2.5112e-19)
(1.14199 0.623619 0)
(1.19251 0.40726 5.75202e-20)
(0.95779 -0.0086878 0)
(0.962531 -0.0100246 0)
(0.901788 -0.00798889 0)
(0.984208 -0.00914218 0)
(0.974721 -0.00932541 0)
(0.937147 -0.00637479 0)
(1.00019 0.0023404 0)
(1.0009 0.00141552 0)
(0.999909 0.000855737 0)
(0.0355587 2.07275 4.27438e-19)
(0.118677 1.76888 0)
(0.0181782 2.18641 6.56827e-19)
(0.0460861 1.88029 -5.47367e-19)
(0.106339 1.14892 -2.59469e-19)
(0.0491889 1.02808 0)
(0.143066 0.980157 0)
(0.00740929 0.851168 0)
(0.019988 0.584373 0)
(-0.000864253 2.24191 -8.04462e-22)
(0.0162658 2.01921 0)
(-0.00181207 2.2445 -2.79097e-20)
(0.00876125 2.02502 4.26137e-20)
(0.00181377 0.823002 0)
(-0.000703388 0.799222 0)
(0.0138685 0.535006 0)
(-0.00936937 0.775778 0)
(0.00481984 0.47328 0)
(0.9387 0.00984177 0)
(0.850642 -0.0145861 0)
(0.927818 0.000478349 0)
(0.842788 -0.0128666 0)
(0.811437 -0.00271968 0)
(0.898421 0.0228656 0)
(0.874317 0.0259366 0)
(0.785433 -0.00348981 0)
(0.0056921 3.06488 -8.46717e-21)
(0.016751 3.05773 0)
(0.0147118 2.96901 0)
(0.00869051 2.87617 0)
(0.919985 3.95253 0)
(1.23317 3.28626 9.25443e-19)
(0.0690038 3.06932 0)
(-0.0292264 2.90217 0)
(-0.00974352 1.39763 0)
(-0.0264051 1.69643 0)
(-0.0153264 1.53234 0)
(-0.0293174 2.55132 -1.22418e-20)
(-0.0136515 2.24473 0)
(-0.0193626 2.39063 0)
(0.000474814 1.95286 7.69681e-22)
(-0.0040314 2.24091 -8.6243e-21)
(-0.00598758 2.20349 -4.45578e-21)
(-0.00676562 1.93915 0)
(0.394178 0.123577 5.4024e-19)
(0.364035 0.0194794 -5.30141e-19)
(0.258666 1.58529 0)
(0.277771 0.757149 -3.15646e-19)
(0.176926 1.67251 -1.04756e-18)
(0.225855 1.2203 1.04985e-18)
(0.901977 0.00632686 0)
(0.967378 0.0111417 0)
(0.974531 0.0108175 0)
(0.923271 0.00640404 0)
(-0.00954943 0.77303 0)
(-0.0110038 0.773009 0)
(0.00547699 0.469392 0)
(0.100288 0.0758187 5.97329e-19)
(0.0926608 0.059691 -7.07311e-19)
(0.0542374 0.045231 0)
(1.10048 0.0867278 2.70031e-20)
(1.08254 0.039787 0)
(1.01417 0.0402306 0)
(0.907981 -0.00526481 0)
(0.447523 0.104008 0)
(0.507592 0.0871106 -2.46326e-18)
(0.408186 0.0132896 9.21206e-19)
(0.0086655 2.98087 7.13214e-19)
(-0.032563 2.86537 4.69178e-20)
(0.00359742 3.05025 -1.79321e-20)
(0.0202428 3.04335 6.38027e-19)
(-0.0150185 2.99659 2.97641e-20)
(-0.0129323 2.94948 -1.19796e-22)
(-0.0172467 3.01192 -5.51219e-19)
(0.0148572 3.02379 3.98827e-19)
(0.00737328 3.03678 -6.31325e-19)
(0.934167 -0.00116404 0)
(0.939584 -0.00316227 0)
(0.846166 -0.00945408 0)
(0.956486 0.0119755 0)
(0.942503 0.0134837 0)
(0.881575 0.00567133 0)
(0.915919 0.0186324 0)
(0.925409 0.0156653 0)
(0.838261 0.00104125 0)
(0.716089 1.40232 3.92387e-20)
(0.749376 1.51093 0)
(0.181105 0.314732 7.06411e-20)
(0.229068 0.669258 5.68435e-19)
(0.262426 0.720238 -3.3215e-19)
(0.262804 0.520279 6.61023e-19)
(0.346417 0.811921 1.59241e-18)
(0.140828 0.230506 3.75834e-19)
(0.250921 0.147222 7.27087e-19)
(0.207324 0.142214 1.88504e-19)
(0.212687 0.0710037 3.56883e-19)
(1.18149 0.465288 6.58595e-20)
(1.19673 0.257748 6.10218e-20)
(0.0103906 2.23495 2.52649e-19)
(0.040368 1.94846 0)
(0.971244 0.0295023 0)
(0.943739 0.0140278 0)
(0.869598 -0.0178076 0)
(0.0111979 3.07412 0)
(0.0195719 2.94406 1.16645e-18)
(0.016417 2.95623 0)
(0.00646131 2.85062 -1.15695e-18)
(0.0063641 3.09107 2.82875e-19)
(0.00723695 3.08276 0)
(0.78214 1.81225 -1.58431e-19)
(1.24106 2.48743 4.02247e-19)
(0.764102 1.95151 -1.22712e-18)
(0.0195631 2.98007 -6.14395e-19)
(0.035188 2.99892 0)
(-0.0345293 2.87625 0)
(-0.003947 2.22418 -1.30506e-20)
(-0.00337631 2.24527 1.36622e-20)
(0.00253712 1.98735 -7.20504e-21)
(0.278259 1.39466 1.02451e-18)
(0.239221 0.551915 -7.02469e-19)
(0.0637376 1.99766 7.61692e-19)
(0.135166 1.88406 -9.09346e-19)
(0.18007 1.5117 9.50106e-20)
(0.00272971 3.11818 -1.76257e-18)
(0.0168389 3.11793 1.88904e-18)
(-0.00921263 2.98089 7.83375e-19)
(-0.0034461 2.97723 -7.39899e-19)
(-0.021172 2.88119 -7.97846e-19)
(0.00861062 3.09911 -2.10192e-18)
(0.00202846 3.10674 2.05124e-18)
(0.282608 0.695892 0)
(0.248799 0.684688 -1.18215e-18)
(0.0960084 0.225236 5.24817e-19)
(0.35798 0.939065 1.11308e-18)
(0.195932 0.276554 -1.71615e-18)
(1.18775 0.175675 6.23703e-20)
(1.1971 0.312504 0)
(1.17616 0.123224 -5.48866e-21)
(0.00165967 2.25347 -1.45717e-21)
(0.00506191 2.2449 0)
(0.0248243 1.98439 0)
(0.340033 1.3036 -3.67832e-19)
(0.374985 1.15083 -7.99936e-19)
(0.210625 0.378604 1.42643e-18)
(1.00588 -0.0108259 0)
(1.00767 -0.0076326 5.06404e-19)
(-0.0252015 1.32671 0)
(-0.0379856 1.32671 0)
(1.00221 0.00351516 1.81212e-21)
(1.00366 0.00947197 1.03401e-18)
(-0.0203504 2.53569 1.55195e-20)
(-0.0246261 2.57778 0)
(0.0343522 3.17677 4.05283e-19)
(0.389894 3.48315 0)
(1.17691 0.665326 -5.63167e-20)
(1.01285 0.0131482 -2.13212e-21)
(1.02135 -0.0102765 0)
(1.0017 0.000130753 7.83448e-23)
(0.112555 1.37071 0)
(0.143326 2.56757 0)
(0.0300038 1.31555 0)
(0.000347527 2.61847 2.71402e-20)
(-0.0209141 2.57537 2.55431e-21)
(0.998818 0.0304123 2.33784e-21)
(1.06327 0.00478408 0)
(1.09787 0.0253326 0)
(-0.0281718 1.7392 0)
(-0.0180768 2.57719 0)
(-0.0065226 1.31473 0)
(0.311279 1.48236 -1.68405e-19)
(1.01131 -0.0096118 0)
(1.0094 -0.0149145 0)
(1.00237 0.000754629 6.47176e-19)
(1.00547 -0.00479793 -7.6066e-19)
(1.00118 -0.000966218 0)
(-0.0145269 1.46553 0)
(-0.00626044 1.37733 0)
(-0.0066468 1.42271 0)
(-0.0104092 1.30222 0)
(-0.0202057 1.28914 0)
(-0.0116189 1.27235 0)
(1.03508 -0.006004 0)
(1.01951 0.0155354 -9.07919e-22)
(0.822607 1.27458 2.61581e-19)
(1.00224 0.000321211 -6.44732e-19)
(1.00406 0.00526383 7.54796e-19)
(1.00118 0.00207681 0)
(1.01272 0.0103682 6.41639e-19)
(1.00798 0.0083163 -7.77441e-19)
(1.00856 0.0146993 0)
(-0.0234047 2.60506 0)
(-0.0256932 2.58502 -2.07841e-20)
(-0.0230073 2.59877 1.46522e-20)
(1.23871 0.268911 5.78666e-19)
(1.16308 0.0874557 0)
(0.0400511 3.07807 -9.07112e-19)
(0.0650523 2.85671 -6.59645e-20)
(0.138448 3.192 1.38888e-18)
(0.13374 3.2197 -1.95372e-19)
(0.132898 3.23043 0)
(0.0194308 3.13718 2.3405e-19)
(0.0743545 3.1601 8.94502e-19)
(0.0673447 3.18501 -4.41245e-19)
(0.0216967 3.13016 0)
(0.571454 0.281947 0)
(0.509034 0.303137 0)
(1.14869 0.701439 1.27196e-19)
(1.14199 0.822883 -1.09971e-19)
(1.20484 0.588341 0)
(1.23225 0.522476 0)
(1.01602 0.0133859 -1.19604e-18)
(1.01499 0.0142701 1.50144e-18)
(1.0254 -0.00978992 0)
(1.02347 -0.0118392 0)
(1.00642 0.00264708 0)
(1.01041 0.00375136 0)
(1.00458 0.00186818 0)
(1.00978 0.0062599 0)
(1.00781 0.0059687 0)
(1.00451 0.0047256 0)
(0.101249 1.36918 0)
(0.0994864 1.33192 0)
(0.131026 1.4049 0)
(0.149905 1.41021 0)
(0.145241 2.59274 0)
(0.184886 2.66312 -4.2282e-19)
(0.101479 2.64776 0)
(0.0853513 2.65066 1.97642e-19)
(0.0388268 2.67323 -1.47745e-19)
(0.0169179 1.32677 0)
(0.0237961 1.24806 0)
(0.0215772 1.33737 0)
(0.0430219 1.27272 0)
(0.00403173 1.98203 4.63502e-21)
(-0.0198621 2.60317 -2.08712e-20)
(-0.00791936 2.65977 1.17447e-20)
(-0.0176059 2.67909 0)
(-0.022663 2.60883 -1.67368e-21)
(-0.0225075 2.60381 1.47424e-20)
(0.0129162 1.98023 -1.37295e-22)
(-0.00724915 2.39037 2.8e-20)
(-0.0129354 2.41316 -1.33202e-20)
(1.01209 0.0394435 1.21114e-18)
(1.00508 0.0197916 -1.50697e-18)
(1.00453 0.046563 -1.23395e-18)
(0.977484 0.0387714 1.55274e-18)
(1.06447 0.00861612 0)
(1.04955 -0.0081618 0)
(1.09485 0.0354955 0)
(1.07464 0.0131794 0)
(1.07245 0.000710227 0)
(1.14082 0.0840064 0)
(1.11234 0.0451014 0)
(1.11631 0.0328824 0)
(-0.0250572 2.42869 1.66066e-21)
(-0.0131035 2.01322 0)
(-0.0153756 2.21464 0)
(-0.0200206 2.59771 -1.17927e-20)
(-0.0170806 2.60756 2.18263e-22)
(0.00326089 1.57751 -3.79175e-20)
(-0.0061278 1.50552 3.86479e-20)
(-0.0162146 1.39498 0)
(-0.0194664 1.40142 0)
(-0.0251034 1.39598 0)
(-0.00485289 1.316 0)
(0.00765209 1.2382 0)
(0.386829 1.49984 2.74242e-19)
(0.430138 1.50048 1.4532e-19)
(0.597386 2.44354 -2.40311e-19)
(0.397945 2.54063 7.06913e-19)
(0.349076 2.05153 7.14392e-20)
(1.02109 -0.00809392 0)
(1.01552 -0.00973582 0)
(1.01493 -0.0154995 0)
(1.0074 -0.00105953 0)
(1.00493 -0.000905132 0)
(1.00779 -0.00467553 0)
(1.00928 -0.00359327 0)
(1.01423 -0.00435433 0)
(1.02023 0.0164143 1.17225e-18)
(1.01757 0.015412 -1.49631e-18)
(1.02056 0.0185824 -1.18167e-18)
(1.01815 0.016668 1.48131e-18)
(0.785866 1.3254 0)
(0.721756 1.37603 2.476e-19)
(0.898446 1.22539 9.90585e-20)
(0.94437 1.1708 -1.31822e-19)
(1.15416 2.59827 2.80783e-19)
(0.765893 0.123209 5.99689e-19)
(1.16417 0.109993 0)
(1.21352 0.195821 -4.65804e-19)
(1.20086 0.156209 -1.98483e-20)
(1.00629 0.158114 0)
(0.127974 2.95828 5.28894e-19)
(0.104053 2.86415 -1.14992e-18)
(0.0105658 2.37548 7.67027e-19)
(0.100734 -0.165367 -3.21285e-19)
(0.334866 3.4135 -2.16094e-19)
(0.190434 3.30838 0)
(0.234246 3.34875 2.81433e-19)
(0.238486 3.03083 -1.77053e-18)
(0.331853 3.18899 0)
(0.00543888 3.12118 4.56806e-20)
(0.0155545 3.1298 -5.39248e-19)
(0.0137532 3.12587 7.93655e-19)
(0.0343247 3.14007 0)
(0.0328161 3.15012 0)
(1.20937 2.59558 0)
(0.547708 0.800974 -5.27493e-19)
(1.06821 0.995542 -1.02796e-20)
(1.00322 1.07993 0)
(0.856553 0.974843 -1.09135e-19)
(1.09458 0.896676 2.78369e-20)
(0.303093 0.323047 -8.39257e-19)
(0.650424 0.325823 -1.68358e-20)
(0.539901 0.220457 4.05445e-19)
(0.532592 0.336704 2.93716e-20)
(0.425777 0.271386 -1.17934e-18)
(0.606838 0.327609 0)
(0.713556 0.426925 6.64093e-19)
(0.711164 0.427777 0)
(0.572999 0.342127 0)
(0.490065 0.245851 0)
(0.830418 0.626733 4.0794e-19)
(1.24 0.291388 -4.86691e-19)
(1.24039 0.430567 0)
(1.24863 0.370822 0)
(0.677729 0.196026 6.20446e-19)
(0.875934 0.556539 -3.71785e-19)
(0.77522 0.532959 6.63557e-19)
(0.963445 0.449147 -7.33053e-19)
(1.01902 0.0150199 8.02199e-19)
(1.01749 0.0143803 -8.07981e-19)
(1.01593 0.0152804 0)
(1.03656 -0.00554628 0)
(1.02995 -0.00833816 -7.57441e-19)
(1.028 -0.0119352 7.4991e-19)
(1.02489 0.0106903 0)
(1.02331 0.0145455 0)
(1.01141 0.00418254 0)
(1.01418 0.00917731 0)
(1.01515 0.00421668 0)
(1.01426 0.00291717 0)
(0.0726229 1.35321 0)
(0.0809971 1.29904 0)
(0.147984 1.38503 7.09907e-21)
(0.281688 1.48085 8.94415e-20)
(0.17663 1.45169 1.87972e-19)
(0.209607 1.45706 -3.06613e-19)
(0.177203 1.41059 0)
(0.135024 1.60007 -6.97878e-20)
(0.120187 1.57907 0)
(0.344962 2.00096 -1.03877e-19)
(0.341706 2.33747 6.13442e-19)
(0.19621 1.46511 6.08455e-20)
(0.26885 1.39698 2.33019e-20)
(0.202046 1.39002 -1.87997e-20)
(0.278517 1.33994 -1.0328e-19)
(0.242 1.57903 0)
(0.269052 1.61585 1.1238e-19)
(0.0308794 2.25697 -2.87599e-20)
(0.0436508 2.66253 0)
(0.0666548 2.3937 1.35674e-19)
(0.0633874 2.41447 0)
(0.0696723 2.66434 -2.19027e-19)
(0.0492809 2.69279 0)
(0.0283842 1.44589 3.55302e-20)
(0.0365402 1.49397 0)
(0.0317768 1.41185 0)
(0.0265799 1.41835 -4.00935e-20)
(0.000952947 2.64601 -1.66997e-20)
(0.0297691 2.6916 1.65791e-19)
(0.0106672 2.71675 1.16205e-21)
(0.00470165 1.83834 -5.40676e-21)
(-0.00139831 1.69266 -4.22792e-21)
(0.0117571 1.30489 0)
(0.0199643 1.22036 0)
(0.0460169 1.59485 -2.84308e-20)
(0.0350832 1.47511 -3.4779e-20)
(0.0388063 1.53719 4.32826e-20)
(0.0406425 1.61846 0)
(-0.0292018 2.26764 9.98701e-20)
(-0.030192 2.54456 -4.18372e-20)
(-0.0160526 2.44249 4.42979e-21)
(-0.00258583 1.85375 6.54946e-21)
(-0.0251321 2.49441 2.92147e-21)
(-0.0200925 2.43844 -2.23979e-21)
(1.01854 0.0219351 -8.03059e-19)
(1.01545 0.0281195 8.06186e-19)
(1.01278 0.0173149 0)
(1.01035 0.0712411 1.12839e-18)
(0.991946 0.0609819 -1.26098e-18)
(0.951181 0.0574567 1.40958e-18)
(1.0141 0.112149 -1.50442e-19)
(1.04301 -0.00552323 0)
(1.05144 -0.00111268 7.22248e-19)
(1.03929 -0.00970633 -7.23732e-19)
(1.07214 0.0431141 -4.29459e-20)
(1.06517 0.0242726 3.70436e-19)
(1.06312 0.0572167 0)
(1.0543 0.0506284 -1.33226e-19)
(1.03216 0.0426175 0)
(1.02626 0.039265 0)
(1.02798 0.0138573 0)
(1.02389 0.016488 0)
(1.04033 0.0334396 2.74383e-19)
(1.03869 0.0271966 -6.06762e-19)
(1.05145 0.0347287 -2.90804e-19)
(1.04837 0.0349728 -3.20333e-19)
(1.07183 0.0654974 6.2515e-19)
(1.09731 0.0534061 0)
(1.10659 0.0977314 0)
(-0.0245649 2.27274 5.64074e-20)
(-0.0236935 2.01803 1.27557e-21)
(-0.0196394 2.02552 0)
(-0.0268126 2.44137 -5.6151e-20)
(-0.0222469 2.39813 -2.85902e-21)
(-0.0322741 2.46904 6.10356e-21)
(-0.0200839 2.61635 -1.31021e-20)
(-0.0227707 2.55823 1.9843e-22)
(-0.0210866 2.51004 -3.71105e-21)
(-0.0152869 2.61041 1.09375e-20)
(-0.0201045 2.61234 -1.18274e-20)
(-0.005917 1.50205 -6.70277e-22)
(0.00377239 1.62561 -3.62466e-20)
(0.37183 1.44861 -1.15957e-19)
(0.37165 1.38193 3.67363e-20)
(0.662298 1.42627 -2.3952e-19)
(0.52909 1.49318 -1.42811e-19)
(0.587383 1.45891 0)
(0.59311 2.42066 2.06872e-19)
(0.661617 2.41635 3.3752e-19)
(0.41095 2.50998 8.7995e-20)
(0.402131 2.53424 -6.07941e-19)
(0.509945 2.47521 6.13244e-19)
(0.553102 2.45735 0)
(0.487767 2.51502 -5.58975e-19)
(0.248034 2.58705 1.14201e-18)
(0.354487 2.55923 -7.72498e-20)
(0.283668 2.64874 -1.58458e-18)
(0.948124 2.37373 7.28155e-19)
(0.838168 2.37917 0)
(1.01108 0.000538044 2.62553e-20)
(1.01537 -0.0053534 -2.12962e-20)
(1.01768 -0.00345524 -3.88953e-19)
(1.01505 -0.000818803 3.91072e-19)
(1.01247 0.00128663 0)
(0.649166 1.2911 0)
(0.673086 1.18495 0)
(0.78703 1.10355 0)
(0.666179 1.14848 0)
(1.18424 2.61175 5.98788e-20)
(1.07233 2.35923 0)
(0.833526 2.16164 3.85649e-21)
(0.823385 2.42858 0)
(0.921525 2.52249 -4.22516e-19)
(0.95677 2.47855 2.81038e-19)
(0.796298 0.184415 0)
(0.737346 0.156549 1.62927e-19)
(0.906706 0.152687 9.48071e-19)
(0.822228 0.156841 -3.54777e-19)
(0.77757 0.0913224 -1.09593e-18)
(1.08319 0.24285 -8.91334e-19)
(1.00025 0.306611 -1.80709e-20)
(0.92742 0.310397 8.5884e-19)
(1.0068 0.236341 7.21661e-19)
(0.947885 0.200318 -1.2542e-18)
(0.909972 0.20483 1.5689e-19)
(0.946198 0.27238 -3.32917e-19)
(0.925485 0.23194 0)
(0.996459 0.196807 6.18567e-19)
(1.04728 0.195581 0)
(1.04496 0.224129 0)
(1.10783 0.122133 2.89706e-19)
(1.07187 0.182269 -1.51201e-20)
(1.07647 0.242792 -1.57751e-19)
(1.10194 0.208524 0)
(1.0222 0.0466649 6.1797e-19)
(1.03926 0.0602015 7.72052e-19)
(1.03395 0.0457557 -6.13814e-19)
(1.04275 0.0682304 -5.17951e-19)
(1.01957 0.0762619 -7.95207e-19)
(0.984836 0.160389 0)
(0.989315 0.106305 0)
(0.965382 0.0759441 -5.01344e-19)
(0.904231 0.0980377 1.99767e-19)
(1.0404 0.108571 7.16321e-19)
(1.06962 0.125709 -8.35694e-19)
(1.07685 0.158039 7.46374e-19)
(1.03171 0.152506 0)
(1.07517 0.112968 0)
(1.05397 0.0937457 -3.42596e-19)
(1.04355 0.098889 -5.84498e-19)
(0.578822 1.05298 1.40731e-19)
(0.603281 1.37639 -4.22163e-20)
(1.1541 2.72717 -2.28938e-19)
(1.2196 3.06971 2.43247e-21)
(1.24577 2.71046 -1.25632e-19)
(1.27405 2.69361 -3.06666e-20)
(1.20136 2.33395 -1.11933e-20)
(1.20733 2.97357 -9.51002e-20)
(1.22757 2.93914 2.36811e-19)
(1.20966 3.22247 -1.4205e-19)
(1.36912 2.95322 1.96264e-19)
(1.35761 2.87127 0)
(0.566225 0.809961 -5.04717e-20)
(0.106389 1.22097 5.69187e-19)
(0.560765 0.344863 5.49321e-19)
(0.399596 0.0910498 5.93773e-19)
(0.473331 0.311042 6.69293e-19)
(0.547471 0.428869 -1.08705e-18)
(0.549436 0.424597 8.90516e-19)
(0.463605 0.302635 -3.38318e-19)
(0.336145 0.230677 7.61116e-19)
(0.705089 0.271096 -3.58592e-19)
(0.663164 0.292735 0)
(0.59664 0.208 6.24296e-21)
(0.746298 0.50946 3.60486e-19)
(0.72742 0.479267 -1.31018e-18)
(0.625762 0.445127 1.03122e-20)
(0.620998 0.436122 0)
(0.695502 0.71758 3.95981e-19)
(0.858538 0.780628 3.92835e-19)
(0.781987 0.863057 -4.59732e-19)
(0.90362 0.817724 -1.53217e-19)
(0.934572 0.863135 -3.68867e-20)
(0.941604 0.862788 3.77758e-20)
(0.870216 0.662047 -6.75409e-19)
(0.950057 0.71538 1.42264e-19)
(1.0093 0.730002 0)
(1.00028 0.706475 -1.92073e-19)
(1.03023 0.347241 2.11317e-19)
(1.15081 0.308132 2.86689e-19)
(1.07136 0.28036 3.64235e-19)
(1.0205 0.379767 -4.29728e-19)
(1.06891 0.441919 0)
(1.12485 0.422667 0)
(0.921936 0.383297 1.23017e-21)
(0.838194 0.31859 0)
(0.886486 0.317121 4.0613e-19)
(0.909801 0.318929 -8.38799e-21)
(0.958463 0.452749 2.042e-18)
(0.919971 0.50785 5.24573e-19)
(0.924339 0.474402 -5.59587e-19)
(0.839423 0.463252 6.0077e-19)
(0.824503 0.457428 3.60037e-19)
(0.794282 0.439587 -3.53897e-19)
(1.02744 -0.000160755 6.47946e-19)
(1.02002 0.000125908 0)
(1.01856 0.00105128 4.22507e-19)
(1.02175 -0.00148514 -9.57084e-19)
(1.0224 0.00458929 4.6496e-19)
(1.0203 0.0116369 -9.73632e-19)
(1.0212 0.0109943 0)
(1.02039 0.0112162 -2.02928e-19)
(1.01593 0.00789886 5.09147e-19)
(1.01656 0.0106974 -2.54048e-19)
(1.01726 0.0100401 1.87068e-19)
(0.0345719 1.33028 0)
(0.0399681 1.3852 0)
(0.0528298 1.33046 0)
(0.0595625 1.27808 0)
(0.0744452 1.40215 -4.9827e-20)
(0.0849088 1.3673 2.24365e-20)
(0.111431 1.54797 -1.47857e-20)
(0.106675 1.38893 -3.93641e-21)
(0.0400625 1.48018 2.06201e-20)
(0.0435446 1.47403 -1.58747e-20)
(0.0674114 1.38959 -1.08471e-20)
(0.0608529 1.39067 4.69911e-20)
(0.0531324 1.36809 6.96343e-21)
(0.0451817 1.39052 3.95017e-21)
(0.107358 2.36136 -1.49864e-19)
(0.0959749 2.40996 0)
(0.168745 2.03515 1.09006e-19)
(0.114175 1.70227 4.03995e-20)
(0.234366 2.03344 -8.94762e-20)
(0.199523 2.42408 0)
(0.262249 2.3741 -6.04956e-19)
(0.302046 2.37191 4.27462e-19)
(0.228154 1.99321 -2.49777e-19)
(0.154171 2.15176 1.6871e-19)
(0.141606 2.25875 0)
(0.0185741 1.87748 7.29435e-21)
(0.000861833 2.38531 -3.22713e-20)
(0.00625914 2.14259 0)
(0.0115815 2.44939 -1.36379e-20)
(0.0291973 2.29228 8.16729e-21)
(0.0162915 1.42501 -7.62974e-21)
(0.0131562 1.40621 1.27298e-19)
(0.0126267 1.41358 -4.22991e-20)
(0.0220982 1.4194 -3.52085e-20)
(0.0264361 1.44966 0)
(0.00815881 1.39516 0)
(-0.000439437 1.30067 -5.03029e-20)
(0.00425252 1.38708 1.4455e-20)
(0.00848455 1.38635 0)
(0.0058467 1.29238 -3.76685e-20)
(0.0161159 1.21013 7.64203e-20)
(1.04086 0.0121794 0)
(1.04707 0.00843472 -6.77735e-20)
(1.03885 0.0226322 -4.88973e-19)
(1.04868 0.0213277 0)
(1.05253 0.0211486 0)
(1.03649 0.0123921 -6.83398e-21)
(1.03111 0.0122359 7.86099e-19)
(1.03165 0.0172989 9.52782e-19)
(1.02557 0.0212197 0)
(1.02244 0.0216907 0)
(1.03531 0.0261852 4.87707e-19)
(1.02611 0.0280348 0)
(1.02375 0.0281136 0)
(-0.0175157 2.02281 0)
(0.000501286 1.65599 -4.39748e-21)
(-0.00374129 1.76242 -3.09134e-20)
(-0.00210391 1.3943 0)
(-0.0065236 1.55878 -2.01917e-20)
(-0.00940496 1.47035 1.24108e-20)
(-0.00688417 1.40881 0)
(0.388599 1.64144 0)
(0.374394 1.30774 -7.23066e-20)
(0.300802 1.34012 0)
(0.426407 1.30679 7.68148e-21)
(0.477112 1.47089 0)
(0.457492 1.4153 2.47093e-20)
(1.03634 2.67397 -1.53931e-20)
(0.968478 2.40231 -9.15138e-19)
(0.921764 2.19101 1.02631e-18)
(0.852213 2.37105 2.42195e-19)
(0.847698 2.4833 0)
(0.917414 2.47936 0)
(0.931474 2.3673 0)
(0.910428 2.35673 -9.45494e-19)
(0.686552 2.44688 -3.94626e-19)
(0.799741 2.4363 -9.77892e-20)
(0.81007 2.41041 7.42757e-20)
(0.695497 2.38939 0)
(0.800768 2.38475 0)
(0.75887 2.39825 -3.68832e-19)
(0.767286 2.47309 0)
(0.633823 1.09404 0)
(0.480008 0.896916 -5.15544e-19)
(0.569285 0.942281 -3.2602e-20)
(0.518894 1.03148 0)
(0.519277 0.973695 7.71807e-19)
(0.802607 0.886087 -1.2953e-19)
(0.810853 1.02179 0)
(0.786098 0.988201 1.84741e-19)
(0.670667 1.03429 0)
(0.671805 0.935275 0)
(1.16324 2.75048 -2.30699e-19)
(1.14068 2.81381 -9.7995e-20)
(0.928538 2.32721 1.02024e-19)
(0.896363 2.30686 -8.37647e-20)
(1.12889 2.72355 0)
(1.08277 2.69296 1.00769e-19)
(1.08873 2.47708 -3.14262e-19)
(0.983358 2.23048 -3.03376e-20)
(0.491789 1.32784 0)
(0.507746 1.05869 -1.24033e-19)
(0.578079 1.16729 0)
(0.852516 0.250595 0)
(0.757357 0.200512 0)
(0.664905 0.156261 0)
(0.84352 0.252591 -6.36011e-19)
(0.7285 0.245017 3.73818e-19)
(0.921652 0.091105 -4.11725e-19)
(0.924654 0.133177 0)
(0.912806 0.141775 1.77878e-19)
(0.849051 0.119426 7.11106e-19)
(0.813701 0.0800053 -4.45823e-19)
(1.15477 3.34737 -7.16182e-19)
(1.20391 3.2669 0)
(1.15236 3.37647 -1.48608e-18)
(0.640579 3.53814 1.26043e-18)
(0.861756 3.10707 7.03325e-20)
(0.522917 0.794217 6.06747e-19)
(0.422904 0.791743 0)
(0.304518 0.371913 -1.48419e-19)
(0.475685 0.647511 8.56077e-19)
(0.56565 0.349292 -1.93841e-19)
(0.517167 0.461922 2.30003e-19)
(0.676053 0.511249 4.88237e-19)
(0.717421 0.551515 0)
(0.666796 0.571773 0)
(0.633126 0.524581 0)
(1.01056 0.616701 8.75581e-20)
(0.925514 0.557655 -5.10776e-19)
(0.950947 0.588912 3.8451e-19)
(0.980904 0.529061 -3.95718e-19)
(1.08856 0.496784 0)
(1.09712 0.587997 -9.61401e-20)
(0.85888 0.415381 -8.28567e-19)
(0.856666 0.403562 -1.02741e-18)
(0.789356 0.397226 6.31141e-19)
(0.79834 0.385606 -6.41171e-19)
(0.844908 0.342284 -5.19013e-19)
(0.792167 0.338978 6.34612e-19)
(1.02671 0.00618124 -4.93391e-19)
(1.02641 0.00639746 1.00289e-18)
(1.0295 0.00029405 6.27874e-19)
(1.03373 0.00121297 -7.56207e-19)
(1.03386 0.00935596 0)
(1.03012 0.0100632 -1.23093e-18)
(0.0627116 1.63818 1.88511e-20)
(0.0520283 1.58955 0)
(0.0904008 1.68736 1.26224e-19)
(0.0974691 1.66848 -1.11775e-19)
(0.0921547 1.54828 2.63986e-20)
(0.0915904 1.54928 0)
(0.0127095 1.6904 0)
(-0.0043968 1.50191 8.39899e-21)
(-0.00231561 1.44783 -7.55539e-21)
(-0.00769018 1.55604 5.39043e-21)
(0.002843 1.88535 1.2468e-20)
(-0.00936072 1.93815 -2.3642e-21)
(0.496906 1.35555 -2.76843e-19)
(0.490491 1.35581 3.04251e-19)
(0.453981 1.30224 -3.17987e-20)
(0.436805 1.28293 7.77184e-21)
(0.641369 1.30908 0)
(0.55626 1.39947 1.05125e-19)
(0.57208 1.40651 -1.02346e-19)
(0.467792 1.29312 3.10181e-20)
(0.523027 1.24173 0)
(0.574574 1.20436 0)
(0.653532 2.40654 5.79705e-19)
(0.669127 2.44834 1.25892e-18)
(0.713568 2.45908 -8.67486e-19)
(0.609672 2.43304 -2.01762e-19)
(0.559789 2.52299 2.83568e-19)
(0.509009 2.49785 -7.56194e-19)
(0.978176 2.37385 -5.74399e-19)
(1.0122 2.38592 0)
(0.925852 2.16907 -6.59668e-19)
(1.05381 2.67202 0)
(1.05612 2.65863 0)
(0.596921 2.2549 -1.3052e-19)
(1.03584 3.15265 1.25648e-19)
(0.906975 3.02314 -2.83996e-20)
(0.261859 0.839897 0)
(0.287177 0.681619 -3.17643e-19)
(0.458086 0.641956 -3.20137e-19)
(0.376901 1.9989 0)
(0.461178 2.7782 -4.89599e-20)
(0.414462 2.54072 0)
(0.719843 0.667928 -8.36146e-19)
(0.80514 0.687678 1.11747e-18)
(0.824627 0.627847 -1.10392e-18)
(0.696304 0.630961 -1.0705e-19)
(0.751558 0.589336 -4.38251e-19)
(0.999916 2.7511 -9.55622e-20)
(1.04125 2.81286 -1.67565e-19)
(0.630484 2.11707 7.05071e-19)
(0.582536 1.6861 -5.02087e-19)
(0.692777 1.88639 -4.09817e-19)
(0.98617 2.43504 -1.12969e-19)
(0.99344 2.42788 2.98418e-19)
(0.647811 1.81903 2.84741e-20)
(0.439471 1.3069 1.45402e-19)
)
;

boundaryField
{
    wall-4
    {
        type            noSlip;
    }
    velocity-inlet-5
    {
        type            fixedValue;
        value           uniform (1 0 0);
    }
    velocity-inlet-6
    {
        type            fixedValue;
        value           uniform (0 3 0);
    }
    pressure-outlet-7
    {
        type            zeroGradient;
    }
    wall-8
    {
        type            noSlip;
    }
    frontAndBackPlanes
    {
        type            empty;
    }
}


// ************************************************************************* //
