/*--------------------------------*- C++ -*----------------------------------*\
  =========                 |
  \\      /  F ield         | OpenFOAM: The Open Source CFD Toolbox
   \\    /   O peration     | Website:  https://openfoam.org
    \\  /    A nd           | Version:  13
     \\/     M anipulation  |
\*---------------------------------------------------------------------------*/
FoamFile
{
    format      ascii;
    class       volVectorField;
    location    "41";
    object      U;
}
// * * * * * * * * * * * * * * * * * * * * * * * * * * * * * * * * * * * * * //

dimensions      [0 1 -1 0 0 0 0];

internalField   nonuniform List<vector> 
918
(
(0.985163 -0.000502657 0)
(0.00501145 2.96625 0)
(0.00613254 0.822606 0)
(0.979703 0.00214794 0)
(-0.0164981 2.02846 2.66503e-20)
(-0.00704475 2.94879 -2.56018e-18)
(0.823872 1.16319 4.21794e-19)
(0.272155 0.129343 -1.63156e-20)
(0.999908 -0.000281781 0)
(0.0606791 0.809983 0)
(0.0179725 0.61944 0)
(0.734862 -0.0154845 0)
(0.0111276 2.93036 0)
(0.00227015 2.79518 0)
(-0.0176153 3.15562 7.5884e-19)
(-0.0161032 1.86964 -1.09292e-20)
(0.33759 0.0341789 1.06886e-18)
(0.190261 1.1744 2.92056e-19)
(0.96277 0.00501961 0)
(-0.00214106 0.595649 0)
(0.0590167 0.173349 -7.72967e-19)
(1.00198 -0.00498067 0)
(1.00022 -0.0097911 0)
(0.975727 -0.00644012 0)
(0.585242 -0.0376792 0)
(0.0160049 2.63911 0)
(-0.0149761 2.91007 9.48042e-19)
(0.00251046 0.891749 0)
(0.0108998 1.11379 0)
(-0.000734713 0.867182 0)
(-0.0171271 2.6083 0)
(-0.00168582 2.0826 -2.12692e-20)
(-0.0100203 1.84988 0)
(-0.0206026 2.9876 -9.23008e-23)
(-0.016689 3.00529 1.9897e-18)
(0.0021 3.00018 0)
(0.870745 -0.00942218 0)
(0.404124 0.937883 1.92175e-19)
(0.802523 1.18098 -4.58565e-19)
(0.948176 1.01896 5.06731e-19)
(0.673517 1.27398 -9.6887e-20)
(0.672335 1.26076 5.6022e-19)
(0.312037 0.207795 1.59173e-20)
(0.286611 0.100064 0)
(1.12593 0.54797 0)
(0.277746 0.199765 7.27502e-20)
(0.242119 0.130608 -7.54934e-20)
(0.919777 -0.00745302 0)
(1.00027 0.000151491 0)
(0.99991 0.000334365 0)
(1.00363 -0.00776927 0)
(1.00096 -0.000930111 0)
(1.00017 2.97431e-05 0)
(0.0775371 1.81291 -8.33544e-19)
(0.0273683 0.990733 0)
(0.0939627 0.873082 0)
(0.013005 0.940334 0)
(0.0339502 0.75156 0)
(0.0219901 1.99882 0)
(0.0156292 0.830104 0)
(0.0118568 0.645705 0)
(0.0158325 0.811086 0)
(0.00459356 0.59521 0)
(0.838425 -0.0157392 0)
(0.846964 0.02891 0)
(0.767731 -0.00411813 0)
(0.817378 0.0389759 0)
(0.703201 -0.0187106 0)
(0.0146878 3.00041 9.50285e-19)
(0.0114953 3.00804 0)
(0.00610965 3.00277 0)
(0.0135455 2.99737 1.08005e-23)
(0.00796686 2.95847 -1.41236e-18)
(0.0145034 2.98203 0)
(0.0108747 2.90355 0)
(0.0243196 2.93067 2.19173e-24)
(0.0045984 2.82527 0)
(0.0308178 2.91642 0)
(-0.0050462 2.74505 0)
(0.308441 3.5525 0)
(-0.131848 3.63397 0)
(0.139597 3.24614 -7.06186e-19)
(-0.0127797 2.98177 0)
(-0.00870818 2.02792 0)
(-0.00672935 2.15266 1.07792e-20)
(-0.00222936 1.88921 -2.06991e-20)
(0.43671 0.142869 -3.69827e-19)
(0.337878 0.0184151 -3.56608e-19)
(0.418025 0.159489 -1.11383e-18)
(0.322913 0.0515231 -7.34863e-19)
(0.222359 0.961327 0)
(0.27241 1.31957 -3.536e-19)
(0.371276 1.25898 5.92223e-19)
(0.987471 0.00854988 0)
(0.941928 0.0058456 0)
(1.0003 0.000578121 0)
(1.00286 0.00930571 0)
(1.00302 0.00845992 -2.8462e-18)
(0.991913 0.00970076 2.14937e-18)
(-0.0159136 0.800359 0)
(-0.0019015 0.588159 0)
(-0.0118662 0.932376 0)
(-0.00022108 0.805025 0)
(-0.0140032 0.586657 0)
(0.0943799 0.176801 2.38918e-19)
(0.151739 0.153368 0)
(0.99354 -0.00838079 0)
(0.954424 -0.00651786 0)
(0.765824 0.0461627 0)
(0.701501 0.0567548 0)
(0.663805 -0.0307379 0)
(0.961891 -0.0088183 0)
(0.618028 0.0762579 0)
(0.445326 -0.0113514 1.57759e-18)
(-0.0368478 2.86278 7.17728e-19)
(0.0414985 2.9095 0)
(0.0544455 2.88531 0)
(-0.00467644 2.69965 0)
(-0.0130325 2.98525 9.00069e-19)
(-0.0179602 2.89519 0)
(-0.0153882 2.98806 -2.78582e-18)
(-0.0133045 2.9252 9.53036e-19)
(0.0326142 1.33889 0)
(0.0533667 1.38798 0)
(-0.00365916 2.11639 1.87604e-22)
(-0.00406786 2.06686 0)
(-0.0211787 1.85372 0)
(0.938029 -0.0076531 0)
(0.856437 -0.00968064 0)
(0.863375 0.00625335 0)
(0.949221 -0.00803778 0)
(0.883686 -0.00811298 0)
(0.516391 1.13166 -2.42088e-19)
(0.565873 1.18335 0)
(0.36785 0.881851 3.53553e-20)
(0.310034 0.740802 0)
(0.907977 1.05797 -1.37734e-19)
(1.01726 0.86006 2.73176e-19)
(0.3649 1.36972 0)
(0.528974 1.33632 0)
(0.543109 1.29019 0)
(0.115819 0.180203 -3.07567e-19)
(0.34532 0.199778 0)
(0.310963 0.0930359 2.07958e-19)
(0.988198 0.915752 0)
(1.05342 0.765469 0)
(1.07737 0.70559 -2.03887e-19)
(1.10722 0.608609 0)
(1.15637 0.393416 5.47009e-20)
(0.957537 -0.0088254 0)
(0.962399 -0.0101008 0)
(0.901521 -0.00799182 0)
(0.984173 -0.00917264 0)
(0.974652 -0.00937607 0)
(0.937064 -0.00636046 0)
(1.00019 0.00233684 0)
(1.0009 0.00140271 0)
(0.99991 0.000854508 0)
(0.0350164 2.06555 4.59476e-19)
(0.120833 1.75513 0)
(0.0160392 2.18142 7.19261e-19)
(0.0517961 1.86721 -6.08659e-19)
(0.106308 1.1812 -2.386e-19)
(0.0464271 1.06724 0)
(0.141917 1.0255 0)
(0.00590543 0.895677 0)
(0.018278 0.703423 0)
(-0.00496714 2.23445 -1.28868e-21)
(0.0264413 2.00448 0)
(-0.00771251 2.23629 -5.95578e-20)
(0.02413 2.00298 1.07305e-19)
(0.00398483 0.871122 0)
(0.0102081 0.849837 0)
(0.00955883 0.669671 0)
(-0.00503925 0.802268 0)
(0.00293885 0.58313 0)
(0.935749 0.00898528 0)
(0.845974 -0.015242 0)
(0.925661 -0.000171925 0)
(0.840397 -0.0127438 0)
(0.812065 0.001029 0)
(0.901469 0.0200285 0)
(0.877677 0.0241917 0)
(0.788739 -0.000957459 0)
(0.00562128 3.06471 -8.91308e-21)
(0.0166268 3.05788 0)
(0.0146606 2.96905 0)
(0.00858703 2.87621 0)
(0.925599 3.96909 0)
(1.24023 3.30168 9.29183e-19)
(0.0699401 3.07394 0)
(-0.0284919 2.90545 0)
(0.0336188 1.43182 0)
(-0.00778085 1.75132 0)
(0.0277082 1.60742 0)
(-0.0267885 2.56529 -2.9398e-21)
(-0.0149381 2.25468 0)
(-0.02099 2.40354 0)
(0.016835 1.92888 -1.67829e-21)
(-0.00508187 2.22328 2.25484e-20)
(-0.0144327 2.1867 2.10434e-20)
(0.00699269 1.90097 0)
(0.46534 0.12087 5.55968e-19)
(0.366154 0.00560014 -5.46036e-19)
(0.25985 1.57553 0)
(0.270507 0.736108 -3.21306e-19)
(0.177612 1.66109 -1.07833e-18)
(0.227454 1.20283 1.08098e-18)
(0.902218 0.00649784 0)
(0.967492 0.0110535 0)
(0.974618 0.010788 0)
(0.923432 0.00649583 0)
(-0.00599321 0.787838 0)
(-0.0138854 0.790894 0)
(-0.010398 0.584958 0)
(0.239217 0.194825 6.70701e-19)
(0.200087 0.182474 -7.94662e-19)
(0.204418 0.141333 0)
(1.08492 0.0819974 3.0058e-20)
(1.0678 0.036919 0)
(1.004 0.0383495 0)
(0.900034 -0.00721374 0)
(0.497409 0.10118 0)
(0.541881 0.0848551 -2.52253e-18)
(0.399628 0.00249591 9.44595e-19)
(0.00901373 2.98081 7.63401e-19)
(-0.0330814 2.86568 4.64581e-20)
(0.00368867 3.05021 -1.88336e-20)
(0.020162 3.04342 6.69969e-19)
(-0.0150115 2.99657 3.12612e-20)
(-0.012974 2.94948 -1.25715e-22)
(-0.0172703 3.01193 -5.77135e-19)
(0.0148727 3.02378 4.17545e-19)
(0.00737038 3.03681 -6.62794e-19)
(0.932741 -0.00175458 0)
(0.938622 -0.00360039 0)
(0.844482 -0.00925626 0)
(0.956707 0.0117558 0)
(0.942998 0.0130108 0)
(0.88175 0.00605145 0)
(0.917979 0.0164762 0)
(0.926464 0.0147176 0)
(0.838601 0.00360352 0)
(0.71995 1.41065 2.73052e-20)
(0.753574 1.51987 0)
(0.18677 0.324538 7.3543e-20)
(0.21894 0.658232 5.94604e-19)
(0.259617 0.719029 -3.4601e-19)
(0.265143 0.533398 6.88105e-19)
(0.337078 0.790121 1.61666e-18)
(0.134195 0.221457 3.79755e-19)
(0.391987 0.179049 7.79812e-19)
(0.37214 0.192729 2.03188e-19)
(0.320198 0.072956 3.87929e-19)
(1.14738 0.451716 2.38951e-20)
(1.16599 0.248417 1.84566e-20)
(0.0070344 2.2303 2.83403e-19)
(0.047337 1.93528 0)
(0.964803 0.0283616 0)
(0.939058 0.0131651 0)
(0.863506 -0.0185899 0)
(0.0112329 3.07445 0)
(0.0197242 2.944 1.23266e-18)
(0.0164603 2.95636 0)
(0.00629732 2.85067 -1.22292e-18)
(0.00617386 3.09084 2.99717e-19)
(0.00727239 3.08255 0)
(0.786714 1.82266 -1.56829e-19)
(1.248 2.50087 3.97976e-19)
(0.768931 1.96246 -1.22924e-18)
(0.0202343 2.98155 -6.63128e-19)
(0.0358943 3.0018 0)
(-0.033639 2.87876 0)
(-0.00605942 2.21271 -1.33546e-20)
(-0.00437888 2.23497 -4.53873e-20)
(0.0178104 1.96186 -9.83489e-21)
(0.275949 1.38325 1.04547e-18)
(0.229169 0.524049 -7.17009e-19)
(0.0633052 1.98931 7.9547e-19)
(0.135966 1.87693 -9.42044e-19)
(0.180499 1.4961 9.19555e-20)
(0.00166882 3.11897 -1.87778e-18)
(0.0154684 3.11823 2.01709e-18)
(-0.00892932 2.98122 8.30746e-19)
(-0.00363935 2.97758 -7.88347e-19)
(-0.0210744 2.88137 -8.46093e-19)
(0.00867755 3.10003 -2.23249e-18)
(0.00241335 3.10575 2.18437e-18)
(0.273673 0.681598 0)
(0.238268 0.671968 -1.22467e-18)
(0.0956029 0.222551 5.42946e-19)
(0.351387 0.916092 1.1279e-18)
(0.189607 0.266414 -1.73907e-18)
(1.16534 0.168767 7.71295e-20)
(1.16771 0.302164 0)
(1.15346 0.117774 -2.36299e-20)
(-0.00203764 2.248 -1.94885e-21)
(0.00167859 2.23906 0)
(0.0329936 1.97024 0)
(0.339822 1.29144 -3.76321e-19)
(0.369443 1.12846 -8.12877e-19)
(0.203162 0.365392 1.44801e-18)
(1.00587 -0.0108594 0)
(1.00766 -0.00765298 5.25366e-19)
(0.0302474 1.31301 0)
(0.00401891 1.27465 0)
(1.00221 0.00350322 1.80101e-21)
(1.00366 0.00945069 1.07212e-18)
(-0.021097 2.54744 3.72417e-21)
(-0.0283519 2.58925 0)
(0.0359619 3.17876 4.47061e-19)
(0.395424 3.49128 0)
(1.1535 0.647925 -7.52152e-20)
(1.01294 0.0130533 -2.15244e-21)
(1.02127 -0.0104028 0)
(1.00169 0.000109941 7.53946e-23)
(0.101362 1.35776 0)
(0.146625 2.575 0)
(0.0238092 1.29276 0)
(0.0028013 2.63036 6.04239e-20)
(-0.0227325 2.5893 2.74779e-20)
(1.00139 0.0287244 2.44393e-21)
(1.06156 0.00340329 0)
(1.09442 0.0228157 0)
(-0.00989874 1.77611 0)
(-0.0267026 2.59286 0)
(-0.000343688 1.28367 0)
(0.294014 1.47076 -1.43169e-19)
(1.01127 -0.00965362 0)
(1.00939 -0.0149354 0)
(1.00237 0.000728251 6.71317e-19)
(1.00548 -0.00482305 -7.89044e-19)
(1.00118 -0.00099533 0)
(0.00549482 1.49369 0)
(0.0261602 1.37872 0)
(0.0302663 1.45439 0)
(0.00403883 1.27168 0)
(0.0125245 1.23728 0)
(0.00759232 1.21442 0)
(1.03458 -0.00641056 0)
(1.02048 0.0157014 -9.13182e-22)
(0.798759 1.26527 2.32973e-19)
(1.00223 0.000283683 -6.68733e-19)
(1.00406 0.00524746 7.82696e-19)
(1.00117 0.00206332 0)
(1.0128 0.0102763 6.65654e-19)
(1.00802 0.00829538 -8.06079e-19)
(1.00857 0.0146865 0)
(-0.0296735 2.62015 0)
(-0.0302777 2.59843 -8.35961e-21)
(-0.0296887 2.61265 6.96445e-21)
(1.22698 0.256322 6.50304e-19)
(1.15623 0.0837517 0)
(0.0437399 3.07718 -9.78477e-19)
(0.0656007 2.85374 -7.11102e-20)
(0.141843 3.19293 1.4917e-18)
(0.136664 3.22195 -2.23208e-19)
(0.134978 3.23423 0)
(0.0204781 3.13768 2.53823e-19)
(0.076745 3.16034 9.65656e-19)
(0.0692824 3.18645 -4.77993e-19)
(0.023073 3.12952 0)
(0.640167 0.289128 0)
(0.565751 0.341333 0)
(1.11931 0.684119 1.86136e-19)
(1.11471 0.811361 -1.87403e-19)
(1.18144 0.568559 0)
(1.21228 0.504262 0)
(1.01614 0.0132851 -1.2411e-18)
(1.01498 0.01425 1.55792e-18)
(1.02522 -0.00991623 0)
(1.02329 -0.0119057 0)
(1.00644 0.00255571 0)
(1.01042 0.00369145 0)
(1.00461 0.00181497 0)
(1.00978 0.00616837 0)
(1.00786 0.00596985 0)
(1.00451 0.00466623 0)
(0.089355 1.35418 0)
(0.0840703 1.32657 0)
(0.122451 1.39218 0)
(0.135571 1.40242 0)
(0.146641 2.59921 0)
(0.186615 2.66632 -4.49428e-19)
(0.102078 2.65616 0)
(0.0877215 2.66 2.23348e-19)
(0.0412341 2.68345 -1.93943e-19)
(0.0300165 1.30884 0)
(0.0180771 1.24418 0)
(0.023401 1.32311 0)
(0.0284145 1.26304 0)
(0.00432604 1.98248 -2.33294e-20)
(-0.0209454 2.61724 1.10302e-20)
(-0.00819327 2.67329 4.92263e-20)
(-0.0177923 2.69159 0)
(-0.0247657 2.62335 -6.25885e-20)
(-0.0243321 2.61814 -2.53364e-20)
(0.0139077 1.9819 2.01864e-20)
(-0.00948692 2.40706 -1.48015e-20)
(-0.013513 2.42666 -5.58198e-20)
(1.01125 0.0365548 1.26487e-18)
(1.00707 0.0162005 -1.56216e-18)
(1.00256 0.04314 -1.26529e-18)
(0.980913 0.0223871 1.61233e-18)
(1.06289 0.0072659 0)
(1.04841 -0.00870733 0)
(1.09192 0.0326992 0)
(1.07256 0.0115708 0)
(1.07037 -0.000561198 0)
(1.13699 0.0795014 0)
(1.10861 0.0420328 0)
(1.11162 0.0301488 0)
(-0.0178714 2.44532 -1.97674e-21)
(-0.0215411 2.01127 0)
(-0.0122093 2.22749 0)
(-0.0260955 2.61361 1.43172e-21)
(-0.0239094 2.62093 -4.45865e-22)
(-0.000667081 1.57258 4.71713e-22)
(0.0102369 1.51673 -4.75511e-22)
(-0.000615786 1.38616 0)
(0.0069709 1.39746 0)
(0.011694 1.39459 0)
(-0.00565906 1.28697 0)
(0.00724468 1.22098 0)
(0.378355 1.48589 2.27037e-19)
(0.417607 1.49022 1.29132e-19)
(0.596607 2.44672 -2.44208e-19)
(0.401788 2.5413 7.21565e-19)
(0.350729 2.06567 7.99057e-20)
(1.02096 -0.00820106 0)
(1.01545 -0.00979698 0)
(1.01489 -0.0155313 0)
(1.00745 -0.00118786 0)
(1.00493 -0.00095499 0)
(1.00776 -0.00476168 0)
(1.00924 -0.00371325 0)
(1.01417 -0.00448236 0)
(1.02119 0.0160812 1.21535e-18)
(1.01801 0.0157291 -1.55766e-18)
(1.02163 0.0180255 -1.22389e-18)
(1.01952 0.0167044 1.53237e-18)
(0.765244 1.31435 0)
(0.700888 1.36667 2.13805e-19)
(0.874781 1.211 6.90433e-20)
(0.917695 1.16298 -9.18267e-20)
(1.15714 2.60874 3.19417e-19)
(0.804028 0.111139 6.15959e-19)
(1.15929 0.104004 0)
(1.20487 0.186906 -5.22474e-19)
(1.18853 0.150012 -2.20836e-20)
(1.00396 0.1469 0)
(0.13574 2.96075 5.75489e-19)
(0.112965 2.86637 -1.23906e-18)
(0.0234153 2.37275 8.35727e-19)
(0.0909625 -0.0269983 -3.73847e-19)
(0.340207 3.42035 -1.96656e-19)
(0.194156 3.31296 0)
(0.237193 3.35496 2.56112e-19)
(0.245168 3.03398 -1.88804e-18)
(0.340055 3.19334 0)
(0.00673614 3.12094 4.90254e-20)
(0.016232 3.12984 -5.76758e-19)
(0.0149021 3.12589 8.48883e-19)
(0.0359277 3.13994 0)
(0.0344476 3.15063 0)
(1.21597 2.60796 0)
(0.541303 0.834863 -5.47763e-19)
(1.0395 0.987525 1.79044e-20)
(0.975892 1.06491 0)
(0.82855 0.968116 -1.23486e-19)
(1.06422 0.879388 2.86452e-20)
(0.364042 0.389835 -9.62676e-19)
(0.6858 0.316576 -2.14602e-20)
(0.647315 0.229424 4.41456e-19)
(0.585856 0.372725 3.26428e-20)
(0.499714 0.339404 -1.31456e-18)
(0.657898 0.332704 0)
(0.703788 0.418588 7.49731e-19)
(0.711481 0.419729 0)
(0.621142 0.361292 0)
(0.586194 0.284374 0)
(0.803698 0.614522 4.44678e-19)
(1.22669 0.278362 -5.49244e-19)
(1.2238 0.413429 0)
(1.23348 0.354602 0)
(0.735636 0.186149 6.54791e-19)
(0.851032 0.535387 -4.08146e-19)
(0.747502 0.507002 7.2336e-19)
(0.951628 0.424187 -7.9637e-19)
(1.01967 0.014735 8.35469e-19)
(1.01783 0.014219 -8.40345e-19)
(1.01594 0.0155486 0)
(1.036 -0.00595029 0)
(1.02963 -0.00859978 -7.8771e-19)
(1.0276 -0.012139 7.79932e-19)
(1.02503 0.00990131 0)
(1.02364 0.0135245 0)
(1.01142 0.00406824 0)
(1.01427 0.00901371 0)
(1.01513 0.00395552 0)
(1.01423 0.00276685 0)
(0.0593991 1.339 0)
(0.0626636 1.29681 0)
(0.14459 1.36667 -2.22299e-20)
(0.269683 1.46761 7.24382e-20)
(0.163127 1.4394 1.49987e-19)
(0.19408 1.44653 -2.46079e-19)
(0.165387 1.38969 0)
(0.131288 1.59335 -1.04093e-19)
(0.116051 1.5657 0)
(0.348766 2.01828 -1.1615e-19)
(0.345478 2.34983 6.51583e-19)
(0.186752 1.45057 9.07729e-20)
(0.26205 1.38136 1.0922e-20)
(0.197062 1.37016 -8.84478e-21)
(0.272531 1.32326 -1.30109e-19)
(0.24043 1.57676 0)
(0.261125 1.61651 1.33787e-19)
(0.0348753 2.26558 -4.40549e-20)
(0.0440762 2.67219 0)
(0.0673606 2.40304 1.67954e-19)
(0.0627732 2.4243 0)
(0.071113 2.6731 -2.4732e-19)
(0.0513239 2.70207 0)
(0.0310845 1.40554 -4.70986e-21)
(0.0383329 1.45893 0)
(0.0317305 1.37673 0)
(0.0275198 1.37736 5.31387e-21)
(0.00152549 2.65806 -1.84218e-20)
(0.0306346 2.70169 2.22893e-19)
(0.0124758 2.72763 1.55375e-21)
(0.0052927 1.82979 2.08438e-20)
(-0.00155746 1.67558 9.07096e-21)
(0.0232321 1.29409 0)
(0.0241646 1.22422 0)
(0.0496411 1.57004 1.85566e-20)
(0.0304152 1.44339 1.33698e-20)
(0.0395468 1.50859 -1.65171e-20)
(0.0413215 1.59465 0)
(-0.0302563 2.28097 3.96544e-20)
(-0.0336656 2.56092 -1.60964e-20)
(-0.0172481 2.45802 -3.12886e-21)
(-0.00400016 1.84836 -2.52726e-20)
(-0.0273263 2.50896 -8.67154e-21)
(-0.0226171 2.45122 4.26812e-20)
(1.0196 0.0207884 -8.30589e-19)
(1.01578 0.0263516 8.34061e-19)
(1.01495 0.0162969 0)
(1.01166 0.0687986 1.1719e-18)
(0.990688 0.0575902 -1.3145e-18)
(0.950649 0.0422762 1.4715e-18)
(1.01392 0.105748 -1.56302e-19)
(1.04225 -0.00600706 0)
(1.05035 -0.00183321 7.52914e-19)
(1.03859 -0.0100401 -7.54313e-19)
(1.06949 0.0409928 -4.4911e-20)
(1.06326 0.0224328 3.86248e-19)
(1.06271 0.0538536 0)
(1.0521 0.04829 -1.38931e-19)
(1.03268 0.0410964 0)
(1.02603 0.0370698 0)
(1.02783 0.0128515 0)
(1.02425 0.0156696 0)
(1.03986 0.0310276 2.85908e-19)
(1.03926 0.0260525 -6.31125e-19)
(1.05037 0.0324366 -3.03237e-19)
(1.04869 0.0322268 -3.33721e-19)
(1.07009 0.0628621 6.53777e-19)
(1.09445 0.0502772 0)
(1.10242 0.0938203 0)
(-0.0267499 2.28936 2.85807e-20)
(-0.0204502 2.0301 -2.93292e-21)
(-0.0207185 2.03365 0)
(-0.0300481 2.45404 -2.8491e-20)
(-0.0217226 2.4123 4.84587e-21)
(-0.0357039 2.48599 1.65926e-21)
(-0.0225543 2.62988 2.1599e-20)
(-0.0281224 2.57224 -2.26978e-21)
(-0.0227943 2.5248 7.3024e-21)
(-0.0207493 2.62383 -8.50871e-21)
(-0.0248074 2.62528 1.1652e-20)
(-0.0133843 1.483 -1.42608e-22)
(0.0057115 1.61918 5.0746e-21)
(0.365849 1.42817 -9.07518e-20)
(0.364555 1.36891 6.17902e-20)
(0.646384 1.41475 -2.06708e-19)
(0.515206 1.48062 -1.25897e-19)
(0.568964 1.45059 0)
(0.592316 2.42267 2.16386e-19)
(0.660155 2.4156 3.44345e-19)
(0.410419 2.51538 8.42385e-20)
(0.403468 2.54324 -6.51899e-19)
(0.511448 2.48832 6.36692e-19)
(0.551695 2.46048 0)
(0.488633 2.51554 -5.75144e-19)
(0.248657 2.59044 1.20372e-18)
(0.353604 2.56374 -8.17062e-20)
(0.284475 2.65209 -1.65067e-18)
(0.944103 2.38021 7.42117e-19)
(0.836245 2.38238 0)
(1.01098 0.000420492 2.72431e-20)
(1.01524 -0.00549797 -2.21176e-20)
(1.01763 -0.00363502 -4.04084e-19)
(1.01491 -0.000961434 4.05913e-19)
(1.01233 0.00104177 0)
(0.634328 1.28263 0)
(0.65407 1.18072 0)
(0.76003 1.09021 0)
(0.646934 1.14381 0)
(1.18662 2.62321 5.84165e-20)
(1.07462 2.36812 0)
(0.838742 2.18902 3.99663e-21)
(0.825378 2.44859 0)
(0.922512 2.53988 -4.42738e-19)
(0.957826 2.49585 2.94703e-19)
(0.815351 0.165796 0)
(0.779104 0.137254 1.68074e-19)
(0.923629 0.141276 9.7794e-19)
(0.839496 0.143581 -3.65362e-19)
(0.810722 0.082266 -1.12573e-18)
(1.07709 0.228392 -9.49968e-19)
(0.994095 0.286275 -1.55772e-20)
(0.925302 0.285911 9.07084e-19)
(1.00198 0.217702 7.5879e-19)
(0.953176 0.184907 -1.30156e-18)
(0.917409 0.187176 1.62719e-19)
(0.952747 0.249181 -3.48682e-19)
(0.931047 0.212091 0)
(0.992041 0.180757 6.42427e-19)
(1.0426 0.182008 0)
(1.04039 0.207962 0)
(1.10623 0.116125 3.05022e-19)
(1.06636 0.170941 -1.41471e-20)
(1.07184 0.229551 -1.66711e-19)
(1.10397 0.198064 0)
(1.02272 0.04461 6.44384e-19)
(1.04101 0.0571713 8.04459e-19)
(1.03422 0.0434162 -6.3923e-19)
(1.04278 0.0636724 -5.39037e-19)
(1.0193 0.0714804 -8.24258e-19)
(0.98781 0.153695 0)
(0.99865 0.102041 0)
(0.967076 0.0647611 -5.24122e-19)
(0.916475 0.087811 2.05861e-19)
(1.03795 0.101733 7.45419e-19)
(1.0676 0.119391 -8.80464e-19)
(1.07114 0.151153 7.86104e-19)
(1.02921 0.140144 0)
(1.07362 0.106571 0)
(1.05455 0.0884532 -3.59085e-19)
(1.04447 0.0935418 -6.10121e-19)
(0.579759 1.07604 1.4729e-19)
(0.613147 1.41048 -4.89207e-20)
(1.1573 2.74079 -2.38053e-19)
(1.22389 3.0816 3.6452e-21)
(1.24933 2.72247 -1.56814e-19)
(1.27938 2.70631 -1.90871e-20)
(1.20741 2.34619 -1.01482e-20)
(1.21111 2.9856 -1.0195e-19)
(1.23042 2.95084 2.48225e-19)
(1.21489 3.23505 -1.40122e-19)
(1.3757 2.96689 1.9379e-19)
(1.36626 2.88496 0)
(0.546558 0.842833 -5.12819e-20)
(0.135645 1.25305 5.87539e-19)
(0.533781 0.443582 6.2186e-19)
(0.372225 0.194869 6.86005e-19)
(0.525347 0.373236 7.4241e-19)
(0.546695 0.471509 -1.19296e-18)
(0.54806 0.472562 9.74294e-19)
(0.495419 0.392866 -3.75439e-19)
(0.415426 0.324626 8.50953e-19)
(0.739846 0.247587 -3.74768e-19)
(0.705174 0.276738 0)
(0.683857 0.199562 9.13874e-21)
(0.731395 0.508227 3.94678e-19)
(0.703368 0.479067 -1.43841e-18)
(0.615591 0.468666 1.51392e-20)
(0.625542 0.457896 0)
(0.677765 0.730282 4.1513e-19)
(0.83053 0.773126 4.265e-19)
(0.7541 0.854745 -4.98118e-19)
(0.873567 0.807856 -1.70593e-19)
(0.90402 0.851525 -4.32623e-20)
(0.911785 0.851951 4.43007e-20)
(0.846963 0.644664 -7.38138e-19)
(0.92583 0.702979 1.58505e-19)
(0.980806 0.716911 0)
(0.972109 0.692561 -2.17752e-19)
(1.02301 0.322865 2.30125e-19)
(1.14148 0.292646 3.19075e-19)
(1.06425 0.262859 3.8856e-19)
(1.01149 0.35591 -4.62102e-19)
(1.05675 0.42027 0)
(1.10921 0.404815 0)
(0.915222 0.354662 6.38142e-21)
(0.841094 0.286765 0)
(0.876229 0.281963 4.26522e-19)
(0.907363 0.291655 -4.47537e-21)
(0.944816 0.426856 2.22137e-18)
(0.902278 0.487082 5.74869e-19)
(0.905675 0.450366 -6.09258e-19)
(0.822829 0.433814 6.52673e-19)
(0.805884 0.428764 3.91216e-19)
(0.776194 0.412841 -3.84452e-19)
(1.02724 -0.000512675 6.73241e-19)
(1.02001 -0.000136364 0)
(1.01849 0.000790128 4.38671e-19)
(1.02152 -0.00184748 -9.93774e-19)
(1.02229 0.00424865 4.82891e-19)
(1.02042 0.011116 -1.01128e-18)
(1.02139 0.0105145 0)
(1.02068 0.0107947 -2.10684e-19)
(1.016 0.00763338 5.28532e-19)
(1.01673 0.0104014 -2.63701e-19)
(1.01743 0.00974588 1.94226e-19)
(0.0305321 1.31329 0)
(0.034415 1.34939 0)
(0.0425204 1.31697 0)
(0.0402193 1.27414 0)
(0.0704263 1.37673 2.12653e-20)
(0.0766376 1.34938 4.98641e-22)
(0.11255 1.50725 -3.12066e-20)
(0.0942868 1.35815 1.05473e-20)
(0.0345351 1.44823 -3.80882e-20)
(0.0381029 1.44095 2.97557e-20)
(0.0616412 1.36079 -8.08114e-21)
(0.0543806 1.36249 -2.05734e-21)
(0.0458845 1.3384 -5.01089e-22)
(0.0388861 1.35982 -3.57732e-21)
(0.108447 2.37316 -1.85815e-19)
(0.0973746 2.42013 0)
(0.172295 2.04845 1.21108e-19)
(0.11143 1.71069 5.43613e-20)
(0.230561 2.04431 -9.93917e-20)
(0.205755 2.43732 0)
(0.265882 2.38868 -6.34996e-19)
(0.303939 2.38665 4.50457e-19)
(0.231485 2.00433 -2.76123e-19)
(0.155161 2.16547 1.81699e-19)
(0.145158 2.27734 0)
(0.0205624 1.87272 -4.53911e-20)
(-0.000483976 2.40065 -9.7811e-20)
(0.00631234 2.15287 0)
(0.0132635 2.4614 -1.39426e-20)
(0.0283921 2.30531 3.44398e-20)
(0.0240309 1.3906 -4.41986e-22)
(0.019407 1.37724 1.20968e-20)
(0.0194496 1.38037 -8.04661e-21)
(0.0253264 1.37875 1.18344e-21)
(0.0302042 1.40978 0)
(0.016317 1.36108 0)
(0.000783961 1.28177 -5.29895e-21)
(0.0123921 1.35022 4.50679e-22)
(0.0135928 1.35264 0)
(0.0145171 1.28149 -5.69909e-21)
(0.0126375 1.21102 1.10291e-20)
(1.0403 0.0111396 0)
(1.04633 0.00743003 -7.06231e-20)
(1.03857 0.0206913 -5.08902e-19)
(1.04801 0.0196266 0)
(1.05168 0.0194265 0)
(1.03631 0.0111546 -6.64485e-21)
(1.03093 0.011042 8.16847e-19)
(1.03184 0.0159948 9.90658e-19)
(1.02586 0.0199725 0)
(1.0231 0.0203696 0)
(1.03519 0.0243585 5.07698e-19)
(1.02624 0.025766 0)
(1.02447 0.0258774 0)
(-0.0250966 2.02636 0)
(0.00686882 1.65056 -4.83909e-21)
(-0.00644397 1.76032 -1.98646e-20)
(0.00286891 1.36232 0)
(-0.0121003 1.55133 4.65483e-21)
(0.00286477 1.44999 -2.3562e-21)
(0.00141431 1.37109 0)
(0.389196 1.66833 0)
(0.366554 1.29748 -1.14178e-19)
(0.301534 1.34172 0)
(0.420619 1.29525 6.22402e-20)
(0.466419 1.45595 0)
(0.447388 1.40126 -4.797e-22)
(1.03564 2.68728 -1.58224e-20)
(0.965428 2.41087 -9.32838e-19)
(0.915524 2.19177 1.06412e-18)
(0.849754 2.37479 2.47395e-19)
(0.84727 2.4979 0)
(0.917215 2.49434 0)
(0.927447 2.37347 0)
(0.906263 2.35984 -9.61072e-19)
(0.688657 2.46592 -4.14152e-19)
(0.801027 2.45611 -1.01595e-19)
(0.811634 2.43006 7.74431e-20)
(0.694509 2.39065 0)
(0.799357 2.38658 0)
(0.75802 2.39882 -3.74757e-19)
(0.769074 2.48746 0)
(0.614354 1.09899 0)
(0.484967 0.927366 -5.1919e-19)
(0.553585 0.961756 -3.3011e-20)
(0.521203 1.05548 0)
(0.522343 1.00531 7.79634e-19)
(0.777129 0.879818 -1.40791e-19)
(0.785246 1.0164 0)
(0.759642 0.97672 2.06056e-19)
(0.64571 1.03506 0)
(0.650561 0.943039 0)
(1.165 2.76257 -2.43241e-19)
(1.14276 2.82608 -1.05353e-19)
(0.932388 2.34634 1.13467e-19)
(0.900032 2.32421 -8.76356e-20)
(1.12981 2.73564 0)
(1.08309 2.70577 1.05498e-19)
(1.08973 2.48775 -3.27393e-19)
(0.983516 2.23582 -3.05469e-20)
(0.496093 1.35327 0)
(0.509795 1.07494 -1.29898e-19)
(0.563723 1.16602 0)
(0.858725 0.224187 0)
(0.786753 0.176047 0)
(0.727948 0.139301 0)
(0.855131 0.228834 -6.71346e-19)
(0.758659 0.212913 3.93429e-19)
(0.931836 0.0745452 -4.25176e-19)
(0.947173 0.120628 0)
(0.926674 0.133555 1.82223e-19)
(0.86633 0.109274 7.31335e-19)
(0.837053 0.0669239 -4.57605e-19)
(1.162 3.36031 -7.14147e-19)
(1.20979 3.27965 0)
(1.16037 3.38832 -1.47364e-18)
(0.647915 3.5491 1.2517e-18)
(0.872687 3.11642 6.19817e-20)
(0.518053 0.849168 6.17672e-19)
(0.433588 0.844462 0)
(0.336935 0.480003 -1.56557e-19)
(0.455255 0.677903 8.88576e-19)
(0.537006 0.448206 -2.14885e-19)
(0.509913 0.505041 2.45788e-19)
(0.663466 0.528194 5.32167e-19)
(0.694088 0.552058 0)
(0.647161 0.608323 0)
(0.604193 0.548238 0)
(0.988827 0.600986 1.07586e-19)
(0.905848 0.536336 -5.59287e-19)
(0.93125 0.571088 4.27727e-19)
(0.966323 0.506011 -4.32611e-19)
(1.07003 0.478473 0)
(1.07778 0.569191 -1.09205e-19)
(0.846262 0.38589 -8.92197e-19)
(0.849354 0.373525 -1.10292e-18)
(0.795966 0.37821 6.95664e-19)
(0.792375 0.348747 -7.11271e-19)
(0.842386 0.307289 -5.55743e-19)
(0.794143 0.305376 6.82219e-19)
(1.02667 0.00566417 -5.16603e-19)
(1.02641 0.00588337 1.05339e-18)
(1.02931 -0.000131119 6.52893e-19)
(1.03334 0.000740109 -7.86466e-19)
(1.03355 0.00851615 0)
(1.03008 0.00909451 -1.27853e-18)
(0.0649286 1.64327 2.97213e-20)
(0.0455364 1.57296 0)
(0.0879647 1.69634 1.84516e-19)
(0.0986489 1.67784 -1.6408e-19)
(0.0884795 1.52507 5.85501e-20)
(0.0860437 1.50634 0)
(0.0128871 1.67935 0)
(0.00114631 1.48206 -3.80136e-21)
(0.00134233 1.42331 3.42242e-21)
(-0.00618316 1.5426 4.3465e-21)
(0.00132164 1.8845 -8.59435e-21)
(-0.0150018 1.93669 7.02048e-21)
(0.495207 1.37148 -3.02963e-19)
(0.489347 1.37449 3.32005e-19)
(0.443558 1.29248 -5.73956e-20)
(0.432613 1.29168 9.43035e-21)
(0.625959 1.29899 0)
(0.543803 1.3868 7.62058e-20)
(0.559412 1.39507 -7.41621e-20)
(0.455017 1.27785 5.56915e-20)
(0.509119 1.233 0)
(0.561537 1.19935 0)
(0.654858 2.42448 6.08562e-19)
(0.66951 2.46108 1.30659e-18)
(0.715521 2.47316 -9.00151e-19)
(0.614848 2.44822 -2.10969e-19)
(0.559931 2.54076 2.95134e-19)
(0.509964 2.51415 -7.86345e-19)
(0.976127 2.38032 -5.95732e-19)
(1.01226 2.39407 0)
(0.922014 2.16998 -6.89689e-19)
(1.05325 2.68497 0)
(1.05543 2.67171 0)
(0.612621 2.27389 -1.2438e-19)
(1.04278 3.16316 1.27846e-19)
(0.913879 3.03309 -3.1351e-20)
(0.280625 0.908241 0)
(0.320379 0.76751 -3.26211e-19)
(0.481072 0.72433 -3.29197e-19)
(0.390356 2.02055 0)
(0.467227 2.78512 -4.3147e-20)
(0.42375 2.54903 0)
(0.693354 0.678087 -8.80628e-19)
(0.7754 0.678971 1.20195e-18)
(0.796197 0.621855 -1.19041e-18)
(0.674752 0.641071 -1.13911e-19)
(0.730184 0.594254 -4.72091e-19)
(1.00502 2.76624 -9.72129e-20)
(1.0423 2.82341 -1.77142e-19)
(0.640935 2.15064 6.79772e-19)
(0.597463 1.71549 -4.83567e-19)
(0.700514 1.9082 -4.19443e-19)
(0.990734 2.44961 -1.1528e-19)
(0.995554 2.44349 3.10947e-19)
(0.661762 1.84751 2.89949e-20)
(0.452919 1.3353 1.51384e-19)
)
;

boundaryField
{
    wall-4
    {
        type            noSlip;
    }
    velocity-inlet-5
    {
        type            fixedValue;
        value           uniform (1 0 0);
    }
    velocity-inlet-6
    {
        type            fixedValue;
        value           uniform (0 3 0);
    }
    pressure-outlet-7
    {
        type            zeroGradient;
    }
    wall-8
    {
        type            noSlip;
    }
    frontAndBackPlanes
    {
        type            empty;
    }
}


// ************************************************************************* //
