/*--------------------------------*- C++ -*----------------------------------*\
  =========                 |
  \\      /  F ield         | OpenFOAM: The Open Source CFD Toolbox
   \\    /   O peration     | Website:  https://openfoam.org
    \\  /    A nd           | Version:  13
     \\/     M anipulation  |
\*---------------------------------------------------------------------------*/
FoamFile
{
    format      ascii;
    class       volScalarField;
    location    "39";
    object      p;
}
// * * * * * * * * * * * * * * * * * * * * * * * * * * * * * * * * * * * * * //

dimensions      [0 2 -2 0 0 0 0];

internalField   nonuniform List<scalar> 
918
(
0.588231
1.24193
0.0105139
0.587583
-0.00700477
1.20894
-0.465233
0.748873
0.568384
-0.0609606
0.00104197
0.5639
1.06968
0.834658
-1.09407
0.0169434
0.698941
-0.346553
0.567416
0.0153382
0.785531
0.574965
0.577995
0.568581
0.632016
0.813837
0.950535
0.0187651
0.00238507
-0.000319908
-0.00382326
-0.0266061
-0.0102075
1.09259
1.14367
1.16635
0.536638
0.362152
-0.328914
-0.39786
-0.393051
-0.49571
0.741804
0.742703
-0.143379
0.750684
0.759243
0.555559
0.567745
0.56864
0.569723
0.568676
0.570069
0.445232
-0.0656921
-0.0974206
-0.0415488
-0.0319488
0.090395
0.00219827
0.00123601
0.00550789
0.00130173
0.487431
0.559565
0.55678
0.568945
0.577528
1.18148
1.1534
1.17953
1.09323
1.1097
1.04767
1.0202
0.855937
0.877778
0.818904
0.805733
-1.53221
-2.49509
-0.497917
-0.243787
-0.00568395
0.0235494
0.0323798
0.690262
0.688425
0.700332
0.711977
1.11579
-0.342291
-0.458747
0.567539
0.566335
0.574725
0.57542
0.571434
0.570527
0.0163084
0.0146256
0.0123762
0.0137072
0.0122687
0.774792
0.772658
0.569121
0.566139
0.584765
0.60562
0.59752
0.318137
0.635798
0.648029
0.637351
0.802198
0.798025
0.806209
0.924194
0.887122
0.987624
1.01098
0.0161012
0.00462903
0.0104298
-0.00437912
0.00566956
0.532571
0.525312
0.551599
0.539992
0.542438
0.278009
0.143116
0.447513
0.472487
-0.242119
-0.302688
-0.399231
-0.419941
-0.527391
0.634653
0.732311
0.731308
-0.162807
-0.0867899
-0.217965
-0.0141665
-0.0739149
0.545962
0.552867
0.547917
0.563331
0.557828
0.559779
0.571986
0.56906
0.570619
0.508462
0.632317
0.370924
0.335833
-0.206666
-0.115954
-0.208928
-0.0192041
-0.0145755
0.108724
0.133893
0.0785636
0.0714933
-0.00691995
-0.00127335
-0.00257138
0.000380795
0.00446669
0.480579
0.469872
0.499718
0.507077
0.549754
0.550915
0.554252
0.552715
0.971066
0.993505
1.00089
0.974569
-3.49691
-6.30117
0.0855443
0.224547
0.00486764
0.00349046
0.00424403
0.00430883
0.0042165
0.000151582
0.050962
0.0389596
0.0300419
0.0402801
0.675891
0.675467
1.03475
1.03553
1.01643
0.966664
0.555624
0.557749
0.563301
0.559153
0.00823299
0.0129716
0.0121503
0.760231
0.76841
0.766558
0.281181
0.194182
0.36713
0.395037
0.664661
0.651664
0.662634
0.699671
0.735096
1.01844
1.0366
1.0349
1.04316
1.08717
1.10355
1.0689
0.512658
0.522285
0.517411
0.554799
0.5525
0.553449
0.548957
0.550435
0.548242
-0.008873
-0.392569
0.522061
0.540278
0.521055
0.527141
0.714587
0.791802
0.713144
0.723273
0.721198
0.0513136
-0.0055594
0.292467
0.259588
0.422132
0.457435
0.436999
0.942306
0.902368
0.952517
0.925994
0.887329
0.913803
-0.344139
-1.85788
-0.968974
0.579515
0.391126
0.479769
0.0542021
0.0453832
0.0384151
1.02964
1.10697
0.688141
0.856946
0.864256
0.772655
0.802956
0.860554
0.783753
0.820166
0.856648
0.836718
0.590908
0.534334
0.545461
0.861865
0.918193
0.167493
0.111986
0.0671721
0.152036
0.211878
0.183305
1.0699
0.974312
1.04613
0.565889
0.566588
0.021787
0.029271
0.570748
0.570795
0.000388915
0.00156405
0.462006
-0.80403
0.154977
0.559229
0.549424
0.566394
-0.0446103
0.400335
0.00389348
0.0938859
0.0438076
0.561924
0.497913
0.458594
0.0286831
0.0163159
0.0131146
-0.171737
0.563561
0.561872
0.565856
0.566831
0.567493
0.0194399
0.0215449
0.0196058
0.0177148
0.0205878
0.0182026
0.530901
0.548534
-0.126745
0.565992
0.568116
0.567933
0.561121
0.566796
0.565015
0.0221073
0.000720021
0.00073634
0.265149
0.388345
0.708046
0.801636
0.675571
0.448382
0.209402
0.608095
0.673339
0.57626
0.733712
0.725336
0.743958
0.219528
0.071375
0.227175
0.16814
0.557098
0.555768
0.547693
0.544768
0.561242
0.559356
0.563915
0.560911
0.563869
0.565262
-0.00407286
-0.0266015
-0.0410876
-0.104237
0.356777
0.617835
0.29493
0.325106
0.187359
0.00509422
0.00607241
0.00568693
-9.81596e-05
0.0436116
0.0272143
0.0866469
0.0884964
0.0620027
0.0387867
0.0357631
0.0280871
0.0258696
0.555251
0.55353
0.559976
0.568534
0.507214
0.510989
0.47708
0.497021
0.482844
0.42361
0.457932
0.433482
0.0220502
0.0347153
0.0159745
0.0181777
0.0166888
0.031558
0.0296251
0.0243695
0.0249202
0.0214364
0.0139927
0.0136013
-0.131002
-0.244834
1.02179
0.955868
0.166948
0.552751
0.559174
0.555959
0.560759
0.56389
0.564734
0.56248
0.559052
0.549053
0.550773
0.54729
0.547994
-0.0647575
-0.20128
-0.0279253
-0.0967138
0.172005
0.656781
0.400425
0.339983
0.334616
0.556842
0.963029
0.756718
0.746629
0.768014
-0.308354
0.0884747
-0.241329
0.378457
0.200105
0.707625
0.756979
0.777684
0.725776
0.67793
-0.0790266
0.583381
-0.0189888
0.0276746
0.222354
0.110735
0.747904
0.708977
0.71445
0.732629
0.751939
0.714795
0.696237
0.691743
0.728381
0.731923
0.533931
0.29709
0.250879
0.211952
0.691103
0.573574
0.630037
0.541516
0.552091
0.554836
0.553434
0.535654
0.543047
0.538733
0.544685
0.547979
0.556973
0.557341
0.552737
0.554921
-0.00765186
-0.00992459
0.0118887
-0.0953378
-0.0860347
-0.145237
-0.024961
0.115278
0.0772813
0.273955
0.378839
0.0916187
-0.0237262
0.00596898
0.0400059
0.2181
0.2433
0.11717
0.206414
0.192831
0.178133
0.279166
0.285197
0.018003
0.0129974
0.0148119
0.0116245
0.0645032
0.135734
0.145245
0.0378008
0.0324404
0.00637581
0.0024992
0.0195681
0.0177399
0.0190357
0.0581061
-0.0355825
0.0145441
0.035284
0.0403925
0.0366825
0.0318669
0.548004
0.550015
0.549761
0.557793
0.574672
0.590304
0.548751
0.528896
0.519881
0.52285
0.496514
0.506548
0.502215
0.515811
0.535926
0.544956
0.542866
0.545483
0.528521
0.530047
0.516926
0.520738
0.49649
0.478328
0.466827
0.0100038
0.0445472
0.049928
0.000793364
0.0324791
0.0143083
0.0335901
0.0508273
0.0343087
0.0259786
0.0210471
0.0271126
0.0292274
-0.0373457
0.0440449
-0.14737
-0.18068
-0.250882
0.926279
1.04628
0.848814
0.624702
0.639467
0.878128
0.964484
0.586652
0.772633
0.796242
0.608056
0.877776
0.557558
0.557166
0.554767
0.554248
0.555487
0.0246053
0.125824
0.134306
0.189108
0.303467
0.416624
0.340029
0.218575
0.351551
0.355359
0.652018
0.666557
0.617952
0.640351
0.63945
0.464939
0.543247
0.596899
0.550737
0.598387
0.620549
0.580419
0.611065
0.557756
0.513666
0.511094
0.459403
0.481282
0.45854
0.440022
0.547196
0.525106
0.535184
0.526087
0.545563
0.569719
0.566132
0.596775
0.608033
0.529907
0.487941
0.497905
0.52655
0.487879
0.502075
0.517744
0.253733
0.152564
0.2382
-0.0522072
0.0281015
0.013105
-0.0339513
0.011516
0.297164
-0.399906
-0.373151
-1.00564
0.522953
0.993255
0.700676
0.673481
0.748157
0.726746
0.73035
0.753707
0.759869
0.681412
0.699657
0.702904
0.661752
0.6853
0.708775
0.706105
0.555884
0.427886
0.420806
0.378091
0.250988
0.286043
0.488308
0.410361
0.336038
0.338849
0.501405
0.389059
0.455714
0.494634
0.426462
0.381338
0.586008
0.65121
0.640991
0.615421
0.533645
0.547808
0.572632
0.608452
0.635366
0.667476
0.544399
0.550213
0.551476
0.548986
0.546199
0.549124
0.54926
0.551792
0.552592
0.555524
0.554522
0.00400566
0.0153304
0.00287595
-0.0042842
0.0233999
0.0182856
0.0627171
0.0486958
0.034558
0.0415336
0.0151634
0.0106248
0.017048
0.0258088
0.137979
0.151145
0.135329
0.0957782
0.28631
0.417239
0.4878
0.365348
0.258368
0.281576
0.304829
0.0283382
0.056302
0.0415271
0.0838773
0.0754067
0.0138948
0.0122906
0.0136129
0.0157266
0.026535
0.00892475
0.0153211
0.0201939
0.0114261
0.00964824
0.0121772
0.531095
0.524614
0.525999
0.519979
0.518821
0.532782
0.537027
0.538842
0.544173
0.546175
0.536669
0.542154
0.545751
0.0329047
0.018139
0.00537319
0.025627
0.0249176
0.0272274
0.0230842
0.153645
0.0842994
0.0901489
0.0424351
-0.0860624
-0.0283677
0.515551
0.512271
0.507602
0.746594
0.597136
0.515231
0.610409
0.716852
0.303477
0.502357
0.335609
0.917466
0.810601
0.956864
0.573002
0.268431
0.423935
0.474814
0.282371
0.35466
0.360452
0.248497
0.280304
0.312624
0.413932
0.290162
0.264628
0.0224407
0.210084
0.327222
0.308113
0.436312
0.498366
0.287391
0.207169
0.163178
0.643564
0.662594
0.68162
0.652068
0.676222
0.606833
0.595771
0.613531
0.622155
0.618527
-0.733589
-0.441439
-1.38515
-0.69987
-0.249878
0.553156
0.516044
0.796248
0.681785
0.745043
0.729609
0.687624
0.65334
0.667634
0.699192
0.394841
0.5063
0.480619
0.486197
0.38671
0.319293
0.620857
0.614741
0.650877
0.674965
0.641897
0.674877
0.542176
0.5418
0.541484
0.537882
0.536122
0.538319
0.100418
0.0696129
0.104485
0.0843307
0.062514
0.0514363
0.0368526
0.0293191
0.0256418
0.0249145
0.0338244
0.0359677
0.194088
0.136173
0.0601375
0.0901281
0.0282821
-0.0380389
-0.0567345
0.0453821
0.138118
0.128359
0.435472
0.687094
0.508133
0.677417
0.517049
0.57278
0.498248
0.491151
0.517871
0.405334
0.485302
0.25334
-0.250983
-0.159207
0.811214
0.828987
0.610905
0.425703
0.196519
0.384907
0.581401
0.516627
0.555284
0.624228
0.615561
0.0378096
0.104097
0.365271
0.592744
0.258768
0.2512
0.245635
0.420409
0.344487
)
;

boundaryField
{
    wall-4
    {
        type            zeroGradient;
    }
    velocity-inlet-5
    {
        type            zeroGradient;
    }
    velocity-inlet-6
    {
        type            zeroGradient;
    }
    pressure-outlet-7
    {
        type            fixedValue;
        value           uniform 0;
    }
    wall-8
    {
        type            zeroGradient;
    }
    frontAndBackPlanes
    {
        type            empty;
    }
}


// ************************************************************************* //
