/*--------------------------------*- C++ -*----------------------------------*\
  =========                 |
  \\      /  F ield         | OpenFOAM: The Open Source CFD Toolbox
   \\    /   O peration     | Website:  https://openfoam.org
    \\  /    A nd           | Version:  13
     \\/     M anipulation  |
\*---------------------------------------------------------------------------*/
FoamFile
{
    format      ascii;
    class       volScalarField;
    location    "1.04";
    object      T;
}
// * * * * * * * * * * * * * * * * * * * * * * * * * * * * * * * * * * * * * //

dimensions      [0 0 0 1 0 0 0];

internalField   nonuniform List<scalar> 
1000
(
1.3572e-171
4.97533e-171
2.18105e-170
9.6403e-170
4.25498e-169
1.87444e-168
8.24141e-168
3.61646e-167
1.58386e-166
6.92311e-166
3.02018e-165
1.31495e-164
5.7139e-164
2.47798e-163
1.07252e-162
4.63287e-162
1.99726e-161
8.59319e-161
3.68985e-160
1.58124e-159
6.76262e-159
2.88644e-158
1.22953e-157
5.22685e-157
2.21751e-156
9.38889e-156
3.96719e-155
1.6729e-154
7.04005e-154
2.95663e-153
1.23917e-152
5.18294e-152
2.16338e-151
9.01149e-151
3.746e-150
1.55397e-149
6.43312e-149
2.65767e-148
1.09567e-147
4.50772e-147
1.85067e-146
7.58219e-146
3.09994e-145
1.26474e-144
5.14916e-144
2.09199e-143
8.48137e-143
3.43128e-142
1.38524e-141
5.58053e-141
2.24337e-140
8.99918e-140
3.60228e-139
1.43888e-138
5.73507e-138
2.28098e-137
9.05251e-137
3.58493e-136
1.41662e-135
5.58581e-135
2.19774e-134
8.62824e-134
3.38004e-133
1.32122e-132
5.15318e-132
2.00551e-131
7.78787e-131
3.01757e-130
1.16664e-129
4.50047e-129
1.73227e-128
6.65286e-128
2.54939e-127
9.74752e-127
3.71862e-126
1.41546e-125
5.37574e-125
2.03705e-124
7.70171e-124
2.9053e-123
1.09348e-122
4.10628e-122
1.5385e-121
5.75118e-121
2.14499e-120
7.98178e-120
2.96332e-119
1.09764e-118
4.05639e-118
1.49561e-117
5.50164e-117
2.01911e-116
7.39295e-116
2.70063e-115
9.84237e-115
3.57864e-114
1.29813e-113
4.69787e-113
1.69613e-112
6.10935e-112
2.19535e-111
7.87014e-111
2.81469e-110
1.00426e-109
3.57457e-109
1.2693e-108
4.49641e-108
1.589e-107
5.60192e-107
1.97016e-106
6.91224e-106
2.41926e-105
8.44681e-105
2.94202e-104
1.02221e-103
3.54302e-103
1.22502e-102
4.22518e-102
1.45372e-101
4.98933e-101
1.70818e-100
5.83373e-100
1.98739e-99
6.75363e-99
2.28933e-98
7.74097e-98
2.61092e-97
8.78418e-97
2.94792e-96
9.86812e-96
3.295e-95
1.09743e-94
3.6458e-94
1.2081e-93
3.99308e-93
1.31644e-92
4.32893e-92
1.41985e-91
4.64504e-91
1.5157e-90
4.93303e-90
1.60136e-89
5.18482e-89
1.67436e-88
5.39297e-88
1.73249e-87
5.55106e-87
1.77394e-86
5.65399e-86
1.79732e-85
5.6983e-85
1.80183e-84
5.68231e-84
1.78722e-83
5.60624e-83
1.75388e-82
5.47222e-82
1.70278e-81
5.28421e-81
1.63541e-80
5.04775e-80
1.55377e-79
4.76974e-79
1.46021e-78
4.45809e-78
1.35734e-77
4.12132e-77
1.24792e-76
3.76822e-76
1.13471e-75
3.40742e-75
1.02037e-74
3.04705e-74
9.07374e-74
2.69449e-73
7.97895e-73
2.35609e-72
6.93765e-72
2.03706e-71
5.96435e-71
1.74136e-70
5.06961e-70
1.4717e-69
4.26011e-69
1.22963e-68
3.539e-68
1.01562e-67
2.90622e-67
8.2921e-67
2.35906e-66
6.69188e-66
1.89273e-65
5.33776e-65
1.50091e-64
4.20796e-64
1.17627e-63
3.27839e-63
9.11019e-63
2.52408e-62
6.97246e-62
1.92031e-61
5.27301e-61
1.44359e-60
3.94022e-60
1.07223e-59
2.90901e-59
7.86839e-59
2.12181e-58
5.70436e-58
1.52891e-57
4.08532e-57
1.08828e-56
2.89014e-56
7.65171e-56
2.01956e-55
5.31385e-55
1.39384e-54
3.64474e-54
9.50089e-54
2.4689e-53
6.3956e-53
1.65156e-52
4.25145e-52
1.09096e-51
2.79065e-51
7.11578e-51
1.80866e-50
4.58255e-50
1.15736e-49
2.91364e-49
7.31154e-49
1.82887e-48
4.55987e-48
1.13322e-47
2.80718e-47
6.93123e-47
1.70582e-46
4.18444e-46
1.0231e-45
2.49327e-45
6.05606e-45
1.46615e-44
3.53774e-44
8.50811e-44
2.03936e-43
4.87201e-43
1.16003e-42
2.75279e-42
6.51057e-42
1.53462e-41
3.6051e-41
8.44038e-41
1.96939e-40
4.57958e-40
1.0613e-39
2.45112e-39
5.64162e-39
1.29405e-38
2.95801e-38
6.7383e-38
1.52967e-37
3.46049e-37
7.80129e-37
1.75259e-36
3.92354e-36
8.75292e-36
1.94582e-35
4.31044e-35
9.51499e-35
2.09295e-34
4.58741e-34
1.00192e-33
2.18047e-33
4.72841e-33
1.0217e-32
2.19976e-32
4.71913e-32
1.00875e-31
2.14848e-31
4.55939e-31
9.64059e-31
2.03104e-30
4.26331e-30
8.91634e-30
1.85794e-29
3.85728e-29
7.97864e-29
1.64427e-28
3.37603e-28
6.90602e-28
1.40745e-27
2.85772e-27
5.78071e-27
1.16497e-26
2.33894e-26
4.67827e-26
9.32211e-26
1.85055e-25
3.65965e-25
7.20987e-25
1.41502e-24
2.76655e-24
5.38831e-24
1.04545e-23
2.02061e-23
3.89034e-23
7.46135e-23
1.4255e-22
2.71288e-22
5.14289e-22
9.71161e-22
1.82675e-21
3.4227e-21
6.38784e-21
1.1875e-20
2.19888e-20
4.0556e-20
7.4506e-20
1.36334e-19
2.48482e-19
4.5108e-19
8.15607e-19
1.46883e-18
2.63464e-18
4.70683e-18
8.37507e-18
1.48422e-17
2.6197e-17
4.60519e-17
8.06274e-17
1.40589e-16
2.44148e-16
4.22262e-16
7.27337e-16
1.2477e-15
2.13158e-15
3.62667e-15
6.14503e-15
1.03693e-14
1.74251e-14
2.91611e-14
4.85992e-14
8.06583e-14
1.33309e-13
2.1941e-13
3.59616e-13
5.86951e-13
9.53989e-13
1.54404e-12
2.48855e-12
3.99395e-12
6.383e-12
1.0158e-11
1.60973e-11
2.54012e-11
3.99125e-11
6.24475e-11
9.72901e-11
1.50927e-10
2.33137e-10
3.58586e-10
5.49177e-10
8.37465e-10
1.27161e-09
1.92252e-09
2.8941e-09
4.33794e-09
6.47403e-09
9.62025e-09
1.42337e-08
2.09683e-08
3.07555e-08
4.49153e-08
6.53094e-08
9.45508e-08
1.36289e-07
1.95596e-07
2.79488e-07
3.97619e-07
5.6321e-07
7.94277e-07
1.11524e-06
1.55906e-06
2.16996e-06
3.00699e-06
4.14863e-06
5.69861e-06
7.79333e-06
1.06113e-05
1.43847e-05
1.94143e-05
2.60875e-05
3.49005e-05
4.64855e-05
6.16442e-05
8.1387e-05
0.000106981
0.000140006
0.000182421
0.000236644
0.000305637
0.000393016
0.000503161
0.000641357
0.000813933
0.00102843
0.00129379
0.00162053
0.00202094
0.00250934
0.00310225
0.00381864
0.00468014
0.00571125
0.00693952
0.00839574
0.010114
0.0121319
0.0144904
0.0172339
0.0204102
0.0240698
0.0282665
0.033056
0.038496
0.0446455
0.0515638
0.0593099
0.0679413
0.0775133
0.0880776
0.0996812
0.112366
0.126165
0.141105
0.157203
0.174465
0.192887
0.212452
0.233132
0.254884
0.277656
0.301379
0.325976
0.351355
0.377416
0.404048
0.431134
0.458548
0.48616
0.51384
0.541452
0.568866
0.595952
0.622584
0.648645
0.674024
0.698621
0.722344
0.745116
0.766868
0.787548
0.807113
0.825535
0.842797
0.858895
0.873835
0.887634
0.900319
0.911922
0.922487
0.932059
0.94069
0.948436
0.955354
0.961504
0.966944
0.971733
0.97593
0.979589
0.982765
0.985508
0.987867
0.989884
0.991601
0.993056
0.994283
0.995312
0.996171
0.996883
0.997471
0.997953
0.998345
0.99866
0.99891
0.999105
0.999252
0.999357
0.999425
0.999458
0.999458
0.999425
0.999357
0.999252
0.999105
0.99891
0.99866
0.998345
0.997953
0.997471
0.996883
0.996171
0.995312
0.994283
0.993056
0.991601
0.989884
0.987867
0.985508
0.982765
0.979589
0.97593
0.971733
0.966944
0.961504
0.955354
0.948436
0.94069
0.932059
0.922487
0.911922
0.900319
0.887634
0.873835
0.858895
0.842797
0.825535
0.807113
0.787548
0.766868
0.745116
0.722344
0.698621
0.674024
0.648645
0.622584
0.595952
0.568866
0.541452
0.51384
0.48616
0.458548
0.431134
0.404048
0.377416
0.351355
0.325976
0.301379
0.277656
0.254884
0.233132
0.212452
0.192887
0.174465
0.157203
0.141105
0.126165
0.112366
0.0996812
0.0880776
0.0775133
0.0679413
0.0593099
0.0515638
0.0446455
0.038496
0.033056
0.0282665
0.0240698
0.0204102
0.0172339
0.0144904
0.0121319
0.010114
0.00839574
0.00693952
0.00571125
0.00468014
0.00381864
0.00310225
0.00250934
0.00202094
0.00162053
0.00129379
0.00102843
0.000813933
0.000641357
0.000503161
0.000393016
0.000305637
0.000236644
0.000182421
0.000140006
0.000106981
8.1387e-05
6.16442e-05
4.64855e-05
3.49005e-05
2.60875e-05
1.94143e-05
1.43847e-05
1.06113e-05
7.79333e-06
5.69861e-06
4.14863e-06
3.00699e-06
2.16996e-06
1.55906e-06
1.11524e-06
7.94277e-07
5.6321e-07
3.97619e-07
2.79488e-07
1.95596e-07
1.36289e-07
9.45508e-08
6.53094e-08
4.49153e-08
3.07555e-08
2.09683e-08
1.42337e-08
9.62025e-09
6.47403e-09
4.33794e-09
2.8941e-09
1.92252e-09
1.27161e-09
8.37465e-10
5.49177e-10
3.58586e-10
2.33137e-10
1.50927e-10
9.72901e-11
6.24475e-11
3.99125e-11
2.54012e-11
1.60973e-11
1.0158e-11
6.383e-12
3.99395e-12
2.48855e-12
1.54404e-12
9.53989e-13
5.86951e-13
3.59616e-13
2.1941e-13
1.33309e-13
8.06583e-14
4.85992e-14
2.91611e-14
1.74251e-14
1.03693e-14
6.14503e-15
3.62667e-15
2.13158e-15
1.2477e-15
7.27337e-16
4.22262e-16
2.44148e-16
1.40589e-16
8.06274e-17
4.60519e-17
2.6197e-17
1.48422e-17
8.37507e-18
4.70683e-18
2.63464e-18
1.46883e-18
8.15607e-19
4.5108e-19
2.48482e-19
1.36334e-19
7.4506e-20
4.0556e-20
2.19888e-20
1.1875e-20
6.38784e-21
3.4227e-21
1.82675e-21
9.71161e-22
5.14289e-22
2.71288e-22
1.4255e-22
7.46135e-23
3.89034e-23
2.02061e-23
1.04545e-23
5.38831e-24
2.76655e-24
1.41502e-24
7.20987e-25
3.65965e-25
1.85055e-25
9.32211e-26
4.67827e-26
2.33894e-26
1.16497e-26
5.78071e-27
2.85772e-27
1.40745e-27
6.90602e-28
3.37603e-28
1.64427e-28
7.97864e-29
3.85728e-29
1.85794e-29
8.91634e-30
4.26331e-30
2.03104e-30
9.64059e-31
4.55939e-31
2.14848e-31
1.00875e-31
4.71913e-32
2.19976e-32
1.0217e-32
4.72841e-33
2.18047e-33
1.00192e-33
4.58741e-34
2.09295e-34
9.51499e-35
4.31044e-35
1.94582e-35
8.75292e-36
3.92354e-36
1.75259e-36
7.80129e-37
3.46049e-37
1.52967e-37
6.7383e-38
2.95801e-38
1.29405e-38
5.64162e-39
2.45112e-39
1.0613e-39
4.57958e-40
1.96939e-40
8.44038e-41
3.6051e-41
1.53462e-41
6.51057e-42
2.75279e-42
1.16003e-42
4.87201e-43
2.03936e-43
8.50811e-44
3.53774e-44
1.46615e-44
6.05606e-45
2.49327e-45
1.0231e-45
4.18444e-46
1.70582e-46
6.93123e-47
2.80718e-47
1.13322e-47
4.55987e-48
1.82887e-48
7.31154e-49
2.91364e-49
1.15736e-49
4.58255e-50
1.80866e-50
7.11578e-51
2.79065e-51
1.09096e-51
4.25145e-52
1.65156e-52
6.3956e-53
2.4689e-53
9.50089e-54
3.64474e-54
1.39384e-54
5.31385e-55
2.01956e-55
7.65171e-56
2.89014e-56
1.08828e-56
4.08532e-57
1.52891e-57
5.70436e-58
2.12181e-58
7.86839e-59
2.90901e-59
1.07223e-59
3.94022e-60
1.44359e-60
5.27301e-61
1.92031e-61
6.97246e-62
2.52408e-62
9.11019e-63
3.27839e-63
1.17627e-63
4.20796e-64
1.50091e-64
5.33776e-65
1.89273e-65
6.69188e-66
2.35906e-66
8.2921e-67
2.90622e-67
1.01562e-67
3.539e-68
1.22963e-68
4.26011e-69
1.4717e-69
5.06961e-70
1.74136e-70
5.96435e-71
2.03706e-71
6.93765e-72
2.35609e-72
7.97895e-73
2.69449e-73
9.07374e-74
3.04705e-74
1.02037e-74
3.40742e-75
1.13471e-75
3.76822e-76
1.24792e-76
4.12132e-77
1.35734e-77
4.45809e-78
1.46021e-78
4.76974e-79
1.55377e-79
5.04775e-80
1.63541e-80
5.28421e-81
1.70278e-81
5.47222e-82
1.75388e-82
5.60624e-83
1.78722e-83
5.68231e-84
1.80183e-84
5.6983e-85
1.79732e-85
5.65399e-86
1.77394e-86
5.55106e-87
1.73249e-87
5.39297e-88
1.67436e-88
5.18482e-89
1.60136e-89
4.93303e-90
1.5157e-90
4.64504e-91
1.41985e-91
4.32893e-92
1.31644e-92
3.99308e-93
1.2081e-93
3.6458e-94
1.09743e-94
3.295e-95
9.86812e-96
2.94792e-96
8.78418e-97
2.61092e-97
7.74097e-98
2.28933e-98
6.75363e-99
1.98739e-99
5.83373e-100
1.70818e-100
4.98933e-101
1.45372e-101
4.22518e-102
1.22502e-102
3.54302e-103
1.02221e-103
2.94202e-104
8.44681e-105
2.41926e-105
6.91224e-106
1.97016e-106
5.60192e-107
1.589e-107
4.49641e-108
1.2693e-108
3.57457e-109
1.00426e-109
2.81469e-110
7.87014e-111
2.19535e-111
6.10935e-112
1.69613e-112
4.69787e-113
1.29813e-113
3.57864e-114
9.84237e-115
2.70063e-115
7.39295e-116
2.01911e-116
5.50164e-117
1.49561e-117
4.05639e-118
1.09764e-118
2.96332e-119
7.98178e-120
2.14499e-120
5.75118e-121
1.5385e-121
4.10628e-122
1.09348e-122
2.9053e-123
7.70171e-124
2.03705e-124
5.37574e-125
1.41546e-125
3.71862e-126
9.74752e-127
2.54939e-127
6.65286e-128
1.73227e-128
4.50047e-129
1.16664e-129
3.01757e-130
7.78787e-131
2.00551e-131
5.15318e-132
1.32122e-132
3.38004e-133
8.62824e-134
2.19774e-134
5.58581e-135
1.41662e-135
3.58493e-136
9.05251e-137
2.28098e-137
5.73507e-138
1.43888e-138
3.60228e-139
8.99918e-140
2.24337e-140
5.58053e-141
1.38524e-141
3.43128e-142
8.48137e-143
2.09199e-143
5.14916e-144
1.26474e-144
3.09994e-145
7.58219e-146
1.85067e-146
4.50772e-147
1.09567e-147
2.65767e-148
6.43312e-149
1.55397e-149
3.746e-150
9.01149e-151
2.16338e-151
5.18294e-152
1.23917e-152
2.95663e-153
7.04005e-154
1.6729e-154
3.96719e-155
9.38889e-156
2.21751e-156
5.22685e-157
1.22953e-157
2.88644e-158
6.76262e-159
1.58124e-159
3.68985e-160
8.59319e-161
1.99726e-161
4.63287e-162
1.07252e-162
2.47798e-163
5.7139e-164
1.31495e-164
3.02018e-165
6.92311e-166
1.58386e-166
3.61646e-167
8.24141e-168
1.87444e-168
4.25498e-169
9.6403e-170
2.18105e-170
4.97533e-171
1.3572e-171
)
;

boundaryField
{
    sides
    {
        type            zeroGradient;
    }
    empty
    {
        type            empty;
    }
}


// ************************************************************************* //
