/*--------------------------------*- C++ -*----------------------------------*\
  =========                 |
  \\      /  F ield         | OpenFOAM: The Open Source CFD Toolbox
   \\    /   O peration     | Website:  https://openfoam.org
    \\  /    A nd           | Version:  13
     \\/     M anipulation  |
\*---------------------------------------------------------------------------*/
FoamFile
{
    format      ascii;
    class       volScalarField;
    location    "3.605";
    object      T;
}
// * * * * * * * * * * * * * * * * * * * * * * * * * * * * * * * * * * * * * //

dimensions      [0 0 0 1 0 0 0];

internalField   nonuniform List<scalar> 
1000
(
3.71832e-61
5.04424e-61
8.16215e-61
1.41657e-60
2.5154e-60
4.49553e-60
8.04403e-60
1.43872e-59
2.57081e-59
4.58867e-59
8.18099e-59
1.45687e-58
2.59135e-58
4.60389e-58
8.16986e-58
1.44809e-57
2.5637e-57
4.53346e-57
8.00723e-57
1.41262e-56
2.48918e-56
4.38103e-56
7.70169e-56
1.35233e-55
2.37176e-55
4.15474e-55
7.26952e-55
1.27044e-54
2.21763e-54
3.86645e-54
6.73319e-54
1.17116e-53
2.03468e-53
3.5307e-53
6.11944e-53
1.05937e-52
1.83175e-52
3.16351e-52
5.45704e-52
9.40216e-52
1.61801e-51
2.78111e-51
4.7746e-51
8.18726e-51
1.40224e-50
2.39876e-50
4.09857e-50
6.99454e-50
1.19225e-49
2.0298e-49
3.45161e-49
5.86231e-49
9.94479e-49
1.68501e-48
2.85158e-48
4.82002e-48
8.13748e-48
1.37217e-47
2.31103e-47
3.88757e-47
6.53174e-47
1.09611e-46
1.83721e-46
3.07566e-46
5.14272e-46
8.58862e-46
1.43261e-45
2.38676e-45
3.97158e-45
6.60072e-45
1.09571e-44
1.81664e-44
3.00828e-44
4.97554e-44
8.2193e-44
1.35613e-43
2.23481e-43
3.67833e-43
6.0469e-43
9.92855e-43
1.62821e-42
2.66688e-42
4.36283e-42
7.12857e-42
1.16334e-41
1.89618e-41
3.0869e-41
5.01918e-41
8.15102e-41
1.32209e-40
2.14178e-40
3.46543e-40
5.60025e-40
9.03908e-40
1.45716e-39
2.34616e-39
3.77288e-39
6.05975e-39
9.72079e-39
1.55745e-38
2.49224e-38
3.9832e-38
6.35826e-38
1.0137e-37
1.61414e-37
2.56707e-37
4.07754e-37
6.46877e-37
1.02496e-36
1.62202e-36
2.56368e-36
4.04703e-36
6.38071e-36
1.00476e-35
1.58022e-35
2.48218e-35
3.89411e-35
6.10161e-35
9.5486e-35
1.49243e-34
2.32975e-34
3.6323e-34
5.65604e-34
8.79635e-34
1.36631e-33
2.11961e-33
3.28412e-33
5.08205e-33
7.85445e-33
1.21241e-32
1.86913e-32
2.87797e-32
4.42576e-32
6.79745e-32
1.0427e-31
1.59745e-31
2.44427e-31
3.73531e-31
5.7011e-31
8.69048e-31
1.32307e-30
2.01176e-30
3.05507e-30
4.63361e-30
7.01892e-30
1.06188e-29
1.60446e-29
2.42124e-29
3.64919e-29
5.49296e-29
8.25786e-29
1.23988e-28
1.85927e-28
2.78455e-28
4.16503e-28
6.22202e-28
9.28311e-28
1.38326e-27
2.05857e-27
3.05967e-27
4.54185e-27
6.73347e-27
9.96995e-27
1.47433e-26
2.17743e-26
3.21174e-26
4.73134e-26
6.96105e-26
1.02285e-25
1.50105e-25
2.20001e-25
3.22032e-25
4.70781e-25
6.87362e-25
1.0023e-24
1.45966e-24
2.12301e-24
3.08388e-24
4.4739e-24
6.48215e-24
9.37984e-24
1.35555e-23
1.95649e-23
2.82023e-23
4.06007e-23
5.83748e-23
8.38221e-23
1.20208e-22
1.72168e-22
2.4627e-22
3.51813e-22
5.01943e-22
7.15215e-22
1.0178e-21
1.44652e-21
2.05319e-21
2.91054e-21
4.12057e-21
5.82615e-21
8.22707e-21
1.16024e-20
1.63414e-20
2.29864e-20
3.22916e-20
4.53051e-20
6.34809e-20
8.88336e-20
1.24151e-19
1.73284e-19
2.41549e-19
3.36271e-19
4.67531e-19
6.49184e-19
9.00248e-19
1.24679e-18
1.72449e-18
2.38212e-18
3.28627e-18
4.5277e-18
6.22999e-18
8.56117e-18
1.17494e-17
1.61038e-17
2.20435e-17
3.01346e-17
4.11419e-17
5.60968e-17
7.63882e-17
1.03884e-16
1.41092e-16
1.91378e-16
2.59248e-16
3.50728e-16
4.7387e-16
6.39412e-16
8.61658e-16
1.15964e-15
1.55862e-15
2.09215e-15
2.80464e-15
3.75485e-15
5.02042e-15
6.70378e-15
8.93985e-15
1.19062e-14
1.5836e-14
2.10354e-14
2.79053e-14
3.69703e-14
4.89158e-14
6.46364e-14
8.52973e-14
1.12415e-13
1.47959e-13
1.94487e-13
2.55311e-13
3.34717e-13
4.38244e-13
5.73039e-13
7.48309e-13
9.75905e-13
1.27105e-12
1.65329e-12
2.14764e-12
2.78616e-12
3.60975e-12
4.67065e-12
6.03541e-12
7.78869e-12
1.00381e-11
1.29201e-11
1.66077e-11
2.13196e-11
2.73325e-11
3.4995e-11
4.47468e-11
5.71406e-11
7.28712e-11
9.28101e-11
1.18049e-10
1.49953e-10
1.9023e-10
2.41006e-10
3.04933e-10
3.85309e-10
4.86229e-10
6.12774e-10
7.71236e-10
9.69396e-10
1.21686e-09
1.52549e-09
1.90988e-09
2.38797e-09
2.98181e-09
3.71841e-09
4.63086e-09
5.75961e-09
7.15405e-09
8.87437e-09
1.09939e-08
1.36016e-08
1.68058e-08
2.07373e-08
2.55549e-08
3.14503e-08
3.86545e-08
4.74465e-08
5.81615e-08
7.12023e-08
8.70522e-08
1.0629e-07
1.29609e-07
1.57835e-07
1.91955e-07
2.33143e-07
2.82797e-07
3.42574e-07
4.14441e-07
5.00724e-07
6.04175e-07
7.2804e-07
8.76145e-07
1.05299e-06
1.26387e-06
1.51499e-06
1.81362e-06
2.16826e-06
2.58883e-06
3.08694e-06
3.67604e-06
4.37182e-06
5.19248e-06
6.1591e-06
7.29608e-06
8.63163e-06
1.01983e-05
1.20335e-05
1.41803e-05
1.66883e-05
1.96142e-05
2.30229e-05
2.69887e-05
3.15963e-05
3.69422e-05
4.31362e-05
5.03031e-05
5.85842e-05
6.81396e-05
7.91504e-05
9.18208e-05
0.000106381
0.000123089
0.000142237
0.00016415
0.000189194
0.000217775
0.000250349
0.000287423
0.00032956
0.000377385
0.000431593
0.000492951
0.000562305
0.000640591
0.000728836
0.00082817
0.000939835
0.00106519
0.00120571
0.00136302
0.00153889
0.00173522
0.00195411
0.0021978
0.00246873
0.00276954
0.00310305
0.00347231
0.00388059
0.00433139
0.00482845
0.00537576
0.00597757
0.00663839
0.00736301
0.00815649
0.00902417
0.00997169
0.011005
0.0121302
0.0133538
0.0146827
0.0161238
0.0176845
0.0193724
0.0211953
0.0231614
0.0252788
0.0275561
0.0300019
0.0326253
0.035435
0.0384402
0.0416501
0.0450738
0.0487205
0.0525994
0.0567196
0.0610899
0.0657192
0.0706161
0.0757888
0.0812452
0.086993
0.0930394
0.099391
0.106054
0.113034
0.120336
0.127964
0.135922
0.144213
0.152837
0.161798
0.171094
0.180724
0.190688
0.200982
0.211602
0.222544
0.233802
0.245368
0.257235
0.269393
0.281833
0.294544
0.307512
0.320726
0.33417
0.34783
0.361691
0.375735
0.389945
0.404303
0.41879
0.433387
0.448075
0.462833
0.477641
0.492478
0.507324
0.522157
0.536957
0.551702
0.566373
0.580949
0.59541
0.609736
0.623909
0.637909
0.651718
0.66532
0.678698
0.691835
0.704717
0.71733
0.729659
0.741694
0.753421
0.764831
0.775913
0.78666
0.797061
0.807112
0.816805
0.826135
0.835098
0.843689
0.851906
0.859746
0.867207
0.874288
0.880988
0.887307
0.893246
0.898804
0.903983
0.908783
0.913206
0.917254
0.920927
0.924227
0.927157
0.929716
0.931907
0.933731
0.935189
0.936281
0.937009
0.937373
0.937373
0.937009
0.936281
0.935189
0.933731
0.931907
0.929716
0.927157
0.924227
0.920927
0.917254
0.913206
0.908783
0.903983
0.898804
0.893246
0.887307
0.880988
0.874288
0.867207
0.859746
0.851906
0.843689
0.835098
0.826135
0.816805
0.807112
0.797061
0.78666
0.775913
0.764831
0.753421
0.741694
0.729659
0.71733
0.704717
0.691835
0.678698
0.66532
0.651718
0.637909
0.623909
0.609736
0.59541
0.580949
0.566373
0.551702
0.536957
0.522157
0.507324
0.492478
0.477641
0.462833
0.448075
0.433387
0.41879
0.404303
0.389945
0.375735
0.361691
0.34783
0.33417
0.320726
0.307512
0.294544
0.281833
0.269393
0.257235
0.245368
0.233802
0.222544
0.211602
0.200982
0.190688
0.180724
0.171094
0.161798
0.152837
0.144213
0.135922
0.127964
0.120336
0.113034
0.106054
0.099391
0.0930394
0.086993
0.0812452
0.0757888
0.0706161
0.0657192
0.0610899
0.0567196
0.0525994
0.0487205
0.0450738
0.0416501
0.0384402
0.035435
0.0326253
0.0300019
0.0275561
0.0252788
0.0231614
0.0211953
0.0193724
0.0176845
0.0161238
0.0146827
0.0133538
0.0121302
0.011005
0.00997169
0.00902417
0.00815649
0.00736301
0.00663839
0.00597757
0.00537576
0.00482845
0.00433139
0.00388059
0.00347231
0.00310305
0.00276954
0.00246873
0.0021978
0.00195411
0.00173522
0.00153889
0.00136302
0.00120571
0.00106519
0.000939835
0.00082817
0.000728836
0.000640591
0.000562305
0.000492951
0.000431593
0.000377385
0.00032956
0.000287423
0.000250349
0.000217775
0.000189194
0.00016415
0.000142237
0.000123089
0.000106381
9.18208e-05
7.91504e-05
6.81396e-05
5.85842e-05
5.03031e-05
4.31362e-05
3.69422e-05
3.15963e-05
2.69887e-05
2.30229e-05
1.96142e-05
1.66883e-05
1.41803e-05
1.20335e-05
1.01983e-05
8.63163e-06
7.29608e-06
6.1591e-06
5.19248e-06
4.37182e-06
3.67604e-06
3.08694e-06
2.58883e-06
2.16826e-06
1.81362e-06
1.51499e-06
1.26387e-06
1.05299e-06
8.76145e-07
7.2804e-07
6.04175e-07
5.00724e-07
4.14441e-07
3.42574e-07
2.82797e-07
2.33143e-07
1.91955e-07
1.57835e-07
1.29609e-07
1.0629e-07
8.70522e-08
7.12023e-08
5.81615e-08
4.74465e-08
3.86545e-08
3.14503e-08
2.55549e-08
2.07373e-08
1.68058e-08
1.36016e-08
1.09939e-08
8.87437e-09
7.15405e-09
5.75961e-09
4.63086e-09
3.71841e-09
2.98181e-09
2.38797e-09
1.90988e-09
1.52549e-09
1.21686e-09
9.69396e-10
7.71236e-10
6.12774e-10
4.86229e-10
3.85309e-10
3.04933e-10
2.41006e-10
1.9023e-10
1.49953e-10
1.18049e-10
9.28101e-11
7.28712e-11
5.71406e-11
4.47468e-11
3.4995e-11
2.73325e-11
2.13196e-11
1.66077e-11
1.29201e-11
1.00381e-11
7.78869e-12
6.03541e-12
4.67065e-12
3.60975e-12
2.78616e-12
2.14764e-12
1.65329e-12
1.27105e-12
9.75905e-13
7.48309e-13
5.73039e-13
4.38244e-13
3.34717e-13
2.55311e-13
1.94487e-13
1.47959e-13
1.12415e-13
8.52973e-14
6.46364e-14
4.89158e-14
3.69703e-14
2.79053e-14
2.10354e-14
1.5836e-14
1.19062e-14
8.93985e-15
6.70378e-15
5.02042e-15
3.75485e-15
2.80464e-15
2.09215e-15
1.55862e-15
1.15964e-15
8.61658e-16
6.39412e-16
4.7387e-16
3.50728e-16
2.59248e-16
1.91378e-16
1.41092e-16
1.03884e-16
7.63882e-17
5.60968e-17
4.11419e-17
3.01346e-17
2.20435e-17
1.61038e-17
1.17494e-17
8.56117e-18
6.22999e-18
4.5277e-18
3.28627e-18
2.38212e-18
1.72449e-18
1.24679e-18
9.00248e-19
6.49184e-19
4.67531e-19
3.36271e-19
2.41549e-19
1.73284e-19
1.24151e-19
8.88336e-20
6.34809e-20
4.53051e-20
3.22916e-20
2.29864e-20
1.63414e-20
1.16024e-20
8.22707e-21
5.82615e-21
4.12057e-21
2.91054e-21
2.05319e-21
1.44652e-21
1.0178e-21
7.15215e-22
5.01943e-22
3.51813e-22
2.4627e-22
1.72168e-22
1.20208e-22
8.38221e-23
5.83748e-23
4.06007e-23
2.82023e-23
1.95649e-23
1.35555e-23
9.37984e-24
6.48215e-24
4.4739e-24
3.08388e-24
2.12301e-24
1.45966e-24
1.0023e-24
6.87362e-25
4.70781e-25
3.22032e-25
2.20001e-25
1.50105e-25
1.02285e-25
6.96105e-26
4.73134e-26
3.21174e-26
2.17743e-26
1.47433e-26
9.96995e-27
6.73347e-27
4.54185e-27
3.05967e-27
2.05857e-27
1.38326e-27
9.28311e-28
6.22202e-28
4.16503e-28
2.78455e-28
1.85927e-28
1.23988e-28
8.25786e-29
5.49296e-29
3.64919e-29
2.42124e-29
1.60446e-29
1.06188e-29
7.01892e-30
4.63361e-30
3.05507e-30
2.01176e-30
1.32307e-30
8.69048e-31
5.7011e-31
3.73531e-31
2.44427e-31
1.59745e-31
1.0427e-31
6.79745e-32
4.42576e-32
2.87797e-32
1.86913e-32
1.21241e-32
7.85445e-33
5.08205e-33
3.28412e-33
2.11961e-33
1.36631e-33
8.79635e-34
5.65604e-34
3.6323e-34
2.32975e-34
1.49243e-34
9.5486e-35
6.10161e-35
3.89411e-35
2.48218e-35
1.58022e-35
1.00476e-35
6.38071e-36
4.04703e-36
2.56368e-36
1.62202e-36
1.02496e-36
6.46877e-37
4.07754e-37
2.56707e-37
1.61414e-37
1.0137e-37
6.35826e-38
3.9832e-38
2.49224e-38
1.55745e-38
9.72079e-39
6.05975e-39
3.77288e-39
2.34616e-39
1.45716e-39
9.03908e-40
5.60025e-40
3.46543e-40
2.14178e-40
1.32209e-40
8.15102e-41
5.01918e-41
3.0869e-41
1.89618e-41
1.16334e-41
7.12857e-42
4.36283e-42
2.66688e-42
1.62821e-42
9.92855e-43
6.0469e-43
3.67833e-43
2.23481e-43
1.35613e-43
8.2193e-44
4.97554e-44
3.00828e-44
1.81664e-44
1.09571e-44
6.60072e-45
3.97158e-45
2.38676e-45
1.43261e-45
8.58862e-46
5.14272e-46
3.07566e-46
1.83721e-46
1.09611e-46
6.53174e-47
3.88757e-47
2.31103e-47
1.37217e-47
8.13748e-48
4.82002e-48
2.85158e-48
1.68501e-48
9.94479e-49
5.86231e-49
3.45161e-49
2.0298e-49
1.19225e-49
6.99454e-50
4.09857e-50
2.39876e-50
1.40224e-50
8.18726e-51
4.7746e-51
2.78111e-51
1.61801e-51
9.40216e-52
5.45704e-52
3.16351e-52
1.83175e-52
1.05937e-52
6.11944e-53
3.5307e-53
2.03468e-53
1.17116e-53
6.73319e-54
3.86645e-54
2.21763e-54
1.27044e-54
7.26952e-55
4.15474e-55
2.37176e-55
1.35233e-55
7.70169e-56
4.38103e-56
2.48918e-56
1.41262e-56
8.00723e-57
4.53346e-57
2.5637e-57
1.44809e-57
8.16986e-58
4.60389e-58
2.59135e-58
1.45687e-58
8.18099e-59
4.58867e-59
2.57081e-59
1.43872e-59
8.04403e-60
4.49553e-60
2.5154e-60
1.41657e-60
8.16215e-61
5.04424e-61
3.71832e-61
)
;

boundaryField
{
    sides
    {
        type            zeroGradient;
    }
    empty
    {
        type            empty;
    }
}


// ************************************************************************* //
