/*--------------------------------*- C++ -*----------------------------------*\
  =========                 |
  \\      /  F ield         | OpenFOAM: The Open Source CFD Toolbox
   \\    /   O peration     | Website:  https://openfoam.org
    \\  /    A nd           | Version:  13
     \\/     M anipulation  |
\*---------------------------------------------------------------------------*/
FoamFile
{
    format      ascii;
    class       volScalarField;
    location    "1.965";
    object      T;
}
// * * * * * * * * * * * * * * * * * * * * * * * * * * * * * * * * * * * * * //

dimensions      [0 0 0 1 0 0 0];

internalField   nonuniform List<scalar> 
1000
(
1.65437e-104
3.35036e-104
8.46702e-104
2.21934e-103
5.84027e-103
1.53559e-102
4.03136e-102
1.05662e-101
2.76486e-101
7.22285e-101
1.88377e-100
4.90485e-100
1.27498e-99
3.30874e-99
8.57234e-99
2.21724e-98
5.72535e-98
1.47593e-97
3.79845e-97
9.7593e-97
2.50325e-96
6.41003e-96
1.63865e-95
4.18199e-95
1.06549e-94
2.71007e-94
6.88143e-94
1.74439e-93
4.41441e-93
1.11523e-92
2.81269e-92
7.08172e-92
1.77999e-91
4.46638e-91
1.1188e-90
2.79774e-90
6.98423e-90
1.74055e-89
4.33021e-89
1.07544e-88
2.66633e-88
6.59927e-88
1.63053e-87
4.0217e-87
9.90242e-87
2.434e-86
5.97237e-86
1.46291e-85
3.57714e-85
8.73167e-85
2.12766e-84
5.17545e-84
1.25671e-83
3.04623e-83
7.37104e-83
1.78046e-82
4.29313e-82
1.03336e-81
2.48292e-81
5.95538e-81
1.4259e-80
3.408e-80
8.13096e-80
1.93648e-79
4.60378e-79
1.09255e-78
2.58821e-78
6.1204e-78
1.44473e-77
3.40421e-77
8.00698e-77
1.87994e-76
4.40594e-76
1.03075e-75
2.40706e-75
5.61097e-75
1.30559e-74
3.03241e-74
7.0305e-74
1.62704e-73
3.75856e-73
8.66675e-73
1.99481e-72
4.58307e-72
1.05104e-71
2.40597e-71
5.49752e-71
1.25386e-70
2.85453e-70
6.48669e-70
1.47134e-69
3.33124e-69
7.52832e-69
1.6982e-68
3.82365e-68
8.59336e-68
1.92772e-67
4.31638e-67
9.64694e-67
2.15205e-66
4.79187e-66
1.065e-65
2.36256e-65
5.23123e-65
1.15615e-64
2.5504e-64
5.6155e-64
1.23411e-63
2.70707e-63
5.92692e-63
1.29521e-62
2.82507e-62
6.15032e-62
1.33642e-61
2.89846e-61
6.27431e-61
1.35562e-60
2.92338e-60
6.29223e-60
1.35174e-59
2.89837e-59
6.20274e-59
1.32489e-58
2.82453e-58
6.01002e-58
1.27635e-57
2.70539e-57
5.72335e-57
1.20846e-56
2.54669e-56
5.35648e-56
1.12445e-55
2.35591e-55
4.92644e-55
1.02817e-54
2.14164e-54
4.45228e-54
9.23785e-54
1.91298e-53
3.95365e-53
8.15522e-53
1.67888e-52
3.44946e-52
7.0734e-52
1.4476e-51
2.95674e-51
6.02724e-51
1.22621e-50
2.48973e-50
5.04519e-50
1.02033e-49
2.0594e-49
4.14835e-49
8.3396e-49
1.6732e-48
3.3503e-48
6.69499e-48
1.3352e-47
2.65749e-47
5.27868e-47
1.04642e-46
2.0702e-46
4.08735e-46
8.05371e-46
1.5837e-45
3.10792e-45
6.08679e-45
1.18967e-44
2.3205e-44
4.51703e-44
8.77489e-44
1.70116e-43
3.29125e-43
6.35464e-43
1.22442e-42
2.35442e-42
4.51798e-42
8.65194e-42
1.65344e-41
3.15335e-41
6.0015e-41
1.13986e-40
2.16046e-40
4.08641e-40
7.71326e-40
1.4529e-39
2.73105e-39
5.12297e-39
9.58982e-39
1.79141e-38
3.33943e-38
6.21218e-38
1.15321e-37
2.1363e-37
3.94917e-37
7.28516e-37
1.3411e-36
2.46358e-36
4.51607e-36
8.2611e-36
1.50799e-35
2.7469e-35
4.99306e-35
9.05674e-35
1.63929e-34
2.96086e-34
5.33651e-34
9.59782e-34
1.72251e-33
3.0848e-33
5.51269e-33
9.83043e-33
1.74925e-32
3.10599e-32
5.50324e-32
9.72978e-32
1.71654e-31
3.02184e-31
5.30827e-31
9.3046e-31
1.62744e-30
2.84036e-30
4.94654e-30
8.59585e-30
1.49051e-29
2.57892e-29
4.45242e-29
7.67026e-29
1.31849e-28
2.26151e-28
3.87055e-28
6.60992e-28
1.12634e-27
1.91511e-27
3.2491e-27
5.50023e-27
9.29062e-27
1.56586e-26
2.63333e-26
4.41876e-26
7.39839e-26
1.23599e-25
2.06031e-25
3.4268e-25
5.687e-25
9.41705e-25
1.5559e-24
2.56498e-24
4.21911e-24
6.92452e-24
1.13394e-23
1.85278e-23
3.02055e-23
4.91335e-23
7.97438e-23
1.29135e-22
2.0865e-22
3.36369e-22
5.41052e-22
8.68331e-22
1.39045e-21
2.22149e-21
3.54125e-21
5.63232e-21
8.93794e-21
1.41516e-20
2.23558e-20
3.52363e-20
5.54124e-20
8.69435e-20
1.36107e-19
2.12587e-19
3.31288e-19
5.15091e-19
7.99047e-19
1.23672e-18
1.90975e-18
2.94231e-18
4.52281e-18
6.93638e-18
1.06136e-17
1.6203e-17
2.46793e-17
3.75035e-17
5.68607e-17
8.60109e-17
1.29806e-16
1.95449e-16
2.93611e-16
4.40055e-16
6.5802e-16
9.81673e-16
1.46113e-15
2.16974e-15
3.21453e-15
4.75139e-15
7.00675e-15
1.03087e-14
1.51314e-14
2.21589e-14
3.23745e-14
4.71898e-14
6.86247e-14
9.95635e-14
1.44114e-13
2.08112e-13
2.99829e-13
4.30957e-13
6.17985e-13
8.84108e-13
1.26187e-12
1.79683e-12
2.55257e-12
3.61769e-12
5.11522e-12
7.21566e-12
1.01547e-11
1.42573e-11
1.99702e-11
2.79065e-11
3.89051e-11
5.41106e-11
7.50816e-11
1.03935e-10
1.43536e-10
1.97759e-10
2.71821e-10
3.72739e-10
5.09916e-10
6.95928e-10
9.47549e-10
1.2871e-09
1.74418e-09
2.35798e-09
3.18024e-09
4.27908e-09
5.74393e-09
7.69197e-09
1.02763e-08
1.36962e-08
1.8211e-08
2.41566e-08
3.19672e-08
4.22027e-08
5.55832e-08
7.30322e-08
9.57307e-08
1.25186e-07
1.63315e-07
2.1255e-07
2.75971e-07
3.57464e-07
4.6192e-07
5.95479e-07
7.65831e-07
9.82573e-07
1.25766e-06
1.60593e-06
2.04577e-06
2.59987e-06
3.2962e-06
4.16909e-06
5.26061e-06
6.62212e-06
8.31619e-06
1.04188e-05
1.30221e-05
1.62372e-05
2.01979e-05
2.50653e-05
3.10317e-05
3.83273e-05
4.72259e-05
5.80527e-05
7.11926e-05
8.70999e-05
0.00010631
0.000129449
0.000157253
0.000190577
0.000230419
0.000277933
0.000334455
0.000401525
0.000480911
0.000574639
0.000685022
0.000814696
0.000966647
0.00114426
0.00135133
0.00159216
0.00187154
0.00219482
0.00256796
0.00299757
0.00349094
0.00405611
0.00470191
0.00543796
0.00627478
0.00722374
0.00829718
0.00950834
0.0108714
0.0124017
0.0141152
0.0160291
0.0181614
0.0205311
0.0231578
0.0260622
0.0292654
0.0327891
0.0366558
0.040888
0.0455085
0.0505401
0.0560056
0.0619273
0.0683271
0.0752258
0.0826437
0.0905996
0.0991107
0.108193
0.117859
0.128122
0.13899
0.150469
0.162564
0.175275
0.188599
0.20253
0.217059
0.232173
0.247856
0.264088
0.280845
0.2981
0.315823
0.33398
0.352534
0.371447
0.390675
0.410175
0.4299
0.449801
0.469829
0.489934
0.510065
0.53017
0.550199
0.5701
0.589824
0.609324
0.628552
0.647464
0.666018
0.684175
0.701897
0.719151
0.735907
0.752137
0.767818
0.782931
0.797457
0.811385
0.824705
0.837411
0.8495
0.860972
0.871831
0.882083
0.891736
0.900802
0.909294
0.917227
0.924617
0.931482
0.937842
0.943716
0.949125
0.95409
0.958631
0.96277
0.966526
0.96992
0.972971
0.975698
0.978118
0.980246
0.982099
0.98369
0.98503
0.986131
0.987001
0.987647
0.988074
0.988287
0.988287
0.988074
0.987647
0.987001
0.986131
0.98503
0.98369
0.982099
0.980246
0.978118
0.975698
0.972971
0.96992
0.966526
0.96277
0.958631
0.95409
0.949125
0.943716
0.937842
0.931482
0.924617
0.917227
0.909294
0.900802
0.891736
0.882083
0.871831
0.860972
0.8495
0.837411
0.824705
0.811385
0.797457
0.782931
0.767818
0.752137
0.735907
0.719151
0.701897
0.684175
0.666018
0.647464
0.628552
0.609324
0.589824
0.5701
0.550199
0.53017
0.510065
0.489934
0.469829
0.449801
0.4299
0.410175
0.390675
0.371447
0.352534
0.33398
0.315823
0.2981
0.280845
0.264088
0.247856
0.232173
0.217059
0.20253
0.188599
0.175275
0.162564
0.150469
0.13899
0.128122
0.117859
0.108193
0.0991107
0.0905996
0.0826437
0.0752258
0.0683271
0.0619273
0.0560056
0.0505401
0.0455085
0.040888
0.0366558
0.0327891
0.0292654
0.0260622
0.0231578
0.0205311
0.0181614
0.0160291
0.0141152
0.0124017
0.0108714
0.00950834
0.00829718
0.00722374
0.00627478
0.00543796
0.00470191
0.00405611
0.00349094
0.00299757
0.00256796
0.00219482
0.00187154
0.00159216
0.00135133
0.00114426
0.000966647
0.000814696
0.000685022
0.000574639
0.000480911
0.000401525
0.000334455
0.000277933
0.000230419
0.000190577
0.000157253
0.000129449
0.00010631
8.70999e-05
7.11926e-05
5.80527e-05
4.72259e-05
3.83273e-05
3.10317e-05
2.50653e-05
2.01979e-05
1.62372e-05
1.30221e-05
1.04188e-05
8.31619e-06
6.62212e-06
5.26061e-06
4.16909e-06
3.2962e-06
2.59987e-06
2.04577e-06
1.60593e-06
1.25766e-06
9.82573e-07
7.65831e-07
5.95479e-07
4.6192e-07
3.57464e-07
2.75971e-07
2.1255e-07
1.63315e-07
1.25186e-07
9.57307e-08
7.30322e-08
5.55832e-08
4.22027e-08
3.19672e-08
2.41566e-08
1.8211e-08
1.36962e-08
1.02763e-08
7.69197e-09
5.74393e-09
4.27908e-09
3.18024e-09
2.35798e-09
1.74418e-09
1.2871e-09
9.47549e-10
6.95928e-10
5.09916e-10
3.72739e-10
2.71821e-10
1.97759e-10
1.43536e-10
1.03935e-10
7.50816e-11
5.41106e-11
3.89051e-11
2.79065e-11
1.99702e-11
1.42573e-11
1.01547e-11
7.21566e-12
5.11522e-12
3.61769e-12
2.55257e-12
1.79683e-12
1.26187e-12
8.84108e-13
6.17985e-13
4.30957e-13
2.99829e-13
2.08112e-13
1.44114e-13
9.95635e-14
6.86247e-14
4.71898e-14
3.23745e-14
2.21589e-14
1.51314e-14
1.03087e-14
7.00675e-15
4.75139e-15
3.21453e-15
2.16974e-15
1.46113e-15
9.81673e-16
6.5802e-16
4.40055e-16
2.93611e-16
1.95449e-16
1.29806e-16
8.60109e-17
5.68607e-17
3.75035e-17
2.46793e-17
1.6203e-17
1.06136e-17
6.93638e-18
4.52281e-18
2.94231e-18
1.90975e-18
1.23672e-18
7.99047e-19
5.15091e-19
3.31288e-19
2.12587e-19
1.36107e-19
8.69435e-20
5.54124e-20
3.52363e-20
2.23558e-20
1.41516e-20
8.93794e-21
5.63232e-21
3.54125e-21
2.22149e-21
1.39045e-21
8.68331e-22
5.41052e-22
3.36369e-22
2.0865e-22
1.29135e-22
7.97438e-23
4.91335e-23
3.02055e-23
1.85278e-23
1.13394e-23
6.92452e-24
4.21911e-24
2.56498e-24
1.5559e-24
9.41705e-25
5.687e-25
3.4268e-25
2.06031e-25
1.23599e-25
7.39839e-26
4.41876e-26
2.63333e-26
1.56586e-26
9.29062e-27
5.50023e-27
3.2491e-27
1.91511e-27
1.12634e-27
6.60992e-28
3.87055e-28
2.26151e-28
1.31849e-28
7.67026e-29
4.45242e-29
2.57892e-29
1.49051e-29
8.59585e-30
4.94654e-30
2.84036e-30
1.62744e-30
9.3046e-31
5.30827e-31
3.02184e-31
1.71654e-31
9.72978e-32
5.50324e-32
3.10599e-32
1.74925e-32
9.83043e-33
5.51269e-33
3.0848e-33
1.72251e-33
9.59782e-34
5.33651e-34
2.96086e-34
1.63929e-34
9.05674e-35
4.99306e-35
2.7469e-35
1.50799e-35
8.2611e-36
4.51607e-36
2.46358e-36
1.3411e-36
7.28516e-37
3.94917e-37
2.1363e-37
1.15321e-37
6.21218e-38
3.33943e-38
1.79141e-38
9.58982e-39
5.12297e-39
2.73105e-39
1.4529e-39
7.71326e-40
4.08641e-40
2.16046e-40
1.13986e-40
6.0015e-41
3.15335e-41
1.65344e-41
8.65194e-42
4.51798e-42
2.35442e-42
1.22442e-42
6.35464e-43
3.29125e-43
1.70116e-43
8.77489e-44
4.51703e-44
2.3205e-44
1.18967e-44
6.08679e-45
3.10792e-45
1.5837e-45
8.05371e-46
4.08735e-46
2.0702e-46
1.04642e-46
5.27868e-47
2.65749e-47
1.3352e-47
6.69499e-48
3.3503e-48
1.6732e-48
8.3396e-49
4.14835e-49
2.0594e-49
1.02033e-49
5.04519e-50
2.48973e-50
1.22621e-50
6.02724e-51
2.95674e-51
1.4476e-51
7.0734e-52
3.44946e-52
1.67888e-52
8.15522e-53
3.95365e-53
1.91298e-53
9.23785e-54
4.45228e-54
2.14164e-54
1.02817e-54
4.92644e-55
2.35591e-55
1.12445e-55
5.35648e-56
2.54669e-56
1.20846e-56
5.72335e-57
2.70539e-57
1.27635e-57
6.01002e-58
2.82453e-58
1.32489e-58
6.20274e-59
2.89837e-59
1.35174e-59
6.29223e-60
2.92338e-60
1.35562e-60
6.27431e-61
2.89846e-61
1.33642e-61
6.15032e-62
2.82507e-62
1.29521e-62
5.92692e-63
2.70707e-63
1.23411e-63
5.6155e-64
2.5504e-64
1.15615e-64
5.23123e-65
2.36256e-65
1.065e-65
4.79187e-66
2.15205e-66
9.64694e-67
4.31638e-67
1.92772e-67
8.59336e-68
3.82365e-68
1.6982e-68
7.52832e-69
3.33124e-69
1.47134e-69
6.48669e-70
2.85453e-70
1.25386e-70
5.49752e-71
2.40597e-71
1.05104e-71
4.58307e-72
1.99481e-72
8.66675e-73
3.75856e-73
1.62704e-73
7.0305e-74
3.03241e-74
1.30559e-74
5.61097e-75
2.40706e-75
1.03075e-75
4.40594e-76
1.87994e-76
8.00698e-77
3.40421e-77
1.44473e-77
6.1204e-78
2.58821e-78
1.09255e-78
4.60378e-79
1.93648e-79
8.13096e-80
3.408e-80
1.4259e-80
5.95538e-81
2.48292e-81
1.03336e-81
4.29313e-82
1.78046e-82
7.37104e-83
3.04623e-83
1.25671e-83
5.17545e-84
2.12766e-84
8.73167e-85
3.57714e-85
1.46291e-85
5.97237e-86
2.434e-86
9.90242e-87
4.0217e-87
1.63053e-87
6.59927e-88
2.66633e-88
1.07544e-88
4.33021e-89
1.74055e-89
6.98423e-90
2.79774e-90
1.1188e-90
4.46638e-91
1.77999e-91
7.08172e-92
2.81269e-92
1.11523e-92
4.41441e-93
1.74439e-93
6.88143e-94
2.71007e-94
1.06549e-94
4.18199e-95
1.63865e-95
6.41003e-96
2.50325e-96
9.7593e-97
3.79845e-97
1.47593e-97
5.72535e-98
2.21724e-98
8.57234e-99
3.30874e-99
1.27498e-99
4.90485e-100
1.88377e-100
7.22285e-101
2.76486e-101
1.05662e-101
4.03136e-102
1.53559e-102
5.84027e-103
2.21934e-103
8.46702e-104
3.35036e-104
1.65437e-104
)
;

boundaryField
{
    sides
    {
        type            zeroGradient;
    }
    empty
    {
        type            empty;
    }
}


// ************************************************************************* //
