/*--------------------------------*- C++ -*----------------------------------*\
  =========                 |
  \\      /  F ield         | OpenFOAM: The Open Source CFD Toolbox
   \\    /   O peration     | Website:  https://openfoam.org
    \\  /    A nd           | Version:  13
     \\/     M anipulation  |
\*---------------------------------------------------------------------------*/
FoamFile
{
    format      ascii;
    class       volScalarField;
    location    "0.725";
    object      T;
}
// * * * * * * * * * * * * * * * * * * * * * * * * * * * * * * * * * * * * * //

dimensions      [0 0 0 1 0 0 0];

internalField   nonuniform List<scalar> 
1000
(
1.57374e-218
8.29921e-218
5.03813e-217
3.06497e-216
1.86107e-215
1.1278e-214
6.82068e-214
4.11672e-213
2.4797e-212
1.49063e-211
8.94254e-211
5.35391e-210
3.19888e-209
1.9074e-208
1.135e-207
6.74004e-207
3.99428e-206
2.36223e-205
1.39415e-204
8.2111e-204
4.82608e-203
2.83065e-202
1.65682e-201
9.67745e-201
5.64078e-200
3.28102e-199
1.90444e-198
1.1031e-197
6.37595e-197
3.67755e-196
2.11668e-195
1.21571e-194
6.96755e-194
3.9848e-193
2.27408e-192
1.29501e-191
7.35889e-191
4.1727e-190
2.36094e-189
1.33296e-188
7.50943e-188
4.22139e-187
2.36788e-186
1.32531e-185
7.40161e-185
4.12462e-184
2.29345e-183
1.27244e-182
7.04418e-182
3.89101e-181
2.14453e-180
1.17934e-179
6.4711e-179
3.54282e-178
1.9353e-177
1.05481e-176
5.73622e-176
3.11242e-175
1.68496e-174
9.10124e-174
4.90485e-173
2.63732e-172
1.41485e-171
7.57299e-171
4.04417e-170
2.15474e-169
1.14541e-168
6.0747e-168
3.21429e-167
1.69683e-166
8.93685e-166
4.6959e-165
2.46172e-164
1.28749e-163
6.71782e-163
3.49698e-162
1.81607e-161
9.4091e-161
4.86333e-160
2.50778e-159
1.29006e-158
6.62056e-158
3.38954e-157
1.73119e-156
8.82074e-156
4.48352e-155
2.27344e-154
1.15e-153
5.80302e-153
2.92116e-152
1.46689e-151
7.34811e-151
3.67189e-150
1.83035e-149
9.10145e-149
4.51453e-148
2.23377e-147
1.10252e-146
5.42815e-146
2.66584e-145
1.30596e-144
6.38166e-144
3.11061e-143
1.51239e-142
7.33469e-142
3.54813e-141
1.71204e-140
8.23987e-140
3.95565e-139
1.8941e-138
9.04632e-138
4.30946e-137
2.04763e-136
9.70415e-136
4.58707e-135
2.16264e-134
1.01695e-133
4.76955e-133
2.23109e-132
1.04091e-131
4.84357e-131
2.24786e-130
1.04045e-129
4.80307e-129
2.21136e-128
1.0154e-127
4.65002e-127
2.12375e-126
9.67347e-126
4.39428e-125
1.99075e-124
8.99428e-124
4.05259e-123
1.82101e-122
8.16027e-122
3.64672e-121
1.62519e-120
7.22286e-120
3.20118e-119
1.41483e-118
6.23578e-118
2.74072e-117
1.20122e-116
5.25002e-116
2.28811e-115
9.94412e-115
4.3095e-114
1.86232e-113
8.025e-113
3.44823e-112
1.47742e-111
6.31196e-111
2.6889e-110
1.14217e-109
4.83759e-109
2.04299e-108
8.60278e-108
3.61196e-107
1.51208e-106
6.31149e-106
2.62669e-105
1.08994e-104
4.50931e-104
1.86006e-103
7.64979e-103
3.13671e-102
1.28232e-101
5.22654e-101
2.12384e-100
8.60432e-100
3.47531e-99
1.39943e-98
5.618e-98
2.24846e-97
8.97128e-97
3.56852e-96
1.41508e-95
5.59408e-95
2.20459e-94
8.66113e-94
3.39207e-93
1.32432e-92
5.15415e-92
1.99964e-91
7.73347e-91
2.98139e-90
1.14573e-89
4.38894e-89
1.6759e-88
6.37882e-88
2.42011e-87
9.15225e-87
3.44995e-86
1.29625e-85
4.85451e-85
1.81211e-84
6.74214e-84
2.50025e-83
9.24134e-83
3.40447e-82
1.25003e-81
4.57453e-81
1.66848e-80
6.06512e-80
2.19734e-79
7.93397e-79
2.85505e-78
1.02391e-77
3.65961e-77
1.30353e-76
4.62723e-76
1.63692e-75
5.77079e-75
2.02741e-74
7.09807e-74
2.47643e-73
8.60987e-73
2.98294e-72
1.02983e-71
3.54287e-71
1.21453e-70
4.14877e-70
1.41216e-69
4.78958e-69
1.61865e-68
5.45066e-68
1.82885e-67
6.11411e-67
2.03663e-66
6.75942e-66
2.23521e-65
7.36438e-65
2.41744e-64
7.90625e-64
2.57619e-63
8.36317e-63
2.70486e-62
8.71555e-62
2.79778e-61
8.94743e-61
2.85063e-60
9.0477e-60
2.86077e-59
9.01095e-59
2.82745e-58
8.83793e-58
2.7519e-57
8.53559e-57
2.63724e-56
8.1166e-56
2.48829e-55
7.59847e-55
2.31123e-54
7.00235e-54
2.11313e-53
6.35156e-53
1.90153e-52
5.67008e-52
1.68395e-51
4.98105e-51
1.46743e-50
4.30556e-50
1.25816e-49
3.66156e-49
1.06125e-48
3.06323e-48
8.80545e-48
2.52072e-47
7.18607e-47
2.04008e-46
5.76747e-46
1.62368e-45
4.5518e-45
1.27066e-44
3.53211e-44
9.7766e-44
2.69455e-43
7.3947e-43
2.02063e-42
5.49765e-42
1.48931e-41
4.01702e-41
1.07877e-40
2.88436e-40
7.67823e-40
2.03497e-39
5.36948e-39
1.41051e-38
3.68881e-38
9.604e-38
2.48925e-37
6.42287e-37
1.64978e-36
4.21843e-36
1.07374e-35
2.7206e-35
6.86178e-35
1.72271e-34
4.30507e-34
1.07087e-33
2.65138e-33
6.53404e-33
1.60272e-32
3.91284e-32
9.50775e-32
2.29936e-31
5.53445e-31
1.32578e-30
3.16075e-30
7.49938e-30
1.77079e-29
4.16112e-29
9.73073e-29
2.26447e-28
5.24404e-28
1.20847e-27
2.77121e-27
6.3235e-27
1.4358e-26
3.24394e-26
7.29263e-26
1.63125e-25
3.63058e-25
8.03972e-25
1.77137e-24
3.88305e-24
8.46884e-24
1.83762e-23
3.96697e-23
8.51976e-23
1.82034e-22
3.86926e-22
8.18173e-22
1.72106e-21
3.60141e-21
7.49668e-21
1.5523e-20
3.19733e-20
6.55078e-20
1.33502e-19
2.70621e-19
5.45643e-19
1.09426e-18
2.18268e-18
4.33021e-18
8.54417e-18
1.67674e-17
3.27256e-17
6.35226e-17
1.22625e-16
2.35417e-16
4.49459e-16
8.53359e-16
1.61122e-15
3.02518e-15
5.64825e-15
1.04866e-14
1.93602e-14
3.55408e-14
6.48756e-14
1.17751e-13
2.12506e-13
3.81322e-13
6.80331e-13
1.20684e-12
2.1285e-12
3.73235e-12
6.50686e-12
1.1278e-11
1.94339e-11
3.32926e-11
5.67005e-11
9.6e-11
1.61583e-10
2.70366e-10
4.49712e-10
7.43596e-10
1.22223e-09
1.997e-09
3.24342e-09
5.23629e-09
8.403e-09
1.34038e-08
2.12521e-08
3.34926e-08
5.24642e-08
8.16845e-08
1.26408e-07
1.94429e-07
2.97231e-07
4.51618e-07
6.82005e-07
1.02362e-06
1.52693e-06
2.26374e-06
3.33547e-06
4.88435e-06
7.10841e-06
1.02814e-05
1.47789e-05
2.11124e-05
2.99737e-05
4.22907e-05
5.92997e-05
8.26342e-05
0.000114437
0.000157497
0.000215414
0.000292802
0.000395523
0.000530967
0.000708375
0.000939205
0.00123754
0.00162056
0.00210901
0.00272774
0.00350626
0.00447924
0.00568709
0.00717641
0.00900039
0.0112192
0.0138999
0.0171169
0.0209512
0.0254902
0.030827
0.037059
0.0442868
0.0526123
0.0621369
0.0729586
0.0851701
0.0988554
0.114087
0.130924
0.149408
0.16956
0.191379
0.214842
0.239898
0.266472
0.294461
0.323738
0.35415
0.385525
0.417669
0.450373
0.48342
0.51658
0.549627
0.582331
0.614475
0.64585
0.676262
0.705539
0.733528
0.760102
0.785158
0.808621
0.83044
0.850592
0.869076
0.885913
0.901145
0.91483
0.927041
0.937863
0.947388
0.955713
0.962941
0.969173
0.97451
0.979049
0.982883
0.9861
0.988781
0.991
0.992824
0.994313
0.995521
0.996494
0.997272
0.997891
0.998379
0.998762
0.999061
0.999291
0.999469
0.999604
0.999707
0.999784
0.999841
0.999883
0.999914
0.999936
0.999951
0.99996
0.999964
0.999964
0.99996
0.999951
0.999936
0.999914
0.999883
0.999841
0.999784
0.999707
0.999604
0.999469
0.999291
0.999061
0.998762
0.998379
0.997891
0.997272
0.996494
0.995521
0.994313
0.992824
0.991
0.988781
0.9861
0.982883
0.979049
0.97451
0.969173
0.962941
0.955713
0.947388
0.937863
0.927041
0.91483
0.901145
0.885913
0.869076
0.850592
0.83044
0.808621
0.785158
0.760102
0.733528
0.705539
0.676262
0.64585
0.614475
0.582331
0.549627
0.51658
0.48342
0.450373
0.417669
0.385525
0.35415
0.323738
0.294461
0.266472
0.239898
0.214842
0.191379
0.16956
0.149408
0.130924
0.114087
0.0988554
0.0851701
0.0729586
0.0621369
0.0526123
0.0442868
0.037059
0.030827
0.0254902
0.0209512
0.0171169
0.0138999
0.0112192
0.00900039
0.00717641
0.00568709
0.00447924
0.00350626
0.00272774
0.00210901
0.00162056
0.00123754
0.000939205
0.000708375
0.000530967
0.000395523
0.000292802
0.000215414
0.000157497
0.000114437
8.26342e-05
5.92997e-05
4.22907e-05
2.99737e-05
2.11124e-05
1.47789e-05
1.02814e-05
7.10841e-06
4.88435e-06
3.33547e-06
2.26374e-06
1.52693e-06
1.02362e-06
6.82005e-07
4.51618e-07
2.97231e-07
1.94429e-07
1.26408e-07
8.16845e-08
5.24642e-08
3.34926e-08
2.12521e-08
1.34038e-08
8.403e-09
5.23629e-09
3.24342e-09
1.997e-09
1.22223e-09
7.43596e-10
4.49712e-10
2.70366e-10
1.61583e-10
9.6e-11
5.67005e-11
3.32926e-11
1.94339e-11
1.1278e-11
6.50686e-12
3.73235e-12
2.1285e-12
1.20684e-12
6.80331e-13
3.81322e-13
2.12506e-13
1.17751e-13
6.48756e-14
3.55408e-14
1.93602e-14
1.04866e-14
5.64825e-15
3.02518e-15
1.61122e-15
8.53359e-16
4.49459e-16
2.35417e-16
1.22625e-16
6.35226e-17
3.27256e-17
1.67674e-17
8.54417e-18
4.33021e-18
2.18268e-18
1.09426e-18
5.45643e-19
2.70621e-19
1.33502e-19
6.55078e-20
3.19733e-20
1.5523e-20
7.49668e-21
3.60141e-21
1.72106e-21
8.18173e-22
3.86926e-22
1.82034e-22
8.51976e-23
3.96697e-23
1.83762e-23
8.46884e-24
3.88305e-24
1.77137e-24
8.03972e-25
3.63058e-25
1.63125e-25
7.29263e-26
3.24394e-26
1.4358e-26
6.3235e-27
2.77121e-27
1.20847e-27
5.24404e-28
2.26447e-28
9.73073e-29
4.16112e-29
1.77079e-29
7.49938e-30
3.16075e-30
1.32578e-30
5.53445e-31
2.29936e-31
9.50775e-32
3.91284e-32
1.60272e-32
6.53404e-33
2.65138e-33
1.07087e-33
4.30507e-34
1.72271e-34
6.86178e-35
2.7206e-35
1.07374e-35
4.21843e-36
1.64978e-36
6.42287e-37
2.48925e-37
9.604e-38
3.68881e-38
1.41051e-38
5.36948e-39
2.03497e-39
7.67823e-40
2.88436e-40
1.07877e-40
4.01702e-41
1.48931e-41
5.49765e-42
2.02063e-42
7.3947e-43
2.69455e-43
9.7766e-44
3.53211e-44
1.27066e-44
4.5518e-45
1.62368e-45
5.76747e-46
2.04008e-46
7.18607e-47
2.52072e-47
8.80545e-48
3.06323e-48
1.06125e-48
3.66156e-49
1.25816e-49
4.30556e-50
1.46743e-50
4.98105e-51
1.68395e-51
5.67008e-52
1.90153e-52
6.35156e-53
2.11313e-53
7.00235e-54
2.31123e-54
7.59847e-55
2.48829e-55
8.1166e-56
2.63724e-56
8.53559e-57
2.7519e-57
8.83793e-58
2.82745e-58
9.01095e-59
2.86077e-59
9.0477e-60
2.85063e-60
8.94743e-61
2.79778e-61
8.71555e-62
2.70486e-62
8.36317e-63
2.57619e-63
7.90625e-64
2.41744e-64
7.36438e-65
2.23521e-65
6.75942e-66
2.03663e-66
6.11411e-67
1.82885e-67
5.45066e-68
1.61865e-68
4.78958e-69
1.41216e-69
4.14877e-70
1.21453e-70
3.54287e-71
1.02983e-71
2.98294e-72
8.60987e-73
2.47643e-73
7.09807e-74
2.02741e-74
5.77079e-75
1.63692e-75
4.62723e-76
1.30353e-76
3.65961e-77
1.02391e-77
2.85505e-78
7.93397e-79
2.19734e-79
6.06512e-80
1.66848e-80
4.57453e-81
1.25003e-81
3.40447e-82
9.24134e-83
2.50025e-83
6.74214e-84
1.81211e-84
4.85451e-85
1.29625e-85
3.44995e-86
9.15225e-87
2.42011e-87
6.37882e-88
1.6759e-88
4.38894e-89
1.14573e-89
2.98139e-90
7.73347e-91
1.99964e-91
5.15415e-92
1.32432e-92
3.39207e-93
8.66113e-94
2.20459e-94
5.59408e-95
1.41508e-95
3.56852e-96
8.97128e-97
2.24846e-97
5.618e-98
1.39943e-98
3.47531e-99
8.60432e-100
2.12384e-100
5.22654e-101
1.28232e-101
3.13671e-102
7.64979e-103
1.86006e-103
4.50931e-104
1.08994e-104
2.62669e-105
6.31149e-106
1.51208e-106
3.61196e-107
8.60278e-108
2.04299e-108
4.83759e-109
1.14217e-109
2.6889e-110
6.31196e-111
1.47742e-111
3.44823e-112
8.025e-113
1.86232e-113
4.3095e-114
9.94412e-115
2.28811e-115
5.25002e-116
1.20122e-116
2.74072e-117
6.23578e-118
1.41483e-118
3.20118e-119
7.22286e-120
1.62519e-120
3.64672e-121
8.16027e-122
1.82101e-122
4.05259e-123
8.99428e-124
1.99075e-124
4.39428e-125
9.67347e-126
2.12375e-126
4.65002e-127
1.0154e-127
2.21136e-128
4.80307e-129
1.04045e-129
2.24786e-130
4.84357e-131
1.04091e-131
2.23109e-132
4.76955e-133
1.01695e-133
2.16264e-134
4.58707e-135
9.70415e-136
2.04763e-136
4.30946e-137
9.04632e-138
1.8941e-138
3.95565e-139
8.23987e-140
1.71204e-140
3.54813e-141
7.33469e-142
1.51239e-142
3.11061e-143
6.38166e-144
1.30596e-144
2.66584e-145
5.42815e-146
1.10252e-146
2.23377e-147
4.51453e-148
9.10145e-149
1.83035e-149
3.67189e-150
7.34811e-151
1.46689e-151
2.92116e-152
5.80302e-153
1.15e-153
2.27344e-154
4.48352e-155
8.82074e-156
1.73119e-156
3.38954e-157
6.62056e-158
1.29006e-158
2.50778e-159
4.86333e-160
9.4091e-161
1.81607e-161
3.49698e-162
6.71782e-163
1.28749e-163
2.46172e-164
4.6959e-165
8.93685e-166
1.69683e-166
3.21429e-167
6.0747e-168
1.14541e-168
2.15474e-169
4.04417e-170
7.57299e-171
1.41485e-171
2.63732e-172
4.90485e-173
9.10124e-174
1.68496e-174
3.11242e-175
5.73622e-176
1.05481e-176
1.9353e-177
3.54282e-178
6.4711e-179
1.17934e-179
2.14453e-180
3.89101e-181
7.04418e-182
1.27244e-182
2.29345e-183
4.12462e-184
7.40161e-185
1.32531e-185
2.36788e-186
4.22139e-187
7.50943e-188
1.33296e-188
2.36094e-189
4.1727e-190
7.35889e-191
1.29501e-191
2.27408e-192
3.9848e-193
6.96755e-194
1.21571e-194
2.11668e-195
3.67755e-196
6.37595e-197
1.1031e-197
1.90444e-198
3.28102e-199
5.64078e-200
9.67745e-201
1.65682e-201
2.83065e-202
4.82608e-203
8.2111e-204
1.39415e-204
2.36223e-205
3.99428e-206
6.74004e-207
1.135e-207
1.9074e-208
3.19888e-209
5.35391e-210
8.94254e-211
1.49063e-211
2.4797e-212
4.11672e-213
6.82068e-214
1.1278e-214
1.86107e-215
3.06497e-216
5.03813e-217
8.29921e-218
1.57374e-218
)
;

boundaryField
{
    sides
    {
        type            zeroGradient;
    }
    empty
    {
        type            empty;
    }
}


// ************************************************************************* //
