/*--------------------------------*- C++ -*----------------------------------*\
  =========                 |
  \\      /  F ield         | OpenFOAM: The Open Source CFD Toolbox
   \\    /   O peration     | Website:  https://openfoam.org
    \\  /    A nd           | Version:  13
     \\/     M anipulation  |
\*---------------------------------------------------------------------------*/
FoamFile
{
    format      ascii;
    class       volScalarField;
    location    "22";
    object      p;
}
// * * * * * * * * * * * * * * * * * * * * * * * * * * * * * * * * * * * * * //

dimensions      [0 2 -2 0 0 0 0];

internalField   nonuniform List<scalar> 
918
(
0.230569
0.910862
0.0198893
0.229779
-0.000959654
0.877979
-0.831403
0.405658
0.210679
-0.44382
-0.231043
0.201076
0.738423
0.505367
-1.46049
-0.0203503
0.362465
-0.712821
0.209467
-0.00100449
0.477286
0.217314
0.220336
0.210908
0.271263
0.494511
0.619011
0.00979978
0.00222211
0.00234554
0.0012918
-0.012736
-0.0122254
0.761602
0.812716
0.835383
0.179371
0.00388165
-0.68275
-0.757582
-0.744638
-0.881027
0.396037
0.400723
-0.487627
0.407416
0.422493
0.198107
0.209969
0.210843
0.2121
0.210993
0.212402
0.157414
-0.443461
-0.475099
-0.437996
-0.443619
-0.18798
-0.286685
-0.33672
-0.191981
-0.14879
0.135426
0.198096
0.195365
0.205474
0.215247
0.850413
0.822296
0.848444
0.762198
0.778692
0.71636
0.68893
0.525479
0.54701
0.491527
0.481542
-1.90461
-2.87903
-0.857923
-0.598572
0.000149656
-0.0281518
-0.0324498
0.349425
0.355228
0.359994
0.374934
0.765008
-0.706009
-0.850147
0.209664
0.208444
0.21692
0.217616
0.213605
0.212726
0.00581117
-0.00016958
-0.00926269
0.00331851
-0.00303908
0.461178
0.454598
0.211464
0.208515
0.223287
0.245446
0.234641
-0.0215897
0.281075
0.301638
0.302675
0.478461
0.475188
0.482893
0.592352
0.555803
0.656382
0.679509
0.011725
0.00428272
-0.0224183
-0.0151359
-0.0193927
0.175831
0.169138
0.193306
0.182767
0.185141
-0.0801112
-0.215733
0.0879363
0.111147
-0.589475
-0.656872
-0.769447
-0.780926
-0.893082
0.239798
0.386596
0.389601
-0.505144
-0.422268
-0.566576
-0.34727
-0.416291
0.188695
0.195403
0.190548
0.205714
0.200349
0.202273
0.214196
0.211273
0.212856
0.205264
0.322098
0.0905066
0.075898
-0.573234
-0.477042
-0.560344
-0.445105
-0.438514
-0.161299
-0.146293
-0.187314
-0.175337
-0.439449
-0.391261
-0.41267
-0.108599
-0.0756689
0.128015
0.119054
0.146081
0.151995
0.190151
0.190852
0.193416
0.191699
0.63958
0.66187
0.669538
0.643345
-3.89219
-6.71983
-0.264124
-0.121102
0.00229895
0.00412445
0.0039541
0.00624366
0.00123192
-0.00165243
-0.118635
-0.0964365
-0.0468836
-0.0626884
0.336678
0.33932
0.679342
0.671712
0.66552
0.618781
0.197819
0.19993
0.205333
0.201205
-0.0421561
-0.00989049
-0.0244546
0.42306
0.441754
0.437989
-0.0567481
-0.143016
0.0246284
0.0518068
0.32262
0.306107
0.323013
0.365269
0.403249
0.686961
0.705381
0.70355
0.712155
0.756197
0.772612
0.737957
0.156732
0.166429
0.161609
0.196856
0.194331
0.195537
0.190413
0.192208
0.189499
-0.369602
-0.757001
0.174252
0.19277
0.1542
0.161947
0.326475
0.394066
0.371529
0.378935
0.382685
-0.282746
-0.346419
0.00392993
-0.0406976
0.0771913
0.10842
0.092311
0.610711
0.571352
0.621313
0.594572
0.55616
0.581395
-0.708865
-2.23945
-1.34087
0.243301
0.0489195
0.139996
-0.15555
-0.179654
-0.156149
0.655377
0.734516
0.364009
0.523561
0.542388
0.444885
0.475631
0.528982
0.454365
0.488703
0.524478
0.50582
0.196264
0.177586
0.168979
0.458362
0.515376
-0.169744
-0.220707
-0.273281
-0.134705
-0.0735791
-0.10619
0.705737
0.580843
0.662493
0.208307
0.20898
0.0115135
0.0144257
0.212967
0.212976
0.00576419
-0.00213842
0.121338
-1.17258
-0.180455
0.201214
0.19197
0.208596
-0.408926
0.0971594
-0.297771
-0.244939
-0.0899997
0.19872
0.144758
0.111604
0.00807275
-0.00484022
-0.0133664
-0.520574
0.20594
0.204228
0.208119
0.209129
0.209795
0.00734153
0.00767095
0.00605382
-0.00491104
0.00333985
0.00260607
0.174047
0.18957
-0.477998
0.208198
0.210402
0.210152
0.203063
0.208871
0.20705
-0.00104171
-0.00256757
-0.0154853
-0.0702215
0.0449125
0.377878
0.483862
0.333642
0.104106
-0.14053
0.27316
0.34208
0.239557
0.405848
0.374197
0.39495
-0.120506
-0.26678
-0.110484
-0.165101
0.199258
0.197963
0.190122
0.187305
0.203678
0.201833
0.206117
0.202984
0.205959
0.207488
-0.391274
-0.421666
-0.403599
-0.461719
0.050861
0.300321
-0.0107823
0.0657136
-0.133384
-0.266602
-0.199352
-0.381832
-0.41094
-0.551597
-0.145368
-0.230067
-0.269977
-0.0259033
-0.15481
-0.374859
-0.228124
-0.284562
0.193106
0.191115
0.199022
0.205752
0.152631
0.154753
0.1272
0.14388
0.130867
0.0767153
0.109685
0.0873451
0.00626684
0.0101919
0.0048176
-0.00416783
-0.017865
0.00443143
0.00974504
0.0149882
0.000865027
0.000623343
-0.0170521
-0.0120963
-0.481984
-0.594623
0.654177
0.620717
-0.208481
0.195127
0.201514
0.198318
0.203325
0.206237
0.206979
0.204747
0.201413
0.190434
0.192412
0.188156
0.188928
-0.421289
-0.556936
-0.378292
-0.443183
-0.189888
0.312699
0.0575163
-0.00146121
-0.00560934
0.205193
0.603169
0.410289
0.43533
0.461158
-0.671003
-0.267436
-0.600447
0.0193629
-0.162167
0.374334
0.42757
0.451669
0.396959
0.345774
-0.44326
0.209471
-0.361923
-0.319192
-0.130796
-0.231742
0.421277
0.358033
0.364557
0.385196
0.407683
0.36339
0.341484
0.338638
0.376591
0.380969
0.178489
-0.0381386
-0.0838096
-0.119809
0.344648
0.217844
0.271494
0.190454
0.194107
0.196931
0.195462
0.178792
0.18573
0.181684
0.187219
0.1899
0.199342
0.199465
0.195064
0.197216
-0.422123
-0.427642
-0.380374
-0.444807
-0.448623
-0.491266
-0.404993
-0.200492
-0.231122
-0.0737201
0.03029
-0.247355
-0.387905
-0.357651
-0.330901
-0.121815
-0.0987706
-0.329169
-0.137213
-0.174023
-0.223374
-0.0183996
-0.0212878
-0.453239
-0.542476
-0.522797
-0.451581
-0.246269
-0.203627
-0.17286
-0.174246
-0.312601
-0.159702
-0.0974241
-0.486593
-0.557096
-0.54603
-0.45297
0.0018625
-0.00517044
-0.0177389
-0.0664355
-0.0443111
-0.0691557
0.188858
0.189274
0.189421
0.20239
0.214263
0.229512
0.195328
0.171718
0.165073
0.167074
0.142994
0.151696
0.147882
0.160175
0.178611
0.185609
0.185254
0.187248
0.171872
0.172401
0.161999
0.165644
0.143712
0.126831
0.116643
0.00364986
0.005055
0.00278062
-0.00469522
0.00915682
0.00513796
-0.0497716
-0.0139275
-0.0258397
-0.0215023
-0.0686764
0.0139132
0.00767138
-0.402307
-0.328881
-0.508417
-0.536322
-0.606705
0.562872
0.674627
0.508731
0.28724
0.286802
0.513541
0.610723
0.265257
0.435284
0.465472
0.202181
0.473173
0.200083
0.199377
0.196816
0.196395
0.197772
-0.333877
-0.238574
-0.224398
-0.173512
-0.0606023
0.0535814
-0.0381359
-0.152013
-0.0119311
-0.00193434
0.30745
0.323314
0.267144
0.292911
0.293101
0.118964
0.194266
0.247913
0.20473
0.247614
0.26946
0.230896
0.260882
0.207925
0.167082
0.16623
0.113679
0.133559
0.111523
0.0945497
0.190026
0.169303
0.178333
0.171625
0.190713
0.218178
0.213495
0.237241
0.25
0.176403
0.139341
0.147831
0.174264
0.138284
0.150706
0.164713
-0.127014
-0.224675
-0.135474
-0.428861
-0.336045
-0.351948
-0.397546
-0.361514
-0.0744302
-0.778987
-0.7447
-1.3829
0.143722
0.631665
0.376569
0.349897
0.40585
0.38329
0.386784
0.418424
0.423911
0.334857
0.350801
0.355969
0.30401
0.328985
0.360637
0.356141
0.188966
0.0701765
0.0594394
0.0236084
-0.0962066
-0.0665176
0.134386
0.0585478
-0.0125557
-0.00681082
0.154188
0.0476826
0.109761
0.147759
0.0807927
0.0400454
0.234888
0.302605
0.292577
0.266626
0.182048
0.193731
0.21906
0.255167
0.280415
0.314738
0.186489
0.192354
0.193644
0.191345
0.188792
0.191434
0.191384
0.193958
0.194903
0.197595
0.196636
-0.467628
-0.510795
-0.44432
-0.455616
-0.397368
-0.372743
-0.279358
-0.32936
-0.485621
-0.448286
-0.42376
-0.431386
-0.459138
-0.482649
-0.203708
-0.192523
-0.178365
-0.237253
-0.0483023
0.0875085
0.144711
0.0268741
-0.071985
-0.0371328
-0.0142524
-0.464292
-0.383553
-0.518543
-0.362047
-0.392759
-0.276241
-0.214134
-0.230216
-0.32031
-0.339907
-0.149132
-0.0241072
-0.0496862
-0.072417
-0.0529214
-0.0317466
0.17523
0.170189
0.16863
0.164184
0.163346
0.174498
0.17901
0.181438
0.186776
0.187756
0.179114
0.183274
0.186468
-0.0166727
0.00900224
0.0104564
-0.035175
-0.0055269
0.00418389
-0.0115673
-0.204664
-0.282248
-0.282746
-0.320985
-0.451225
-0.393311
0.139433
0.120783
0.144872
0.351165
0.211081
0.125988
0.199777
0.310662
-0.0519673
0.134197
-0.0294706
0.537062
0.426048
0.565613
0.209385
-0.102197
0.0435435
0.0982325
-0.099391
-0.0247749
-0.00121189
-0.112334
-0.0788461
-0.051072
0.04901
-0.0771898
-0.108732
-0.354181
-0.171396
-0.0371589
-0.0572362
0.070516
0.131884
-0.0921659
-0.172433
-0.209265
0.29694
0.316485
0.333088
0.305046
0.328809
0.253026
0.244583
0.263213
0.274066
0.267105
-1.11404
-0.825001
-1.76566
-1.07508
-0.629345
0.173349
0.129613
0.424322
0.315224
0.395879
0.377149
0.336118
0.297314
0.307591
0.345744
0.0468481
0.15348
0.127772
0.136952
0.0417325
-0.0241368
0.26964
0.264146
0.299768
0.323551
0.292987
0.325463
0.184882
0.18453
0.183544
0.180856
0.179241
0.181155
-0.322106
-0.397777
-0.259085
-0.276743
-0.32552
-0.379274
-0.022175
-0.0489658
-0.0445188
-0.0357471
0.00216603
-0.0247625
-0.179154
-0.233582
-0.301022
-0.272261
-0.335262
-0.402021
-0.423425
-0.317246
-0.226283
-0.234946
0.0710906
0.319623
0.147971
0.312289
0.14427
0.204463
0.144203
0.135894
0.171103
0.038739
0.115621
-0.139745
-0.637825
-0.545848
0.433736
0.455251
0.236238
0.041302
-0.181831
0.0167528
0.217721
0.15681
0.196934
0.263659
0.256678
-0.347387
-0.271705
-0.0391748
0.188152
-0.116381
-0.123345
-0.127506
0.0362783
-0.0309695
)
;

boundaryField
{
    wall-4
    {
        type            zeroGradient;
    }
    velocity-inlet-5
    {
        type            zeroGradient;
    }
    velocity-inlet-6
    {
        type            zeroGradient;
    }
    pressure-outlet-7
    {
        type            fixedValue;
        value           uniform 0;
    }
    wall-8
    {
        type            zeroGradient;
    }
    frontAndBackPlanes
    {
        type            empty;
    }
}


// ************************************************************************* //
