/*--------------------------------*- C++ -*----------------------------------*\
  =========                 |
  \\      /  F ield         | OpenFOAM: The Open Source CFD Toolbox
   \\    /   O peration     | Website:  https://openfoam.org
    \\  /    A nd           | Version:  13
     \\/     M anipulation  |
\*---------------------------------------------------------------------------*/
FoamFile
{
    format      ascii;
    class       surfaceScalarField;
    location    "22";
    object      phi;
}
// * * * * * * * * * * * * * * * * * * * * * * * * * * * * * * * * * * * * * //

dimensions      [0 3 -1 0 0 0 0];

internalField   nonuniform List<scalar> 
1300
(
3.75095
5.62643
-5.87492
3.75095
-5.81024
5.62643
-4.53396
4.53396
-1.20019
1.20019
1.87662
1.87434
-2.8717
2.8717
-3.06223
3.06223
-2.61313
2.61313
-5.24649
5.24649
-5.0686
5.0686
4.68272
-4.68272
-4.69093
4.69093
-1.65648
1.65648
-3.89572
3.89572
3.17039
-3.17039
-4.4247
4.4247
-0.406747
0.406747
-0.553452
4.30441
3.1975
3.1975
-2.30843
2.30843
-4.85598
4.85598
6.21834
-6.21834
8.89301
-8.89301
-3.0181
-3.42797
1.3411
-8.33427
-4.46914
-4.46914
-8.44041
8.44041
-2.81398
2.81245
2.94333
-2.94333
-1.76684
1.76684
-4.4655
-0.0684601
-4.4655
4.53745
-0.00349213
4.53745
-1.33611
0.135923
-1.33611
3.996
-3.996
1.03941
0.160777
1.03941
3.0643
-3.0643
-1.87696
3.75358
1.87399
-1.87167
6.17608
-1.87928
3.75362
-5.87711
5.87711
-3.1361
0.264395
-3.1361
2.595
0.276702
2.595
-5.40969
5.40969
-2.61977
-0.442463
-2.61977
3.50482
-0.442587
3.50482
2.85785
-2.85785
-2.66381
0.0506852
-2.66381
2.56067
0.0524564
2.56067
0.353564
5.27287
-5.97999
8.79245
-5.27287
0.0263714
5.20852
0.0379768
5.20852
-5.10614
0.0375385
-5.10614
5.00962
0.0589774
5.00962
4.77738
-0.0946606
4.77738
-4.79537
0.112645
-4.79537
-3.32559
-3.56196
-4.77579
0.0848564
-4.77579
-1.66117
0.00469588
-1.66117
1.64226
0.0142156
1.64226
-3.49887
3.49887
-4.30632
0.410595
-4.30632
3.12503
0.0453529
3.12503
1.86851
1.88244
5.61947
-5.61947
2.44908
-4.30255
-0.122148
-4.30255
-4.54693
-4.34609
4.54693
-0.12223
-0.687673
0.280926
-0.687673
3.15932
0.0381849
3.15932
2.47505
0.0856225
-2.47505
0.166615
3.31153
-3.31153
1.68317
0.625262
1.68317
-5.56915
5.56915
4.9505
0.0591277
-4.9505
0.0945135
6.1574
0.0609463
6.1574
-6.19958
-0.018759
-6.19958
3.30154
-6.72951
-3.48984
4.57269
0.118243
-4.57269
0.103549
2.91208
0.0312488
2.91208
-2.92384
2.92384
-2.98154
0.0382156
-2.98154
-2.18099
0.414153
-2.18099
1.4494
0.317446
1.4494
-4.3226
-0.142903
-4.3226
-4.4649
0.158577
4.4649
0.0725564
0.966018
-0.966018
-1.47245
0.136338
-1.47245
-4.14719
-0.175407
4.14719
-0.151192
-3.8848
-0.111196
-3.8848
-3.02263
0.0410884
3.02263
0.0416694
3.11214
0.0471732
-3.11214
0.0478411
-1.8709
3.75334
-1.88005
3.75404
-5.46585
-0.411254
-5.46585
6.18533
-0.30822
6.18533
3.51327
0.382457
-3.51327
0.377167
2.4036
0.191407
2.4036
-5.84146
0.431771
-5.84146
5.06572
0.343978
5.06572
2.38441
0.0191814
-2.38441
-0.235358
3.85243
-0.347612
3.85243
2.90205
-0.0441949
2.90205
-2.84553
-0.0123172
-2.84553
2.80016
-2.80016
2.72809
0.0720722
-2.72809
0.0642754
-11.1328
11.1141
-0.035194
-11.0976
5.17332
5.17332
4.2062
0.571184
4.2062
-5.00628
0.210912
-5.00628
3.26602
-6.75585
3.53211
-6.8577
3.53503
-11.8693
3.37687
-6.93883
4.90351
-4.90351
4.83826
0.0652452
-4.83826
0.062478
-1.68543
0.0242584
-1.68543
-2.88473
-0.614141
-2.88473
4.1564
-0.657534
4.1564
-3.03129
3.03129
-3.07927
0.0479809
3.07927
0.0457587
4.1232
-0.270762
-4.1232
-0.179353
0.873738
0.165674
-0.873738
0.186064
3.52511
-0.213573
3.52511
-3.11358
-0.197951
-3.11358
-1.68997
0.00453972
1.68997
-0.00679966
-5.81748
0.248329
-5.81748
-11.1906
0.0930046
-11.1526
-6.10658
-6.10658
2.33383
11.1263
-2.87408
0.0285464
2.87408
0.0379987
2.97934
0.0519528
-2.97934
0.0554974
-2.86562
0.0654563
2.86562
0.0582264
-2.56701
0.386014
-2.56701
-1.03358
1.03358
-1.21975
0.186168
1.21975
0.229644
1.21652
-0.250501
1.21652
1.58195
0.0603099
-1.58195
0.109502
-3.79504
-0.0897592
-3.79504
6.22235
-0.037019
6.22235
-2.98488
-0.128702
2.98488
-0.0828333
-0.033261
11.1473
-5.14006
0.0339237
5.14006
-11.2083
11.2422
-3.24733
0.680323
3.24733
0.958867
5.29324
0.275906
-5.29324
0.286963
4.98965
0.0760666
-4.98965
0.0861406
-2.38518
-0.499551
-2.38518
-4.87497
-0.590878
4.87497
-0.718573
-11.476
-0.202645
11.6786
-11.417
6.02012
0.137273
-6.02012
11.3795
-0.926407
-0.0396113
0.926407
0.107177
1.51848
-0.30196
1.51848
3.70257
-0.177467
-3.70257
-0.0924702
-6.16124
0.31978
6.16124
0.0611016
-1.93437
-0.450802
1.93437
-0.415894
-4.26651
4.30469
1.90957
-3.21048
-3.51903
-7.55657
1.85244
1.9009
4.30152
-7.39331
-4.47599
-7.28976
7.27178
-6.98482
-9.29999
9.20532
7.52493
-7.63612
-5.78524
5.831
6.48168
-6.44001
1.87842
1.87516
7.69756
-7.43317
-15.5939
15.1826
6.34352
-6.78598
16.1375
-15.7057
-16.3173
16.3934
-5.76548
5.81616
-6.65348
6.64116
-6.84562
6.76279
-3.1138
-3.7439
9.90128
-9.81642
11.0934
-11.2156
-8.43943
8.85003
3.38251
0.922187
3.42968
-1.88238
3.7608
-1.87124
3.78081
3.55082
-6.66461
3.20504
-6.72407
5.91876
5.17465
-5.79653
-1.76004
-5.90987
5.94112
-5.82275
5.88097
8.91845
-8.98692
-1.88561
3.76077
-1.86843
3.76934
-3.42523
-2.36001
3.37988
0.921639
5.94825
3.95303
-6.06649
-1.22327
-7.73527
7.55781
-8.01693
7.81898
-0.45207
5.82374
-5.37167
4.40391
-1.55273
7.37647
5.71906
5.92997
5.86753
-5.59163
1.11729
-6.48896
-6.39445
-2.55845
2.69479
2.54503
-2.38425
5.91868
1.60624
5.76749
-5.50608
-2.13005
-5.59583
3.82087
2.01012
3.86886
4.07696
2.40472
4.11805
3.03093
-3.03584
0.00490616
-3.0559
6.08683
0.724931
-5.4159
-4.49427
4.37407
3.32349
4.65077
-5.43712
-1.99604
-5.05996
-9.44999
-6.1439
-10.0409
10.0733
5.10936
9.76505
-12.0704
12.1315
4.85083
1.49269
4.40824
-3.73472
-3.05126
-3.97008
12.6904
-1.55544
-11.135
-10.0623
-6.25503
9.71829
6.41918
9.35926
7.0341
9.4454
3.69459
8.99583
-10.1138
3.85874
-3.86813
-1.89734
-3.80386
3.74043
2.07574
3.79288
-4.17626
-2.47721
-4.14772
-4.2068
-2.63882
4.251
2.39016
-4.30471
-3.71222
4.43341
2.32938
3.32991
-7.8059
3.60892
-7.35282
-7.12526
-2.69117
-7.06278
4.44792
2.23096
-6.67888
-2.21669
10.7008
-5.52615
8.94076
-6.50985
-4.70571
-6.68921
-6.81213
-1.6273
-6.65355
-8.83607
8.33652
-9.13627
8.47873
12.7139
-5.69505
-7.01884
-3.96792
-2.47209
3.92008
-0.490401
-3.71161
3.71651
0.0491935
3.83
4.75219
4.26179
-3.88552
-1.93723
-3.83002
3.83113
2.04984
3.89658
6.75264
2.16581
6.74915
-6.39617
-2.59075
-6.53907
9.10016
-8.686
2.96813
-2.96359
5.22841
2.59056
-5.01484
-2.72043
6.05756
-3.02993
-3.02763
-12.2182
10.5882
1.63006
-4.84177
-0.437854
-0.031107
-5.51204
-3.78795
5.39939
0.530576
11.1188
7.33081
-5.51302
5.76135
6.1656
6.22472
-0.169723
5.85675
-5.17643
5.30246
-2.33367
-2.96879
5.26252
-5.43793
-1.27655
-5.23963
3.96308
0.329559
1.85161
-1.57069
-2.05307
-0.50538
-1.94357
1.55496
0.990067
1.72064
0.987922
1.70687
-2.93231
0.541462
2.39084
-1.94438
-1.84279
-3.59595
-1.03713
4.63308
5.50819
2.04962
-5.41572
-0.180116
2.72667
-2.71246
-0.721955
-2.874
2.15912
-2.88108
-3.51142
-1.92258
5.434
-3.36904
-0.460985
3.31708
0.551771
-3.8224
-2.08747
3.78418
0.333863
-3.12408
6.19333
-3.06925
-5.0613
2.52919
3.55764
4.53931
-4.78935
2.44526
2.3441
-1.23171
3.33079
1.31998
3.5222
-7.00532
5.00928
5.70938
3.14065
-6.09184
1.03188
-5.97344
8.4766
-7.26456
-1.21204
3.81639
4.66021
7.17474
5.53915
-5.76679
12.9415
-1.0462
-6.21836
7.01964
-3.87899
4.77279
-8.65178
-10.3119
4.09358
-9.57164
11.9443
-2.37265
-3.54866
-8.52175
13.1203
-1.20629
-11.914
8.55877
-5.60748
-3.26254
8.87001
-7.16292
6.3138
-2.32504
-3.98877
-10.3954
-5.31025
10.0757
2.05585
-9.2001
13.0588
-0.204269
4.61125
-0.203008
4.26364
3.89138
-6.33646
2.44508
3.27154
-5.59658
1.54671
-7.88317
-5.61473
10.198
-4.58327
-8.30589
-8.12518
-0.180712
1.38573
11.6731
-8.41982
5.67731
2.74251
3.30686
0.589727
-3.37893
-0.424927
0.34093
4.51062
-4.85155
4.13381
4.21943
3.40195
1.10868
3.81856
2.12256
-3.85656
-0.291158
-4.11744
1.47862
-1.72728
-3.64745
5.12607
-4.07112
0.423671
-2.7207
-3.56023
6.28093
-4.61804
3.04503
3.1483
5.09488
-4.95023
1.39
-2.44187
-2.50836
2.68112
-4.4084
1.95777
3.1683
4.28715
0.574932
5.40256
4.79544
-7.63352
0.280693
8.74847
-7.5252
2.47746
6.96794
-8.15478
0.0295948
-7.03318
0.668731
-6.19488
-6.01015
5.12468
-6.75198
-3.5271
6.17363
0.575515
-6.24619
-0.407365
-5.97425
-2.86183
-6.42505
-3.05227
-6.08399
-8.81906
-1.63839
-7.18068
6.69814
-6.62988
-3.41098
7.34846
1.13028
-7.35851
7.31889
-7.42764
7.12568
0.0947591
3.62175
4.35655
1.88446
-2.39004
4.2745
-5.05791
7.22373
-8.4419
3.38399
3.93008
-6.52082
-4.51183
5.03235
4.06781
5.34979
8.95455
-10.5816
1.62701
-10.8744
12.1614
-1.287
-16.6472
5.77284
-7.69268
2.70483
0.263302
2.72909
0.677057
2.41294
-3.08999
-2.28653
-2.29333
-2.277
-3.33076
5.60777
1.1206
-3.33123
2.21062
-3.45926
4.57986
-0.0778112
-3.25341
5.2325
-2.81956
5.4958
-3.53707
1.95874
3.23799
5.53042
-2.29243
4.26661
-1.67604
1.78459
-4.07702
-1.54617
-3.01867
5.0944
-3.26226
3.68593
-0.242849
3.92878
-4.01391
0.98398
-0.611965
3.60747
3.77408
4.20686
-3.09818
2.89779
-4.57383
-1.17924
-3.99889
-0.830598
-0.332031
-3.72784
4.05987
6.07747
-6.4095
-5.29862
9.61469
-4.31607
7.74186
-5.4285
-2.31336
-4.28658
-4.39942
3.90057
1.95619
9.69805
0.205294
-5.63379
-4.97114
-4.01227
3.24095
2.06151
-2.05535
3.68541
2.08646
-0.234841
0.56564
1.155
1.90721
-1.34157
0.229628
1.67758
-1.34106
2.00629
0.720382
-2.0666
0.123035
-1.32501
3.48413
1.06583
-2.0559
0.714329
1.06969
-3.40336
4.68918
-2.41539
-2.27379
5.75886
1.15211
-3.5675
4.08751
-3.75796
2.27203
-3.30916
-1.29547
-5.05343
-3.44718
-2.46045
4.67108
-3.14732
5.19693
1.15966
-5.01682
6.17648
-3.54036
1.61778
-3.01956
3.73994
-1.0395
-1.98006
2.75363
2.68037
-2.90354
0.0295487
-0.149915
2.3003
-2.45021
-0.580781
-2.52517
-4.57262
4.90648
-2.1066
4.55186
2.1679
-1.91289
6.46475
1.81343
-3.72632
-3.24788
-3.70886
-1.38222
3.15709
-0.820984
-3.1491
-4.80975
3.12991
0.392284
-6.94991
7.14735
-0.197445
-3.62642
-1.38286
5.19925
-5.81148
0.214904
-4.26477
2.88258
4.20256
4.59485
-11.455
-0.459022
-6.34564
1.05283
-7.39847
5.71304
-3.65782
7.75141
-10.414
7.003
-9.2837
6.53937
-0.859099
7.18024
-4.73516
3.95473
-9.26498
-7.20913
5.50254
-4.00985
5.29954
-4.65589
9.95543
-4.86016
6.80068
3.15474
-1.8471
-4.84211
-5.95145
4.10435
0.849233
5.11287
4.95007
-2.82751
4.65892
2.2267
-4.66857
-2.1817
-6.53529
1.86673
-3.387
-1.91329
3.78001
3.18159
3.77132
1.27165
-3.34639
7.67841
-7.85912
-3.09514
-2.91501
6.35113
-2.24677
4.54946
-7.46447
-1.64542
4.86855
-0.798386
-4.07017
0.826499
-4.3536
1.60625
-5.95985
5.14573
-5.5531
2.1805
-9.87319
-5.178
-5.07083
-2.23408
-5.19356
-7.64767
5.41359
-1.87483
5.44406
-8.66903
7.87064
-3.49237
8.90596
-5.37795
-1.0471
5.79384
1.33184
10.2378
0.115537
-4.62737
-1.81471
3.9418
-2.12709
1.42624
-3.61231
0.329492
2.44578
3.31309
-6.40886
-0.111966
-4.73933
-3.91648
7.98429
5.69821
11.7757
1.19412
9.19919
-1.2149
10.3933
4.13489
4.36454
-2.97479
4.6018
1.08508
4.46907
-0.858949
2.81768
1.87014
1.87483
0.837625
2.30384
1.47025
3.28782
0.197826
-2.09551
4.65744
-8.66971
-0.976351
-8.09852
1.1068
5.74476
-4.63796
3.17164
-1.11013
1.04455
0.147187
-1.77554
1.62835
-2.8216
-2.01038
-0.332798
-1.64226
2.35659
1.84187
-2.02379
-0.797808
0.312908
-3.76009
2.99626
-2.96671
-0.286341
5.89014
-2.69827
0.248061
-1.08049
-2.2771
-2.78248
2.65945
6.17568
0.289068
3.10643
5.19555
3.10808
0.280565
3.59457
-5.96722
-4.28859
-6.42625
-0.713206
4.48604
3.50626
8.16685
6.66101
4.41423
-3.05024
-10.9094
6.53929
-1.93749
5.25229
-1.18213
-4.77772
4.97811
2.24562
-5.55363
0.000528656
-4.77719
-6.71469
-0.529245
8.39988
-9.70856
8.66146
5.79963
1.38105
-4.38075
-0.690074
4.19459
0.169951
10.5633
-1.12965
-6.89648
8.02613
-4.6151
3.63875
0.892105
2.7933
2.52046
1.41032
-5.48615
-10.1241
-1.87145
-1.53191
-4.14523
0.487846
-2.32972
6.28018
-2.64143
3.96682
5.3847
6.42925
-2.18928
-4.22022
6.50534
-2.53853
3.89073
)
;

boundaryField
{
    wall-4
    {
        type            calculated;
        value           uniform 0;
    }
    velocity-inlet-5
    {
        type            calculated;
        value           uniform -3.75095;
    }
    velocity-inlet-6
    {
        type            calculated;
        value           uniform -5.62643;
    }
    pressure-outlet-7
    {
        type            calculated;
        value           nonuniform List<scalar> 8(5.87492 5.81024 6.44607 6.99316 6.88755 6.79138 6.79812 6.9119);
    }
    wall-8
    {
        type            calculated;
        value           uniform 0;
    }
    frontAndBackPlanes
    {
        type            empty;
    }
}


// ************************************************************************* //
