/*--------------------------------*- C++ -*----------------------------------*\
  =========                 |
  \\      /  F ield         | OpenFOAM: The Open Source CFD Toolbox
   \\    /   O peration     | Website:  https://openfoam.org
    \\  /    A nd           | Version:  13
     \\/     M anipulation  |
\*---------------------------------------------------------------------------*/
FoamFile
{
    format      ascii;
    class       volVectorField;
    location    "22";
    object      U;
}
// * * * * * * * * * * * * * * * * * * * * * * * * * * * * * * * * * * * * * //

dimensions      [0 1 -1 0 0 0 0];

internalField   nonuniform List<vector> 
918
(
(0.985154 -0.00052829 0)
(0.00500542 2.96625 0)
(-0.01242 1.56541 0)
(0.979695 0.002165 0)
(-0.00253284 1.54876 9.63475e-21)
(-0.00703422 2.94879 -1.86415e-18)
(0.853671 1.19671 7.31792e-19)
(0.403851 0.182953 -8.92676e-21)
(0.999905 -0.000308569 0)
(0.0707975 0.831518 0)
(-0.0596813 0.886094 0)
(0.75271 -0.0118873 0)
(0.0110959 2.93039 0)
(0.00162574 2.79484 0)
(-0.0177258 3.16705 1.08555e-18)
(-0.000586621 1.42841 2.27589e-20)
(0.520203 0.0797287 5.61635e-19)
(0.191841 1.20653 6.4119e-19)
(0.963055 0.0051316 0)
(0.0021093 1.26713 0)
(0.131504 0.240116 -4.73187e-19)
(1.00207 -0.0049902 0)
(1.00022 -0.00976573 0)
(0.97574 -0.00645283 0)
(0.663801 -0.0387344 0)
(0.0173246 2.63327 0)
(-0.0151364 2.91018 6.43586e-19)
(-0.0248558 1.57617 0)
(-0.0321116 1.71858 0)
(-0.0249005 1.56673 0)
(-0.00576074 1.86449 0)
(0.0045171 1.57184 -7.61947e-21)
(-0.000726713 1.44096 0)
(-0.0206265 2.98759 -6.51756e-23)
(-0.0167024 3.0053 1.44901e-18)
(0.00210302 3.00021 0)
(0.870783 -0.00933416 0)
(0.396044 0.933823 -3.3602e-20)
(0.832018 1.21538 -1.02225e-18)
(0.978447 1.05011 9.59482e-19)
(0.699298 1.31156 -1.69805e-19)
(0.697561 1.30129 9.52796e-19)
(0.440552 0.273892 8.70954e-21)
(0.4349 0.169553 0)
(1.16218 0.561035 0)
(0.405584 0.282595 4.07699e-20)
(0.361204 0.18259 -4.23107e-20)
(0.919538 -0.00740793 0)
(1.00027 8.57786e-05 0)
(0.999909 0.000321565 0)
(1.00356 -0.00779558 0)
(1.00095 -0.00103495 0)
(1.00017 1.39451e-06 0)
(0.0674767 1.81141 -2.96107e-19)
(0.0210345 0.968113 0)
(0.0899394 0.924753 0)
(0.0256905 0.886578 0)
(0.0128799 0.741739 0)
(-0.0470349 1.58571 0)
(-0.0660945 0.92731 0)
(-0.0389016 0.748061 0)
(-0.0568147 1.06837 0)
(-0.0459708 1.02111 0)
(0.836661 -0.00627117 0)
(0.857436 0.0128742 0)
(0.769682 -0.000864158 0)
(0.848483 0.0168405 0)
(0.739699 -0.0146775 0)
(0.0146992 3.0004 6.82312e-19)
(0.0115193 3.00789 0)
(0.00613482 3.00284 0)
(0.0135335 2.99732 7.60476e-24)
(0.00799886 2.95847 -1.01408e-18)
(0.0144893 2.98211 0)
(0.0107983 2.90363 0)
(0.0248604 2.93064 1.36067e-24)
(0.00423612 2.82505 0)
(0.0311447 2.91568 0)
(-0.00616936 2.74389 0)
(0.31124 3.56733 0)
(-0.132515 3.64954 0)
(0.1411 3.25793 -1.01026e-18)
(-0.0112127 2.99032 0)
(-0.029616 1.83628 0)
(0.0153246 1.60965 -2.24502e-20)
(0.0015109 1.42478 3.61914e-20)
(0.5784 0.154028 -1.93305e-19)
(0.519152 0.0504181 -1.87757e-19)
(0.565234 0.177961 -5.8217e-19)
(0.513205 0.107689 -3.92141e-19)
(0.211448 0.898683 0)
(0.274265 1.35296 -6.66316e-19)
(0.393801 1.31318 1.09598e-18)
(0.98762 0.00853196 0)
(0.942218 0.00595739 0)
(1.00029 0.000572411 0)
(1.00287 0.00929117 0)
(1.00303 0.00848791 -1.08346e-18)
(0.991939 0.00965944 8.18183e-19)
(-0.0139939 1.42688 0)
(-0.0125278 1.24577 0)
(-0.0331514 1.58303 0)
(-0.0195253 1.48231 0)
(-0.000795962 1.30575 0)
(0.193979 0.249954 1.45863e-19)
(0.240178 0.226871 0)
(0.993549 -0.00829293 0)
(0.95438 -0.00639688 0)
(0.816704 0.0255186 0)
(0.78335 0.0372596 0)
(0.716551 -0.0297517 0)
(0.985358 -0.00358133 0)
(0.724616 0.0524618 0)
(0.572663 -0.0182331 7.49841e-19)
(-0.0360584 2.86505 3.27658e-19)
(0.0431462 2.9079 0)
(0.0562938 2.88357 0)
(-0.00557578 2.69713 0)
(-0.0130131 2.98539 5.90702e-19)
(-0.0181877 2.89554 0)
(-0.0153063 2.98815 -1.87045e-18)
(-0.0134288 2.92525 6.46148e-19)
(-0.0335745 1.80821 0)
(-0.0283175 1.81053 0)
(0.00701524 1.58618 5.676e-22)
(0.00722187 1.56259 0)
(-0.00522647 1.43657 0)
(0.93707 -0.00625369 0)
(0.855739 -0.00931318 0)
(0.864824 0.00843801 0)
(0.948631 -0.00750014 0)
(0.883166 -0.0086549 0)
(0.509952 1.12944 3.11221e-20)
(0.561695 1.1843 0)
(0.355515 0.872135 4.05251e-21)
(0.298706 0.733536 0)
(0.938162 1.08691 -2.77232e-19)
(1.05041 0.884635 5.67921e-19)
(0.392083 1.40385 0)
(0.551519 1.37944 0)
(0.553449 1.33545 0)
(0.0975571 0.153782 -1.31116e-19)
(0.484233 0.257539 0)
(0.467567 0.156465 1.11939e-19)
(1.02053 0.938337 0)
(1.08683 0.78201 0)
(1.11253 0.724623 -4.97282e-19)
(1.14229 0.620398 0)
(1.19347 0.403971 5.79226e-20)
(0.957153 -0.00893854 0)
(0.962196 -0.0102077 0)
(0.901026 -0.00807765 0)
(0.984179 -0.00914219 0)
(0.974514 -0.00940177 0)
(0.936886 -0.00627898 0)
(1.00019 0.00233704 0)
(1.00085 0.00131258 0)
(0.999931 0.000862104 0)
(0.0289368 2.0179 1.79611e-19)
(0.131249 1.71051 0)
(0.00338492 2.10435 2.01586e-19)
(0.0187154 1.87698 -1.16413e-19)
(0.134898 1.19895 -5.31361e-19)
(0.0670989 1.05503 0)
(0.100253 1.05793 0)
(0.00759235 0.826243 0)
(-0.00150488 0.682165 0)
(-0.0649125 1.84292 2.60682e-21)
(-0.0713422 1.73501 0)
(0.0119017 1.7401 1.57906e-19)
(-0.0350832 1.45648 -3.01331e-19)
(2.46421e-05 0.786638 0)
(-0.0344164 0.825572 0)
(-0.0202937 0.676464 0)
(-0.0499849 1.1982 0)
(-0.0328163 1.1176 0)
(0.929924 0.0144504 0)
(0.856 -0.00206981 0)
(0.916203 0.00399313 0)
(0.8342 -0.00986869 0)
(0.812041 0.00541308 0)
(0.903222 0.0158569 0)
(0.880803 0.0163228 0)
(0.786739 0.00413241 0)
(0.00585631 3.06485 -5.99082e-21)
(0.0165282 3.05802 0)
(0.0147374 2.96914 0)
(0.00854986 2.8763 0)
(0.929641 3.98744 0)
(1.24562 3.31739 1.01611e-18)
(0.0715259 3.08228 0)
(-0.0263445 2.91068 0)
(-0.0373644 1.80095 0)
(-0.0415044 1.82785 0)
(-0.0341161 1.81225 0)
(-0.0137605 1.85332 5.05431e-21)
(-0.0335671 1.84919 0)
(-0.022596 1.84286 0)
(0.0163682 1.42566 -3.65725e-20)
(0.0431132 1.6323 -9.41896e-20)
(0.0274053 1.62087 -3.67499e-20)
(0.00675863 1.42251 0)
(0.609828 0.124695 2.849e-19)
(0.537351 0.0200481 -2.77724e-19)
(0.264152 1.53094 0)
(0.25773 0.66894 -2.10222e-19)
(0.172224 1.61407 -7.05483e-19)
(0.242448 1.15844 7.07552e-19)
(0.903466 0.00663727 0)
(0.967752 0.0107277 0)
(0.97487 0.0106941 0)
(0.924178 0.00662549 0)
(-0.041016 1.30543 0)
(-0.0246361 1.38191 0)
(-0.0260638 1.19137 0)
(0.361184 0.28321 3.75899e-19)
(0.30513 0.264961 -4.58787e-19)
(0.312268 0.204165 0)
(1.11018 0.0855943 -3.65408e-21)
(1.09531 0.0396125 0)
(1.02256 0.0391009 0)
(0.924271 0.00426478 0)
(0.633848 0.0938435 0)
(0.66534 0.0684139 -1.20693e-18)
(0.552641 0.00497077 4.61097e-19)
(0.00975922 2.9821 4.16477e-19)
(-0.0321566 2.8677 4.85826e-20)
(0.00375784 3.05016 -1.29476e-20)
(0.0200347 3.04353 4.65973e-19)
(-0.015035 2.99656 2.14891e-20)
(-0.012972 2.94945 -8.70384e-23)
(-0.0172626 3.012 -4.07845e-19)
(0.0147639 3.02411 2.94638e-19)
(0.00727272 3.03667 -4.60043e-19)
(0.925729 -0.0012253 0)
(0.935076 -0.00241054 0)
(0.841259 -0.00749597 0)
(0.957262 0.0113789 0)
(0.94401 0.0131719 0)
(0.883396 0.0068799 0)
(0.919158 0.0147771 0)
(0.92789 0.0145464 0)
(0.839941 0.0075022 0)
(0.718185 1.41412 3.30939e-19)
(0.753578 1.52517 0)
(0.220858 0.357092 2.49882e-20)
(0.183499 0.590075 2.02968e-19)
(0.266797 0.69331 -1.13449e-19)
(0.229055 0.575285 2.0697e-19)
(0.29355 0.706564 7.44838e-19)
(0.108062 0.188624 2.10085e-19)
(0.546368 0.214144 4.20944e-19)
(0.515858 0.241052 1.04524e-19)
(0.495676 0.139059 2.11448e-19)
(1.18287 0.461007 2.96517e-19)
(1.20053 0.256031 3.0969e-19)
(-0.0562969 2.10979 3.73595e-20)
(-0.0290976 1.89444 0)
(0.973837 0.0296578 0)
(0.94107 0.0192756 0)
(0.882191 -0.00277689 0)
(0.0109655 3.07445 0)
(0.0198513 2.9441 7.98419e-19)
(0.0165251 2.95637 0)
(0.00618514 2.85077 -7.91894e-19)
(0.00617661 3.09142 1.89065e-19)
(0.0073826 3.08272 0)
(0.787557 1.83029 -2.40364e-19)
(1.25287 2.51346 6.62167e-19)
(0.770333 1.97144 -1.49733e-18)
(0.0209937 2.98356 -3.04049e-19)
(0.0373169 3.00654 0)
(-0.032291 2.88172 0)
(0.0661089 1.66175 7.8887e-21)
(0.0624074 1.6662 2.78817e-19)
(0.0438708 1.43094 -1.05257e-20)
(0.276878 1.34152 6.82212e-19)
(0.214705 0.447876 -4.70799e-19)
(0.0637203 1.94049 4.71125e-19)
(0.131543 1.83062 -5.91137e-19)
(0.193314 1.44571 8.56511e-20)
(0.00310738 3.11811 -1.11476e-18)
(0.0176321 3.1178 1.1919e-18)
(-0.00874105 2.98108 5.11731e-19)
(-0.00268386 2.97769 -4.52503e-19)
(-0.0214872 2.88228 -5.21182e-19)
(0.00878222 3.09902 -1.38434e-18)
(0.00224679 3.10667 1.34506e-18)
(0.23116 0.623145 0)
(0.185358 0.609759 -3.95649e-19)
(0.116802 0.204616 1.78395e-19)
(0.320114 0.828906 6.34091e-19)
(0.170455 0.224921 -9.72772e-19)
(1.19494 0.171882 -5.71809e-20)
(1.19983 0.308591 0)
(1.18372 0.120021 1.21227e-19)
(-0.0520726 1.98382 2.11285e-21)
(-0.0518761 2.0646 0)
(-0.044643 1.85033 0)
(0.329992 1.22682 -2.47561e-19)
(0.349809 1.04051 -5.24941e-19)
(0.188466 0.320646 8.97844e-19)
(1.00585 -0.0110326 0)
(1.0076 -0.0076113 1.97767e-19)
(-0.0351616 1.78544 0)
(-0.0427324 1.79026 0)
(1.00223 0.00343076 1.7376e-21)
(1.0035 0.00920899 4.06721e-19)
(-0.0184752 1.86492 -6.56676e-21)
(-0.0126535 1.87086 0)
(0.0395005 3.18314 1.13087e-19)
(0.40031 3.5026 0)
(1.11915 0.644684 6.51412e-20)
(1.0132 0.0127993 -2.03117e-21)
(1.02104 -0.010615 0)
(1.00174 -3.24137e-05 4.19511e-23)
(0.158425 1.29863 0)
(0.17804 2.56578 0)
(-0.206122 1.12974 0)
(-0.217573 2.64042 -2.04106e-19)
(-0.207155 2.3381 -4.04526e-20)
(1.00734 0.0162729 3.10732e-21)
(1.05091 0.00340639 0)
(1.07599 0.0305374 0)
(-0.0465429 1.82758 0)
(-0.0364334 1.95065 0)
(-0.0788846 1.70496 0)
(0.297082 1.45811 -4.38972e-19)
(1.01114 -0.00963189 0)
(1.00946 -0.0152602 0)
(1.00244 0.000433733 2.51653e-19)
(1.00549 -0.00499756 -2.97485e-19)
(1.00123 -0.0010753 0)
(-0.0610153 1.80747 0)
(-0.0437191 1.78211 0)
(-0.0459335 1.79814 0)
(-0.0656597 1.71238 0)
(-0.0400065 1.74796 0)
(-0.048647 1.74006 0)
(1.03352 -0.0102048 0)
(1.02061 0.0152812 -1.17773e-21)
(0.780613 1.26226 5.19443e-19)
(1.00229 0.000281117 -2.5086e-19)
(1.00391 0.00526212 2.96661e-19)
(1.00124 0.00209361 0)
(1.013 0.0100953 2.45108e-19)
(1.00819 0.00823082 -3.04389e-19)
(1.00871 0.0145657 0)
(-0.0341195 1.94485 0)
(-0.025567 1.90354 -7.1621e-21)
(-0.0218852 1.90901 7.69255e-21)
(1.19161 0.257969 -6.97465e-20)
(1.12996 0.0889666 0)
(0.0522373 3.07766 -5.17032e-19)
(0.0682997 2.85133 -4.1391e-20)
(0.14773 3.197 8.16463e-19)
(0.142142 3.22629 -1.17455e-21)
(0.139886 3.24203 0)
(0.0216907 3.13834 1.12094e-19)
(0.0806502 3.16227 5.03981e-19)
(0.0734618 3.18937 -2.16649e-19)
(0.0249787 3.12899 0)
(0.66222 0.32376 0)
(0.594259 0.369767 0)
(1.09228 0.672393 -2.49926e-19)
(1.09004 0.81143 3.86805e-19)
(1.1476 0.56086 0)
(1.17954 0.502842 0)
(1.0161 0.0130057 -4.53074e-19)
(1.0148 0.0140094 5.66165e-19)
(1.02516 -0.0104721 0)
(1.02337 -0.0122131 0)
(1.00697 0.0026424 0)
(1.01029 0.0032181 0)
(1.00477 0.00156085 0)
(1.00994 0.00601615 0)
(1.00808 0.0063158 0)
(1.00421 0.00447637 0)
(0.159762 1.2999 0)
(0.133123 1.17795 0)
(0.179151 1.38219 0)
(0.122743 1.36964 0)
(0.153669 2.58272 0)
(0.18956 2.6373 -2.14222e-19)
(0.102705 2.63851 0)
(0.093584 2.63359 1.43758e-20)
(-0.0162997 2.70931 2.01916e-19)
(-0.181894 1.18835 0)
(-0.190667 1.20641 0)
(-0.171096 1.126 0)
(-0.0889687 0.986911 0)
(-0.305385 2.32107 3.51606e-19)
(-0.24889 2.46782 -1.82847e-19)
(-0.214531 2.63546 -2.5668e-19)
(-0.204597 2.56067 0)
(-0.193643 2.32653 9.65715e-20)
(-0.120754 2.2345 1.21362e-19)
(-0.35191 2.29096 -3.16293e-19)
(-0.3119 2.40554 2.44198e-19)
(-0.29026 2.5008 3.46894e-19)
(1.01673 0.0283104 4.4681e-19)
(1.01082 0.0167764 -5.50776e-19)
(1.00851 0.0256519 -4.67187e-19)
(0.991369 0.0121006 5.96527e-19)
(1.05124 0.00491817 0)
(1.03836 -0.0140428 0)
(1.07259 0.038072 0)
(1.05677 0.0150039 0)
(1.05486 0.00908897 0)
(1.11375 0.0773192 0)
(1.08591 0.0489149 0)
(1.08836 0.040275 0)
(-0.0414337 1.86848 -1.29472e-21)
(-0.0609172 1.84963 0)
(-0.0431422 1.85291 0)
(-0.046887 1.99237 -2.96124e-21)
(-0.0349753 2.01387 7.9918e-22)
(-0.109599 1.81637 8.35038e-21)
(-0.073955 1.80457 -8.47365e-21)
(-0.0938988 1.74364 0)
(-0.0705798 1.77129 0)
(-0.0629537 1.77653 0)
(-0.10531 1.67027 0)
(-0.0786397 1.6036 0)
(0.382676 1.47439 8.34478e-19)
(0.406692 1.48952 3.26454e-19)
(0.591882 2.43426 -1.5556e-19)
(0.407432 2.52416 4.37564e-19)
(0.350336 2.09097 -4.69824e-20)
(1.02074 -0.00885305 0)
(1.01524 -0.00998579 0)
(1.0148 -0.0155436 0)
(1.0077 -0.00127532 0)
(1.00466 -0.00140319 0)
(1.00751 -0.00469669 0)
(1.00938 -0.0038804 0)
(1.01408 -0.00472972 0)
(1.02194 0.0158349 4.30631e-19)
(1.01738 0.01553 -5.53736e-19)
(1.02346 0.019236 -4.3548e-19)
(1.01819 0.01938 5.45837e-19)
(0.754783 1.31087 0)
(0.687326 1.36809 6.15329e-19)
(0.857235 1.20171 3.56748e-19)
(0.899242 1.16019 -4.74937e-19)
(1.15101 2.61753 -5.52635e-19)
(0.835533 0.105996 2.92479e-19)
(1.13009 0.101964 0)
(1.17435 0.181518 6.06956e-20)
(1.15994 0.157319 2.68685e-21)
(0.984505 0.12252 0)
(0.147083 2.96617 1.33146e-19)
(0.124599 2.87194 -6.68576e-19)
(0.0364812 2.35743 4.82654e-19)
(0.102089 0.0866724 -2.03562e-19)
(0.344805 3.43063 -4.42404e-19)
(0.199154 3.32145 0)
(0.240301 3.36596 5.76151e-19)
(0.254569 3.04011 -7.56343e-19)
(0.349378 3.19986 0)
(0.00638189 3.12088 2.62872e-20)
(0.0170764 3.12973 -3.36332e-19)
(0.0149485 3.12562 4.95026e-19)
(0.0374607 3.14024 0)
(0.0362078 3.15153 0)
(1.21697 2.61858 0)
(0.516598 0.853499 -2.37505e-19)
(1.02138 0.985282 -2.02065e-19)
(0.957068 1.05234 0)
(0.800007 0.948422 5.3999e-20)
(1.04276 0.862383 3.02121e-20)
(0.406282 0.447094 -5.41833e-19)
(0.700254 0.338134 -2.29117e-20)
(0.687034 0.280286 2.24544e-19)
(0.607592 0.399083 1.77835e-20)
(0.545229 0.38016 -7.30465e-19)
(0.671965 0.359057 0)
(0.702543 0.42675 3.70547e-19)
(0.700177 0.423944 0)
(0.634159 0.390973 0)
(0.620614 0.329647 0)
(0.770623 0.58893 1.32247e-19)
(1.18997 0.27414 4.30893e-20)
(1.18686 0.405341 0)
(1.19856 0.359396 0)
(0.767626 0.195784 3.36871e-19)
(0.82284 0.527523 -1.83473e-19)
(0.736879 0.497136 3.00241e-19)
(0.913996 0.420097 -2.81348e-19)
(1.01931 0.0144671 2.98011e-19)
(1.01771 0.0139042 -3.05073e-19)
(1.01544 0.0153784 0)
(1.03468 -0.00697487 0)
(1.02911 -0.00968175 -2.73142e-19)
(1.02721 -0.012165 2.70192e-19)
(1.02548 0.00830968 0)
(1.02444 0.0127018 0)
(1.01144 0.00367606 0)
(1.01427 0.00891684 0)
(1.01504 0.00344553 0)
(1.01407 0.00212231 0)
(0.149008 1.15111 0)
(0.103411 1.00692 0)
(0.19596 1.40093 3.70104e-19)
(0.269017 1.45306 2.54155e-19)
(0.186811 1.43759 5.68387e-19)
(0.195772 1.43372 -9.20416e-19)
(0.179485 1.40707 0)
(0.137522 1.59154 2.45113e-19)
(0.151226 1.57967 0)
(0.335417 2.04066 6.82879e-20)
(0.345079 2.37597 2.36037e-19)
(0.150381 1.46442 -2.14266e-19)
(0.249296 1.37402 1.94161e-19)
(0.185964 1.38615 -1.55714e-19)
(0.262649 1.32088 3.14994e-19)
(0.220758 1.5728 0)
(0.270251 1.61921 -2.02433e-19)
(0.0504236 2.42814 1.47786e-19)
(-0.0226272 2.7129 0)
(0.0904453 2.44688 -2.09278e-19)
(0.0567602 2.52116 0)
(0.0738185 2.65871 -1.86944e-20)
(0.0126331 2.71458 0)
(-0.30518 1.48538 4.74745e-19)
(-0.272356 1.65438 0)
(-0.130887 1.29938 0)
(-0.226143 1.26697 -5.35173e-19)
(-0.203708 2.68342 -8.28933e-20)
(-0.0987856 2.75463 -3.0177e-19)
(-0.16068 2.71602 -1.68145e-21)
(-0.452191 2.09426 -8.6636e-20)
(-0.448176 2.04557 -1.31439e-19)
(-0.17554 1.30752 0)
(-0.130786 1.33833 0)
(0.042758 1.8315 -7.07835e-19)
(-0.0324842 1.42622 -7.65017e-19)
(-0.0744766 1.64251 9.69662e-19)
(0.18985 1.81586 0)
(-0.116163 1.91761 -4.9069e-21)
(-0.0969646 1.97098 -3.30142e-21)
(-0.118885 2.01103 3.31143e-21)
(-0.413752 1.9737 1.04939e-19)
(-0.204164 2.16247 1.26708e-20)
(-0.236189 2.2279 -7.32657e-20)
(1.02076 0.0236018 -2.94817e-19)
(1.01823 0.0260396 2.93691e-19)
(1.01397 0.0214879 0)
(1.00751 0.0486875 4.26985e-19)
(0.994294 0.0351936 -5.00493e-19)
(0.964864 0.023157 5.79586e-19)
(1.00831 0.084092 -5.5265e-20)
(1.03941 -0.00933841 0)
(1.04162 -0.00863612 2.44491e-19)
(1.03348 -0.0180998 -2.46576e-19)
(1.05964 0.0423639 -1.35182e-20)
(1.05591 0.0238411 1.20353e-19)
(1.05663 0.0515427 0)
(1.05008 0.0428417 -4.50414e-20)
(1.03927 0.0289114 0)
(1.03521 0.0250536 0)
(1.02812 0.0118434 0)
(1.02663 0.015176 0)
(1.04754 0.0267185 9.38649e-20)
(1.04644 0.0188413 -2.12461e-19)
(1.05144 0.0266985 -9.45051e-20)
(1.04955 0.0274695 -1.09764e-19)
(1.05858 0.0582545 1.96653e-19)
(1.07822 0.051576 0)
(1.08314 0.0936201 0)
(-0.109567 1.90773 7.53206e-22)
(-0.0777375 1.85414 -1.15728e-21)
(-0.088853 1.86615 0)
(-0.0713355 1.91428 -7.53987e-22)
(-0.0495305 1.87624 2.35168e-21)
(-0.0580779 1.89438 -2.2405e-22)
(-0.0964775 2.19795 -1.25995e-19)
(-0.124357 2.06042 1.59021e-21)
(-0.15028 2.11167 -1.3778e-20)
(-0.0523051 2.08591 3.36296e-20)
(-0.0571085 2.10954 -3.76527e-20)
(-0.147113 1.77612 -7.55085e-22)
(-0.137969 1.82334 1.15478e-20)
(0.3804 1.3951 -4.19262e-19)
(0.372157 1.36353 -4.03198e-19)
(0.639119 1.41706 -5.92336e-19)
(0.516536 1.47934 -3.17464e-19)
(0.55654 1.45555 0)
(0.589603 2.4079 1.23712e-19)
(0.662477 2.38933 2.25107e-19)
(0.408547 2.50198 7.89326e-20)
(0.404909 2.55424 -1.69385e-19)
(0.518123 2.51418 2.65994e-19)
(0.545226 2.44753 0)
(0.485434 2.4929 -3.57994e-19)
(0.24012 2.56955 6.16478e-19)
(0.350813 2.5503 -7.92991e-20)
(0.282332 2.62797 -9.30535e-19)
(0.923108 2.37488 2.14337e-19)
(0.819284 2.36969 0)
(1.01032 0.000367504 9.89568e-21)
(1.01485 -0.00579469 -8.12726e-21)
(1.01826 -0.00393175 -1.4703e-19)
(1.01503 -0.000582633 1.46962e-19)
(1.01225 0.00107558 0)
(0.621502 1.26303 0)
(0.624082 1.17193 0)
(0.730431 1.07657 0)
(0.623649 1.12002 0)
(1.18159 2.63402 5.58152e-20)
(1.06503 2.36879 0)
(0.835312 2.23641 -1.81138e-21)
(0.824025 2.47863 0)
(0.914862 2.56449 1.03569e-20)
(0.948524 2.52082 -6.92527e-21)
(0.843798 0.145607 0)
(0.812822 0.147382 8.43128e-20)
(0.928207 0.125701 4.30728e-19)
(0.86651 0.116093 -1.72291e-19)
(0.850145 0.0660609 -5.20286e-19)
(1.03699 0.215353 -2.45871e-19)
(0.956046 0.272283 -1.58724e-20)
(0.903245 0.272136 3.91489e-19)
(0.970635 0.198739 2.908e-19)
(0.936629 0.158935 -5.42232e-19)
(0.910346 0.171364 7.02775e-20)
(0.936396 0.234773 -1.36942e-19)
(0.913353 0.194017 0)
(0.971622 0.158068 2.59592e-19)
(1.0127 0.163665 0)
(1.00737 0.190429 0)
(1.07567 0.109661 8.32058e-20)
(1.03666 0.155623 -1.29935e-20)
(1.03099 0.217505 -4.66248e-20)
(1.06727 0.190494 0)
(1.02563 0.0285505 2.22765e-19)
(1.04289 0.0476802 2.65189e-19)
(1.04094 0.0318013 -2.215e-19)
(1.04005 0.0526262 -1.78632e-19)
(1.01962 0.0539574 -3.00242e-19)
(0.974668 0.124458 0)
(0.986263 0.077506 0)
(0.968436 0.0426322 -2.08789e-19)
(0.934978 0.0577889 8.70178e-20)
(1.02766 0.0839771 2.51075e-19)
(1.04309 0.110602 -2.54717e-19)
(1.04682 0.136572 2.32725e-19)
(1.01285 0.123383 0)
(1.0524 0.0972138 0)
(1.03998 0.0800476 -1.06255e-19)
(1.03688 0.080935 -2.01785e-19)
(0.575036 1.07835 -9.90427e-20)
(0.618931 1.44528 1.99785e-19)
(1.15695 2.76016 1.05332e-19)
(1.22404 3.09676 -7.15602e-20)
(1.24635 2.73503 5.64253e-19)
(1.27932 2.71865 -3.41083e-19)
(1.20552 2.35375 -8.08384e-21)
(1.21001 3.00054 1.97269e-19)
(1.22769 2.96578 -2.19822e-19)
(1.21624 3.25011 -2.6962e-19)
(1.37859 2.98143 3.73348e-19)
(1.37176 2.89833 0)
(0.51783 0.863233 -1.28194e-20)
(0.161179 1.28667 3.74219e-19)
(0.527391 0.522735 3.56124e-19)
(0.363107 0.292022 3.89965e-19)
(0.556102 0.413016 4.09097e-19)
(0.558119 0.483562 -6.52848e-19)
(0.563662 0.49672 5.37363e-19)
(0.522614 0.449062 -2.13875e-19)
(0.467615 0.385966 4.89358e-19)
(0.777148 0.250902 -1.88295e-19)
(0.728461 0.302589 0)
(0.722971 0.239372 1.08948e-20)
(0.728416 0.510326 1.89748e-19)
(0.697301 0.477555 -7.02012e-19)
(0.624557 0.479743 1.87576e-20)
(0.6376 0.457189 0)
(0.646536 0.726891 1.52603e-19)
(0.789706 0.750463 5.98744e-20)
(0.713197 0.835636 -7.8021e-20)
(0.835535 0.787452 -1.80998e-20)
(0.870357 0.830078 1.37331e-20)
(0.878827 0.832036 -1.40641e-20)
(0.810395 0.626964 -2.25674e-19)
(0.884802 0.679483 1.68202e-20)
(0.941645 0.696004 0)
(0.930853 0.674431 -1.58731e-20)
(0.981924 0.310497 6.24094e-20)
(1.09866 0.282615 5.79954e-21)
(1.02138 0.249016 1.00272e-19)
(0.965604 0.345162 -1.43974e-19)
(1.01613 0.403468 0)
(1.05917 0.390467 0)
(0.887833 0.355524 5.30546e-21)
(0.827429 0.283913 0)
(0.849668 0.272823 2.01843e-19)
(0.881911 0.27846 -5.7344e-21)
(0.906206 0.423104 7.69724e-19)
(0.869604 0.48024 1.95059e-19)
(0.873223 0.447952 -2.50293e-19)
(0.801996 0.433849 2.68633e-19)
(0.787945 0.432416 1.82342e-19)
(0.753263 0.414528 -1.79181e-19)
(1.02724 -0.00132977 2.37036e-19)
(1.01988 -0.000170341 0)
(1.0183 0.000719829 1.5699e-19)
(1.02196 -0.00116977 -3.53255e-19)
(1.02164 0.00395409 1.71096e-19)
(1.02072 0.0103664 -3.59402e-19)
(1.02164 0.00983371 0)
(1.02056 0.0107659 -7.58508e-20)
(1.01607 0.00761193 1.90316e-19)
(1.01692 0.0103342 -9.54693e-20)
(1.01769 0.00955453 6.99502e-20)
(-0.0603211 1.04533 0)
(-0.0622646 1.22934 0)
(0.0461551 1.04632 0)
(0.0105567 0.928985 0)
(0.222473 1.3439 -8.49815e-19)
(0.218461 1.30727 2.74468e-19)
(0.232303 1.50687 1.79756e-19)
(0.218477 1.36688 -2.05245e-19)
(0.119344 1.50106 6.95733e-19)
(0.158358 1.45973 -5.22667e-19)
(0.257697 1.31529 -1.993e-20)
(0.221722 1.23121 5.85168e-19)
(0.143845 1.1723 8.63427e-20)
(0.0867683 1.18942 8.85842e-20)
(0.120007 2.40825 2.18728e-19)
(0.111892 2.43235 0)
(0.185742 2.07465 -2.4419e-20)
(0.18307 1.76014 -1.05458e-19)
(0.223119 2.07225 2.25254e-20)
(0.199485 2.44954 0)
(0.263818 2.40692 -1.40118e-19)
(0.29599 2.40964 9.95666e-20)
(0.208384 2.01339 6.00437e-20)
(0.148409 2.18503 7.99048e-21)
(0.146204 2.32008 0)
(-0.0291807 2.24826 7.01174e-19)
(-0.205554 2.62164 6.03757e-19)
(-0.167026 2.51842 0)
(-0.0385063 2.62328 -3.09718e-20)
(0.0166568 2.49423 -3.26594e-19)
(-0.335964 1.4157 -4.48872e-20)
(-0.292561 1.44772 6.56519e-19)
(-0.312347 1.53074 -1.37495e-19)
(-0.410267 1.53523 -2.80777e-19)
(-0.357278 1.46428 0)
(-0.296646 1.51606 0)
(-0.136516 1.56819 -3.4842e-20)
(-0.221385 1.60259 1.29704e-20)
(-0.274113 1.5295 0)
(-0.168417 1.43609 -3.51218e-20)
(-0.100116 1.4836 5.87654e-20)
(1.03908 0.00148138 0)
(1.0408 -0.00128714 -2.26007e-20)
(1.04672 0.0136217 -1.68792e-19)
(1.05077 0.0120939 0)
(1.05055 0.00947688 0)
(1.04013 0.00373811 -6.71952e-21)
(1.0346 0.00505116 2.78779e-19)
(1.03608 0.0111433 3.37064e-19)
(1.02823 0.0187509 0)
(1.0271 0.0197687 0)
(1.04145 0.020487 1.69861e-19)
(1.03373 0.0218628 0)
(1.03049 0.0213066 0)
(-0.233753 1.94341 0)
(-0.172792 1.83123 9.26128e-22)
(-0.185897 1.90907 1.25166e-21)
(-0.194467 1.64619 0)
(-0.224373 1.79148 -1.3416e-20)
(-0.173451 1.75164 -3.91378e-21)
(-0.166555 1.69985 0)
(0.401814 1.67857 0)
(0.369657 1.29294 6.54977e-19)
(0.295742 1.34789 0)
(0.43015 1.27427 -8.47097e-19)
(0.472663 1.44416 0)
(0.446555 1.3858 3.99209e-19)
(1.02564 2.70316 -4.08951e-21)
(0.947563 2.4082 -2.70478e-19)
(0.882915 2.15899 3.23916e-19)
(0.837181 2.36313 1.31457e-19)
(0.844579 2.51611 0)
(0.905863 2.51154 0)
(0.897755 2.36926 0)
(0.908459 2.33542 -4.6602e-19)
(0.695425 2.49551 -2.49205e-20)
(0.802384 2.48508 -1.47725e-20)
(0.810051 2.45842 1.13022e-20)
(0.688408 2.37057 0)
(0.78502 2.36754 0)
(0.753588 2.37709 -2.23803e-19)
(0.769807 2.50196 0)
(0.586818 1.08771 0)
(0.479566 0.936345 4.31005e-22)
(0.524085 0.966925 -1.21379e-21)
(0.510345 1.05595 0)
(0.510511 1.01238 2.00665e-21)
(0.735781 0.86269 1.32414e-20)
(0.757738 1.0015 0)
(0.729535 0.957139 -6.19322e-20)
(0.610388 1.02307 0)
(0.612626 0.936007 0)
(1.16018 2.7803 5.78936e-20)
(1.13882 2.84463 1.26536e-19)
(0.93139 2.37399 -2.88488e-19)
(0.898828 2.34749 3.61189e-20)
(1.12288 2.74993 0)
(1.07379 2.72062 -4.32237e-20)
(1.07997 2.49338 -7.26698e-20)
(0.972716 2.22881 -3.00171e-20)
(0.48336 1.37286 0)
(0.492195 1.06718 8.72635e-20)
(0.539725 1.14934 0)
(0.856548 0.217518 0)
(0.819821 0.178075 0)
(0.781033 0.161792 0)
(0.850175 0.22202 -3.17388e-19)
(0.798357 0.217014 1.97238e-19)
(0.941324 0.050802 -1.79085e-19)
(0.95292 0.100777 0)
(0.92571 0.104894 8.08131e-20)
(0.887929 0.0806492 3.31149e-19)
(0.880459 0.0473819 -2.03377e-19)
(1.16673 3.37544 -9.85059e-19)
(1.2126 3.29496 0)
(1.16692 3.40213 -1.9401e-18)
(0.653038 3.56283 1.66527e-18)
(0.87965 3.12863 3.82099e-19)
(0.498866 0.886723 2.22483e-19)
(0.431088 0.873666 0)
(0.360018 0.553747 -8.44667e-20)
(0.444351 0.698486 3.85167e-19)
(0.534203 0.523295 -1.12805e-19)
(0.51873 0.547001 1.30498e-19)
(0.663265 0.527338 2.70203e-19)
(0.688767 0.542823 0)
(0.645186 0.622179 0)
(0.599038 0.551143 0)
(0.938683 0.585028 -5.08146e-20)
(0.871947 0.525271 -1.8863e-19)
(0.893641 0.558124 8.85188e-20)
(0.925408 0.499163 -1.38781e-19)
(1.02603 0.464376 0)
(1.03421 0.55741 -5.99987e-21)
(0.8229 0.390673 -4.05441e-19)
(0.824499 0.375097 -4.70345e-19)
(0.777847 0.387388 3.17943e-19)
(0.773322 0.356184 -3.58751e-19)
(0.822871 0.312146 -2.6717e-19)
(0.778241 0.314964 3.28687e-19)
(1.02597 0.00450052 -1.76146e-19)
(1.02583 0.00431567 3.57729e-19)
(1.03079 -0.00136068 2.25038e-19)
(1.03135 -0.00144148 -2.70048e-19)
(1.03492 0.00049587 0)
(1.03169 0.00220817 -4.36519e-19)
(0.187399 1.78439 -1.01599e-19)
(0.174103 1.73265 0)
(0.195777 1.77689 -5.54948e-19)
(0.190397 1.75075 5.21232e-19)
(0.21558 1.60631 -3.32994e-19)
(0.285095 1.61967 0)
(-0.398821 1.9626 0)
(-0.357 1.72561 1.54229e-20)
(-0.303057 1.71574 -1.39843e-20)
(-0.254417 1.80433 1.56843e-21)
(-0.265584 1.96642 9.55159e-21)
(-0.308562 1.97824 -1.02305e-20)
(0.48157 1.38424 4.12442e-19)
(0.483591 1.38605 -4.42798e-19)
(0.441923 1.27554 4.16839e-19)
(0.434983 1.29388 -2.52773e-20)
(0.613729 1.28504 0)
(0.532122 1.36698 5.4409e-19)
(0.551719 1.39472 -5.27208e-19)
(0.448333 1.26243 -3.9916e-19)
(0.491373 1.22168 0)
(0.542265 1.18212 0)
(0.666089 2.45629 3.66103e-20)
(0.674815 2.47499 5.41733e-19)
(0.722016 2.49104 -3.72623e-19)
(0.632445 2.47437 -1.18933e-19)
(0.570612 2.57455 9.73885e-20)
(0.515548 2.54485 -2.96545e-19)
(0.960169 2.37108 -1.74523e-19)
(1.00411 2.39458 0)
(0.897789 2.14129 -2.40822e-19)
(1.04258 2.70016 0)
(1.04316 2.68737 0)
(0.623245 2.29607 2.44959e-19)
(1.0459 3.17678 4.85643e-19)
(0.917619 3.04636 -4.33063e-19)
(0.295071 0.971895 0)
(0.349355 0.844788 -1.52975e-19)
(0.49336 0.794045 -6.65965e-20)
(0.408309 2.05005 0)
(0.474632 2.79456 -2.66051e-19)
(0.43555 2.56048 0)
(0.664714 0.665834 -3.16219e-19)
(0.736004 0.652727 4.02061e-19)
(0.767167 0.602977 -3.92792e-19)
(0.666987 0.629778 -4.67007e-20)
(0.719993 0.584068 -1.90264e-19)
(1.0068 2.78362 -3.69198e-19)
(1.0394 2.8401 2.90965e-19)
(0.651428 2.19601 4.808e-20)
(0.60401 1.73828 -6.55455e-20)
(0.705443 1.92743 1.13231e-19)
(0.991062 2.46611 -6.81377e-20)
(0.993823 2.46642 -1.6676e-19)
(0.672339 1.88169 -5.39885e-21)
(0.458425 1.3501 -8.12509e-20)
)
;

boundaryField
{
    wall-4
    {
        type            noSlip;
    }
    velocity-inlet-5
    {
        type            fixedValue;
        value           uniform (1 0 0);
    }
    velocity-inlet-6
    {
        type            fixedValue;
        value           uniform (0 3 0);
    }
    pressure-outlet-7
    {
        type            zeroGradient;
    }
    wall-8
    {
        type            noSlip;
    }
    frontAndBackPlanes
    {
        type            empty;
    }
}


// ************************************************************************* //
