/*--------------------------------*- C++ -*----------------------------------*\
  =========                 |
  \\      /  F ield         | OpenFOAM: The Open Source CFD Toolbox
   \\    /   O peration     | Website:  https://openfoam.org
    \\  /    A nd           | Version:  13
     \\/     M anipulation  |
\*---------------------------------------------------------------------------*/
FoamFile
{
    format      ascii;
    class       volScalarField;
    location    "5";
    object      T;
}
// * * * * * * * * * * * * * * * * * * * * * * * * * * * * * * * * * * * * * //

dimensions      [0 0 0 1 0 0 0];

internalField   nonuniform List<scalar> 
1000
(
3.27614e-45
3.9099e-45
5.29762e-45
7.70204e-45
1.15771e-44
1.76522e-44
2.7066e-44
4.15766e-44
6.3882e-44
9.81122e-44
1.50578e-43
2.30909e-43
3.53789e-43
5.41575e-43
8.2829e-43
1.26565e-42
1.93219e-42
2.94709e-42
4.49098e-42
6.83747e-42
1.04005e-41
1.58059e-41
2.39987e-41
3.64051e-41
5.51748e-41
8.35458e-41
1.2639e-40
1.91031e-40
2.8847e-40
4.35212e-40
6.56001e-40
9.87899e-40
1.48636e-39
2.23429e-39
3.3555e-39
5.03475e-39
7.54748e-39
1.13039e-38
1.69145e-38
2.52867e-38
3.77682e-38
5.63591e-38
8.4024e-38
1.25154e-37
1.86247e-37
2.76907e-37
4.11321e-37
6.10421e-37
9.05063e-37
1.3407e-36
1.98419e-36
2.93383e-36
4.33401e-36
6.39653e-36
9.43191e-36
1.38949e-35
2.04509e-35
3.00724e-35
4.41798e-35
6.48456e-35
9.50904e-35
1.39313e-34
2.03914e-34
2.98196e-34
4.35668e-34
6.3593e-34
9.27388e-34
1.35118e-33
1.96681e-33
2.86029e-33
4.15583e-33
6.03257e-33
8.74875e-33
1.26762e-32
1.83496e-32
2.65378e-32
3.83442e-32
5.5352e-32
7.98295e-32
1.15025e-31
1.65583e-31
2.38143e-31
3.42182e-31
4.91217e-31
7.04508e-31
1.00947e-30
1.44511e-30
2.06682e-30
2.95326e-30
4.21596e-30
6.01294e-30
8.56789e-30
1.21971e-29
1.73474e-29
2.46495e-29
3.49926e-29
4.96296e-29
7.03235e-29
9.95531e-29
1.408e-28
1.98952e-28
2.80858e-28
3.96115e-28
5.58148e-28
7.85727e-28
1.10507e-27
1.55274e-27
2.17974e-27
3.05705e-27
4.28347e-27
5.99628e-27
8.38614e-27
1.17175e-26
1.63569e-26
2.28119e-26
3.17845e-26
4.42447e-26
6.15319e-26
8.54934e-26
1.18674e-25
1.64579e-25
2.28026e-25
3.15636e-25
4.36496e-25
6.03068e-25
8.32425e-25
1.14793e-24
1.58153e-24
2.17687e-24
2.99349e-24
4.11258e-24
5.64473e-24
7.7404e-24
1.06041e-23
1.45137e-23
1.98459e-23
2.71116e-23
3.70024e-23
5.0454e-23
6.87308e-23
9.35403e-23
1.27185e-22
1.72768e-22
2.34467e-22
3.17899e-22
4.30614e-22
5.82741e-22
7.87869e-22
1.0642e-21
1.43608e-21
1.93609e-21
2.60773e-21
3.50904e-21
4.7174e-21
6.33588e-21
8.5016e-21
1.13968e-20
1.52635e-20
2.04228e-20
2.73e-20
3.64587e-20
4.86438e-20
6.48398e-20
8.63465e-20
1.14878e-19
1.52692e-19
2.02761e-19
2.68992e-19
3.5652e-19
4.7208e-19
6.24504e-19
8.25358e-19
1.08978e-18
1.43754e-18
1.89448e-18
2.49429e-18
3.2809e-18
4.31147e-18
5.66036e-18
7.42422e-18
9.72847e-18
1.27358e-17
1.66568e-17
2.17644e-17
2.84111e-17
3.70524e-17
4.82759e-17
6.28393e-17
8.17182e-17
1.06168e-16
1.37801e-16
1.7869e-16
2.3149e-16
2.99606e-16
3.87397e-16
5.00435e-16
6.45839e-16
8.32697e-16
1.0726e-15
1.38029e-15
1.77456e-15
2.27927e-15
2.92475e-15
3.74943e-15
4.80206e-15
6.14435e-15
7.85433e-15
1.00306e-14
1.27977e-14
1.63125e-14
2.07728e-14
2.64275e-14
3.35892e-14
4.26511e-14
5.41059e-14
6.85716e-14
8.68218e-14
1.09824e-13
1.38788e-13
1.75223e-13
2.21012e-13
2.78499e-13
3.50604e-13
4.40955e-13
5.5406e-13
6.9551e-13
8.72237e-13
1.09282e-12
1.36789e-12
1.71055e-12
2.137e-12
2.66721e-12
3.3258e-12
4.14302e-12
5.15613e-12
6.41083e-12
7.96323e-12
9.88207e-12
1.22516e-11
1.51746e-11
1.87772e-11
2.32127e-11
2.86685e-11
3.53728e-11
4.36031e-11
5.36969e-11
6.60641e-11
8.12018e-11
9.97125e-11
1.22326e-10
1.49924e-10
1.83572e-10
2.24557e-10
2.7443e-10
3.35058e-10
4.08688e-10
4.98022e-10
6.06302e-10
7.37418e-10
8.96029e-10
1.08771e-09
1.31914e-09
1.59828e-09
1.93463e-09
2.33952e-09
2.82644e-09
3.41144e-09
4.11358e-09
4.95548e-09
5.96398e-09
7.17085e-09
8.61369e-09
1.03369e-08
1.23931e-08
1.4844e-08
1.77627e-08
2.12348e-08
2.53615e-08
3.02611e-08
3.60727e-08
4.29594e-08
5.11119e-08
6.07534e-08
7.21447e-08
8.55899e-08
1.01444e-07
1.2012e-07
1.42098e-07
1.67937e-07
1.98285e-07
2.33894e-07
2.75634e-07
3.24514e-07
3.81697e-07
4.48528e-07
5.26557e-07
6.17573e-07
7.23629e-07
8.47091e-07
9.90673e-07
1.15749e-06
1.3511e-06
1.57561e-06
1.83566e-06
2.13661e-06
2.48452e-06
2.88634e-06
3.34996e-06
3.88436e-06
4.49972e-06
5.20762e-06
6.02116e-06
6.95518e-06
8.02647e-06
9.25398e-06
1.06591e-05
1.22659e-05
1.41016e-05
1.61967e-05
1.85854e-05
2.13062e-05
2.44022e-05
2.79217e-05
3.19186e-05
3.64531e-05
4.15926e-05
4.74119e-05
5.39943e-05
6.14326e-05
6.98298e-05
7.93e-05
8.99698e-05
0.000101979
0.000115483
0.000130652
0.000147674
0.000166758
0.000188131
0.000212044
0.000238774
0.000268621
0.000301915
0.00033902
0.000380329
0.000426273
0.000477321
0.000533984
0.000596817
0.000666423
0.000743454
0.000828619
0.000922683
0.00102647
0.00114088
0.00126686
0.00140545
0.00155776
0.00172498
0.0019084
0.00210937
0.00232936
0.00256993
0.00283273
0.00311955
0.00343226
0.00377287
0.00414348
0.00454634
0.00498382
0.00545843
0.0059728
0.0065297
0.00713206
0.00778292
0.00848551
0.00924316
0.0100594
0.0109378
0.0118823
0.0128968
0.0139853
0.0151522
0.0164017
0.0177385
0.0191672
0.0206925
0.0223195
0.0240531
0.0258985
0.0278609
0.0299457
0.0321583
0.0345042
0.0369889
0.039618
0.0423972
0.045332
0.0484281
0.051691
0.0551265
0.0587398
0.0625366
0.066522
0.0707012
0.0750795
0.0796615
0.084452
0.0894555
0.0946762
0.100118
0.105785
0.11168
0.117807
0.124167
0.130764
0.1376
0.144675
0.151991
0.159549
0.167348
0.175389
0.18367
0.192191
0.200949
0.209941
0.219166
0.228619
0.238296
0.248193
0.258304
0.268623
0.279145
0.289863
0.300768
0.311854
0.323111
0.334531
0.346104
0.35782
0.36967
0.381642
0.393725
0.405907
0.418178
0.430524
0.442933
0.455394
0.467891
0.480414
0.492948
0.50548
0.517997
0.530485
0.542932
0.555322
0.567644
0.579884
0.592029
0.604065
0.61598
0.627762
0.639398
0.650875
0.662183
0.673309
0.684243
0.694973
0.705489
0.715781
0.725839
0.735654
0.745216
0.754518
0.763551
0.772307
0.780779
0.78896
0.796843
0.804423
0.811693
0.818648
0.825283
0.831593
0.837574
0.843222
0.848534
0.853505
0.858133
0.862415
0.866349
0.869931
0.873161
0.876037
0.878556
0.880718
0.882521
0.883964
0.885048
0.88577
0.886132
0.886132
0.88577
0.885048
0.883964
0.882521
0.880718
0.878556
0.876037
0.873161
0.869931
0.866349
0.862415
0.858133
0.853505
0.848534
0.843222
0.837574
0.831593
0.825283
0.818648
0.811693
0.804423
0.796843
0.78896
0.780779
0.772307
0.763551
0.754518
0.745216
0.735654
0.725839
0.715781
0.705489
0.694973
0.684243
0.673309
0.662183
0.650875
0.639398
0.627762
0.61598
0.604065
0.592029
0.579884
0.567644
0.555322
0.542932
0.530485
0.517997
0.50548
0.492948
0.480414
0.467891
0.455394
0.442933
0.430524
0.418178
0.405907
0.393725
0.381642
0.36967
0.35782
0.346104
0.334531
0.323111
0.311854
0.300768
0.289863
0.279145
0.268623
0.258304
0.248193
0.238296
0.228619
0.219166
0.209941
0.200949
0.192191
0.18367
0.175389
0.167348
0.159549
0.151991
0.144675
0.1376
0.130764
0.124167
0.117807
0.11168
0.105785
0.100118
0.0946762
0.0894555
0.084452
0.0796615
0.0750795
0.0707012
0.066522
0.0625366
0.0587398
0.0551265
0.051691
0.0484281
0.045332
0.0423972
0.039618
0.0369889
0.0345042
0.0321583
0.0299457
0.0278609
0.0258985
0.0240531
0.0223195
0.0206925
0.0191672
0.0177385
0.0164017
0.0151522
0.0139853
0.0128968
0.0118823
0.0109378
0.0100594
0.00924316
0.00848551
0.00778292
0.00713206
0.0065297
0.0059728
0.00545843
0.00498382
0.00454634
0.00414348
0.00377287
0.00343226
0.00311955
0.00283273
0.00256993
0.00232936
0.00210937
0.0019084
0.00172498
0.00155776
0.00140545
0.00126686
0.00114088
0.00102647
0.000922683
0.000828619
0.000743454
0.000666423
0.000596817
0.000533984
0.000477321
0.000426273
0.000380329
0.00033902
0.000301915
0.000268621
0.000238774
0.000212044
0.000188131
0.000166758
0.000147674
0.000130652
0.000115483
0.000101979
8.99698e-05
7.93e-05
6.98298e-05
6.14326e-05
5.39943e-05
4.74119e-05
4.15926e-05
3.64531e-05
3.19186e-05
2.79217e-05
2.44022e-05
2.13062e-05
1.85854e-05
1.61967e-05
1.41016e-05
1.22659e-05
1.06591e-05
9.25398e-06
8.02647e-06
6.95518e-06
6.02116e-06
5.20762e-06
4.49972e-06
3.88436e-06
3.34996e-06
2.88634e-06
2.48452e-06
2.13661e-06
1.83566e-06
1.57561e-06
1.3511e-06
1.15749e-06
9.90673e-07
8.47091e-07
7.23629e-07
6.17573e-07
5.26557e-07
4.48528e-07
3.81697e-07
3.24514e-07
2.75634e-07
2.33894e-07
1.98285e-07
1.67937e-07
1.42098e-07
1.2012e-07
1.01444e-07
8.55899e-08
7.21447e-08
6.07534e-08
5.11119e-08
4.29594e-08
3.60727e-08
3.02611e-08
2.53615e-08
2.12348e-08
1.77627e-08
1.4844e-08
1.23931e-08
1.03369e-08
8.61369e-09
7.17085e-09
5.96398e-09
4.95548e-09
4.11358e-09
3.41144e-09
2.82644e-09
2.33952e-09
1.93463e-09
1.59828e-09
1.31914e-09
1.08771e-09
8.96029e-10
7.37418e-10
6.06302e-10
4.98022e-10
4.08688e-10
3.35058e-10
2.7443e-10
2.24557e-10
1.83572e-10
1.49924e-10
1.22326e-10
9.97125e-11
8.12018e-11
6.60641e-11
5.36969e-11
4.36031e-11
3.53728e-11
2.86685e-11
2.32127e-11
1.87772e-11
1.51746e-11
1.22516e-11
9.88207e-12
7.96323e-12
6.41083e-12
5.15613e-12
4.14302e-12
3.3258e-12
2.66721e-12
2.137e-12
1.71055e-12
1.36789e-12
1.09282e-12
8.72237e-13
6.9551e-13
5.5406e-13
4.40955e-13
3.50604e-13
2.78499e-13
2.21012e-13
1.75223e-13
1.38788e-13
1.09824e-13
8.68218e-14
6.85716e-14
5.41059e-14
4.26511e-14
3.35892e-14
2.64275e-14
2.07728e-14
1.63125e-14
1.27977e-14
1.00306e-14
7.85433e-15
6.14435e-15
4.80206e-15
3.74943e-15
2.92475e-15
2.27927e-15
1.77456e-15
1.38029e-15
1.0726e-15
8.32697e-16
6.45839e-16
5.00435e-16
3.87397e-16
2.99606e-16
2.3149e-16
1.7869e-16
1.37801e-16
1.06168e-16
8.17182e-17
6.28393e-17
4.82759e-17
3.70524e-17
2.84111e-17
2.17644e-17
1.66568e-17
1.27358e-17
9.72847e-18
7.42422e-18
5.66036e-18
4.31147e-18
3.2809e-18
2.49429e-18
1.89448e-18
1.43754e-18
1.08978e-18
8.25358e-19
6.24504e-19
4.7208e-19
3.5652e-19
2.68992e-19
2.02761e-19
1.52692e-19
1.14878e-19
8.63465e-20
6.48398e-20
4.86438e-20
3.64587e-20
2.73e-20
2.04228e-20
1.52635e-20
1.13968e-20
8.5016e-21
6.33588e-21
4.7174e-21
3.50904e-21
2.60773e-21
1.93609e-21
1.43608e-21
1.0642e-21
7.87869e-22
5.82741e-22
4.30614e-22
3.17899e-22
2.34467e-22
1.72768e-22
1.27185e-22
9.35403e-23
6.87308e-23
5.0454e-23
3.70024e-23
2.71116e-23
1.98459e-23
1.45137e-23
1.06041e-23
7.7404e-24
5.64473e-24
4.11258e-24
2.99349e-24
2.17687e-24
1.58153e-24
1.14793e-24
8.32425e-25
6.03068e-25
4.36496e-25
3.15636e-25
2.28026e-25
1.64579e-25
1.18674e-25
8.54934e-26
6.15319e-26
4.42447e-26
3.17845e-26
2.28119e-26
1.63569e-26
1.17175e-26
8.38614e-27
5.99628e-27
4.28347e-27
3.05705e-27
2.17974e-27
1.55274e-27
1.10507e-27
7.85727e-28
5.58148e-28
3.96115e-28
2.80858e-28
1.98952e-28
1.408e-28
9.95531e-29
7.03235e-29
4.96296e-29
3.49926e-29
2.46495e-29
1.73474e-29
1.21971e-29
8.56789e-30
6.01294e-30
4.21596e-30
2.95326e-30
2.06682e-30
1.44511e-30
1.00947e-30
7.04508e-31
4.91217e-31
3.42182e-31
2.38143e-31
1.65583e-31
1.15025e-31
7.98295e-32
5.5352e-32
3.83442e-32
2.65378e-32
1.83496e-32
1.26762e-32
8.74875e-33
6.03257e-33
4.15583e-33
2.86029e-33
1.96681e-33
1.35118e-33
9.27388e-34
6.3593e-34
4.35668e-34
2.98196e-34
2.03914e-34
1.39313e-34
9.50904e-35
6.48456e-35
4.41798e-35
3.00724e-35
2.04509e-35
1.38949e-35
9.43191e-36
6.39653e-36
4.33401e-36
2.93383e-36
1.98419e-36
1.3407e-36
9.05063e-37
6.10421e-37
4.11321e-37
2.76907e-37
1.86247e-37
1.25154e-37
8.4024e-38
5.63591e-38
3.77682e-38
2.52867e-38
1.69145e-38
1.13039e-38
7.54748e-39
5.03475e-39
3.3555e-39
2.23429e-39
1.48636e-39
9.87899e-40
6.56001e-40
4.35212e-40
2.8847e-40
1.91031e-40
1.2639e-40
8.35458e-41
5.51748e-41
3.64051e-41
2.39987e-41
1.58059e-41
1.04005e-41
6.83747e-42
4.49098e-42
2.94709e-42
1.93219e-42
1.26565e-42
8.2829e-43
5.41575e-43
3.53789e-43
2.30909e-43
1.50578e-43
9.81122e-44
6.3882e-44
4.15766e-44
2.7066e-44
1.76522e-44
1.15771e-44
7.70204e-45
5.29762e-45
3.9099e-45
3.27614e-45
)
;

boundaryField
{
    sides
    {
        type            zeroGradient;
    }
    empty
    {
        type            empty;
    }
}


// ************************************************************************* //
