/*--------------------------------*- C++ -*----------------------------------*\
  =========                 |
  \\      /  F ield         | OpenFOAM: The Open Source CFD Toolbox
   \\    /   O peration     | Website:  https://openfoam.org
    \\  /    A nd           | Version:  13
     \\/     M anipulation  |
\*---------------------------------------------------------------------------*/
FoamFile
{
    format      ascii;
    class       volScalarField;
    location    "0.695";
    object      T;
}
// * * * * * * * * * * * * * * * * * * * * * * * * * * * * * * * * * * * * * //

dimensions      [0 0 0 1 0 0 0];

internalField   nonuniform List<scalar> 
1000
(
2.2535e-224
1.24012e-223
7.82215e-223
4.94225e-222
3.11669e-221
1.96152e-220
1.23203e-219
7.72274e-219
4.83111e-218
3.01608e-217
1.87914e-216
1.1684e-215
7.25007e-215
4.48957e-214
2.77447e-213
1.71105e-212
1.05307e-211
6.46775e-211
3.96419e-210
2.4247e-209
1.48e-208
9.01493e-208
5.47973e-207
3.32391e-206
2.01202e-205
1.21535e-204
7.32592e-204
4.40664e-203
2.64506e-202
1.58433e-201
9.46965e-201
5.64807e-200
3.36156e-199
1.99643e-198
1.18315e-197
6.9967e-197
4.1287e-196
2.43107e-195
1.42838e-194
8.37436e-194
4.8991e-193
2.85981e-192
1.66576e-191
9.68137e-191
5.6145e-190
3.24887e-189
1.87585e-188
1.0807e-187
6.21235e-187
3.56322e-186
2.03922e-185
1.16445e-184
6.63448e-184
3.77157e-183
2.13926e-182
1.21068e-181
6.83625e-181
3.85146e-180
2.16496e-179
1.2142e-178
6.79424e-178
3.79317e-177
2.11287e-176
1.17421e-175
6.51065e-175
3.60165e-174
1.98782e-173
1.09458e-172
6.01332e-172
3.29586e-171
1.80224e-170
9.832e-170
5.35124e-169
2.90568e-168
1.57405e-167
8.50679e-167
4.58654e-166
2.46704e-165
1.32384e-164
7.08694e-164
3.78482e-163
2.01648e-162
1.07176e-161
5.68274e-161
3.00587e-160
1.58611e-159
8.34913e-159
4.38425e-158
2.29663e-157
1.20012e-156
6.25599e-156
3.25312e-155
1.68747e-154
8.73173e-154
4.50702e-153
2.32061e-152
1.19188e-151
6.10637e-151
3.12066e-150
1.59082e-149
8.08919e-149
4.10294e-148
2.07581e-147
1.04756e-146
5.27316e-146
2.64762e-145
1.32596e-144
6.62363e-144
3.30025e-143
1.64013e-142
8.13003e-142
4.01959e-141
1.98219e-140
9.74943e-140
4.78279e-139
2.34017e-138
1.14203e-137
5.55858e-137
2.6984e-136
1.30648e-135
6.30879e-135
3.03834e-134
1.45939e-133
6.99109e-133
3.34007e-132
1.59148e-131
7.56268e-131
3.58408e-130
1.69396e-129
7.98457e-129
3.75333e-128
1.75953e-127
8.22595e-127
3.83517e-126
1.78315e-125
8.26781e-125
3.82289e-124
1.76274e-123
8.1054e-123
3.71663e-122
1.69945e-121
7.74902e-121
3.52342e-120
1.59755e-119
7.22297e-119
3.25644e-118
1.46398e-117
6.56276e-117
2.93356e-116
1.30754e-115
5.81118e-115
2.57525e-114
1.13793e-113
5.01363e-113
2.20254e-112
9.64771e-112
4.2136e-111
1.83487e-110
7.96668e-110
3.44878e-109
1.48856e-108
6.40584e-108
2.74847e-107
1.17572e-106
5.01439e-106
2.13218e-105
9.03897e-105
3.82032e-104
1.60976e-103
6.76241e-103
2.83214e-102
1.18249e-101
4.92207e-101
2.04248e-100
8.44943e-100
3.48457e-99
1.43259e-98
5.87136e-98
2.39882e-97
9.76997e-97
3.96663e-96
1.60539e-95
6.47683e-95
2.60474e-94
1.0442e-93
4.17268e-93
1.66209e-92
6.59927e-92
2.61178e-91
1.03032e-90
4.05133e-90
1.58785e-89
6.20301e-89
2.41531e-88
9.37377e-88
3.62598e-87
1.39797e-86
5.37194e-86
2.0574e-85
7.85336e-85
2.98771e-84
1.13282e-83
4.28074e-83
1.61216e-82
6.05097e-82
2.26341e-81
8.43757e-81
3.13462e-80
1.16054e-79
4.2819e-79
1.57438e-78
5.76871e-78
2.10637e-77
7.6643e-77
2.779e-76
1.0041e-75
3.61523e-75
1.29705e-74
4.63697e-74
1.65183e-73
5.86333e-73
2.07379e-72
7.30843e-72
2.56634e-71
8.9791e-71
3.1302e-70
1.08725e-69
3.76266e-69
1.29738e-68
4.45698e-68
1.52549e-67
5.20196e-67
1.76729e-66
5.98176e-66
2.01708e-65
6.77616e-65
2.26781e-64
7.56113e-64
2.51141e-63
8.30984e-63
2.7391e-62
8.99408e-62
2.94194e-61
9.5859e-61
3.11135e-60
1.00595e-59
3.23971e-59
1.03929e-58
3.32092e-58
1.05698e-57
3.35088e-57
1.0581e-56
3.32782e-56
1.04246e-55
3.25246e-55
1.01069e-54
3.128e-54
9.64173e-54
2.95989e-53
9.04942e-53
2.75541e-52
8.35535e-52
2.52319e-51
7.58815e-51
2.27256e-50
6.77771e-50
2.01294e-49
5.95325e-49
1.75325e-48
5.14159e-48
1.50143e-47
4.36576e-47
1.26403e-46
3.64409e-46
1.04604e-45
2.98971e-45
8.50795e-45
2.41062e-44
6.80036e-44
1.90998e-43
5.3409e-43
1.48689e-42
4.12113e-42
1.13716e-41
3.1238e-41
8.54273e-41
2.32571e-40
6.30307e-40
1.70051e-39
4.56698e-39
1.22094e-38
3.24914e-38
8.60685e-38
2.26941e-37
5.9562e-37
1.55598e-36
4.04586e-36
1.04709e-35
2.69718e-35
6.91491e-35
1.76443e-34
4.48082e-34
1.1325e-33
2.84862e-33
7.13088e-33
1.77646e-32
4.40416e-32
1.08657e-31
2.66769e-31
6.51754e-31
1.58451e-30
3.83324e-30
9.22749e-30
2.21025e-29
5.26786e-29
1.24925e-28
2.94771e-28
6.92032e-28
1.61648e-27
3.75669e-27
8.68613e-27
1.99813e-26
4.57287e-26
1.04116e-25
2.35827e-25
5.31393e-25
1.19117e-24
2.65619e-24
5.89203e-24
1.30011e-23
2.85365e-23
6.23037e-23
1.35305e-22
2.92275e-22
6.2797e-22
1.34199e-21
2.8524e-21
6.03e-21
1.26783e-20
2.65113e-20
5.51344e-20
1.14032e-19
2.34547e-19
4.79767e-19
9.75927e-19
1.97416e-18
3.97115e-18
7.94349e-18
1.58001e-17
3.12502e-17
6.14586e-17
1.20182e-16
2.33678e-16
4.5176e-16
8.68362e-16
1.65954e-15
3.15329e-15
5.95687e-15
1.11877e-14
2.08896e-14
3.87768e-14
7.15584e-14
1.31277e-13
2.39412e-13
4.34036e-13
7.82206e-13
1.40128e-12
2.49531e-12
4.41691e-12
7.77134e-12
1.35909e-11
2.3625e-11
4.08184e-11
7.00962e-11
1.19641e-10
2.02957e-10
3.42185e-10
5.73382e-10
9.54872e-10
1.58037e-09
2.59942e-09
4.24905e-09
6.9024e-09
1.11428e-08
1.78758e-08
2.84978e-08
4.51466e-08
7.10721e-08
1.11181e-07
1.72826e-07
2.66952e-07
4.09729e-07
6.24878e-07
9.46941e-07
1.42586e-06
2.13329e-06
3.17131e-06
4.68426e-06
6.87466e-06
1.00246e-05
1.45239e-05
2.09074e-05
2.99029e-05
4.24932e-05
5.99952e-05
8.41597e-05
0.000117295
0.000162421
0.000223456
0.000305442
0.000414811
0.000559705
0.000750336
0.000999406
0.00132257
0.00173896
0.00227173
0.00294866
0.00380274
0.00487279
0.00620403
0.00784857
0.00986587
0.012323
0.0152947
0.0188634
0.0231186
0.0281566
0.0340791
0.0409917
0.0490029
0.0582209
0.0687521
0.0806978
0.0941512
0.109194
0.125895
0.144302
0.164446
0.186333
0.209941
0.235225
0.262108
0.290487
0.320229
0.351176
0.383145
0.415932
0.449317
0.483065
0.516935
0.550683
0.584068
0.616855
0.648824
0.679771
0.709513
0.737892
0.764775
0.790059
0.813667
0.835554
0.855698
0.874105
0.890806
0.905849
0.919302
0.931248
0.941779
0.950997
0.959008
0.965921
0.971843
0.976881
0.981137
0.984705
0.987677
0.990134
0.992151
0.993796
0.995127
0.996197
0.997051
0.997728
0.998261
0.998677
0.999001
0.99925
0.99944
0.999585
0.999694
0.999776
0.999837
0.999882
0.999914
0.999938
0.999954
0.999965
0.999972
0.999975
0.999975
0.999972
0.999965
0.999954
0.999938
0.999914
0.999882
0.999837
0.999776
0.999694
0.999585
0.99944
0.99925
0.999001
0.998677
0.998261
0.997728
0.997051
0.996197
0.995127
0.993796
0.992151
0.990134
0.987677
0.984705
0.981137
0.976881
0.971843
0.965921
0.959008
0.950997
0.941779
0.931248
0.919302
0.905849
0.890806
0.874105
0.855698
0.835554
0.813667
0.790059
0.764775
0.737892
0.709513
0.679771
0.648824
0.616855
0.584068
0.550683
0.516935
0.483065
0.449317
0.415932
0.383145
0.351176
0.320229
0.290487
0.262108
0.235225
0.209941
0.186333
0.164446
0.144302
0.125895
0.109194
0.0941512
0.0806978
0.0687521
0.0582209
0.0490029
0.0409917
0.0340791
0.0281566
0.0231186
0.0188634
0.0152947
0.012323
0.00986587
0.00784857
0.00620403
0.00487279
0.00380274
0.00294866
0.00227173
0.00173896
0.00132257
0.000999406
0.000750336
0.000559705
0.000414811
0.000305442
0.000223456
0.000162421
0.000117295
8.41597e-05
5.99952e-05
4.24932e-05
2.99029e-05
2.09074e-05
1.45239e-05
1.00246e-05
6.87466e-06
4.68426e-06
3.17131e-06
2.13329e-06
1.42586e-06
9.46941e-07
6.24878e-07
4.09729e-07
2.66952e-07
1.72826e-07
1.11181e-07
7.10721e-08
4.51466e-08
2.84978e-08
1.78758e-08
1.11428e-08
6.9024e-09
4.24905e-09
2.59942e-09
1.58037e-09
9.54872e-10
5.73382e-10
3.42185e-10
2.02957e-10
1.19641e-10
7.00962e-11
4.08184e-11
2.3625e-11
1.35909e-11
7.77134e-12
4.41691e-12
2.49531e-12
1.40128e-12
7.82206e-13
4.34036e-13
2.39412e-13
1.31277e-13
7.15584e-14
3.87768e-14
2.08896e-14
1.11877e-14
5.95687e-15
3.15329e-15
1.65954e-15
8.68362e-16
4.5176e-16
2.33678e-16
1.20182e-16
6.14586e-17
3.12502e-17
1.58001e-17
7.94349e-18
3.97115e-18
1.97416e-18
9.75927e-19
4.79767e-19
2.34547e-19
1.14032e-19
5.51344e-20
2.65113e-20
1.26783e-20
6.03e-21
2.8524e-21
1.34199e-21
6.2797e-22
2.92275e-22
1.35305e-22
6.23037e-23
2.85365e-23
1.30011e-23
5.89203e-24
2.65619e-24
1.19117e-24
5.31393e-25
2.35827e-25
1.04116e-25
4.57287e-26
1.99813e-26
8.68613e-27
3.75669e-27
1.61648e-27
6.92032e-28
2.94771e-28
1.24925e-28
5.26786e-29
2.21025e-29
9.22749e-30
3.83324e-30
1.58451e-30
6.51754e-31
2.66769e-31
1.08657e-31
4.40416e-32
1.77646e-32
7.13088e-33
2.84862e-33
1.1325e-33
4.48082e-34
1.76443e-34
6.91491e-35
2.69718e-35
1.04709e-35
4.04586e-36
1.55598e-36
5.9562e-37
2.26941e-37
8.60685e-38
3.24914e-38
1.22094e-38
4.56698e-39
1.70051e-39
6.30307e-40
2.32571e-40
8.54273e-41
3.1238e-41
1.13716e-41
4.12113e-42
1.48689e-42
5.3409e-43
1.90998e-43
6.80036e-44
2.41062e-44
8.50795e-45
2.98971e-45
1.04604e-45
3.64409e-46
1.26403e-46
4.36576e-47
1.50143e-47
5.14159e-48
1.75325e-48
5.95325e-49
2.01294e-49
6.77771e-50
2.27256e-50
7.58815e-51
2.52319e-51
8.35535e-52
2.75541e-52
9.04942e-53
2.95989e-53
9.64173e-54
3.128e-54
1.01069e-54
3.25246e-55
1.04246e-55
3.32782e-56
1.0581e-56
3.35088e-57
1.05698e-57
3.32092e-58
1.03929e-58
3.23971e-59
1.00595e-59
3.11135e-60
9.5859e-61
2.94194e-61
8.99408e-62
2.7391e-62
8.30984e-63
2.51141e-63
7.56113e-64
2.26781e-64
6.77616e-65
2.01708e-65
5.98176e-66
1.76729e-66
5.20196e-67
1.52549e-67
4.45698e-68
1.29738e-68
3.76266e-69
1.08725e-69
3.1302e-70
8.9791e-71
2.56634e-71
7.30843e-72
2.07379e-72
5.86333e-73
1.65183e-73
4.63697e-74
1.29705e-74
3.61523e-75
1.0041e-75
2.779e-76
7.6643e-77
2.10637e-77
5.76871e-78
1.57438e-78
4.2819e-79
1.16054e-79
3.13462e-80
8.43757e-81
2.26341e-81
6.05097e-82
1.61216e-82
4.28074e-83
1.13282e-83
2.98771e-84
7.85336e-85
2.0574e-85
5.37194e-86
1.39797e-86
3.62598e-87
9.37377e-88
2.41531e-88
6.20301e-89
1.58785e-89
4.05133e-90
1.03032e-90
2.61178e-91
6.59927e-92
1.66209e-92
4.17268e-93
1.0442e-93
2.60474e-94
6.47683e-95
1.60539e-95
3.96663e-96
9.76997e-97
2.39882e-97
5.87136e-98
1.43259e-98
3.48457e-99
8.44943e-100
2.04248e-100
4.92207e-101
1.18249e-101
2.83214e-102
6.76241e-103
1.60976e-103
3.82032e-104
9.03897e-105
2.13218e-105
5.01439e-106
1.17572e-106
2.74847e-107
6.40584e-108
1.48856e-108
3.44878e-109
7.96668e-110
1.83487e-110
4.2136e-111
9.64771e-112
2.20254e-112
5.01363e-113
1.13793e-113
2.57525e-114
5.81118e-115
1.30754e-115
2.93356e-116
6.56276e-117
1.46398e-117
3.25644e-118
7.22297e-119
1.59755e-119
3.52342e-120
7.74902e-121
1.69945e-121
3.71663e-122
8.1054e-123
1.76274e-123
3.82289e-124
8.26781e-125
1.78315e-125
3.83517e-126
8.22595e-127
1.75953e-127
3.75333e-128
7.98457e-129
1.69396e-129
3.58408e-130
7.56268e-131
1.59148e-131
3.34007e-132
6.99109e-133
1.45939e-133
3.03834e-134
6.30879e-135
1.30648e-135
2.6984e-136
5.55858e-137
1.14203e-137
2.34017e-138
4.78279e-139
9.74943e-140
1.98219e-140
4.01959e-141
8.13003e-142
1.64013e-142
3.30025e-143
6.62363e-144
1.32596e-144
2.64762e-145
5.27316e-146
1.04756e-146
2.07581e-147
4.10294e-148
8.08919e-149
1.59082e-149
3.12066e-150
6.10637e-151
1.19188e-151
2.32061e-152
4.50702e-153
8.73173e-154
1.68747e-154
3.25312e-155
6.25599e-156
1.20012e-156
2.29663e-157
4.38425e-158
8.34913e-159
1.58611e-159
3.00587e-160
5.68274e-161
1.07176e-161
2.01648e-162
3.78482e-163
7.08694e-164
1.32384e-164
2.46704e-165
4.58654e-166
8.50679e-167
1.57405e-167
2.90568e-168
5.35124e-169
9.832e-170
1.80224e-170
3.29586e-171
6.01332e-172
1.09458e-172
1.98782e-173
3.60165e-174
6.51065e-175
1.17421e-175
2.11287e-176
3.79317e-177
6.79424e-178
1.2142e-178
2.16496e-179
3.85146e-180
6.83625e-181
1.21068e-181
2.13926e-182
3.77157e-183
6.63448e-184
1.16445e-184
2.03922e-185
3.56322e-186
6.21235e-187
1.0807e-187
1.87585e-188
3.24887e-189
5.6145e-190
9.68137e-191
1.66576e-191
2.85981e-192
4.8991e-193
8.37436e-194
1.42838e-194
2.43107e-195
4.1287e-196
6.9967e-197
1.18315e-197
1.99643e-198
3.36156e-199
5.64807e-200
9.46965e-201
1.58433e-201
2.64506e-202
4.40664e-203
7.32592e-204
1.21535e-204
2.01202e-205
3.32391e-206
5.47973e-207
9.01493e-208
1.48e-208
2.4247e-209
3.96419e-210
6.46775e-211
1.05307e-211
1.71105e-212
2.77447e-213
4.48957e-214
7.25007e-215
1.1684e-215
1.87914e-216
3.01608e-217
4.83111e-218
7.72274e-219
1.23203e-219
1.96152e-220
3.11669e-221
4.94225e-222
7.82215e-223
1.24012e-223
2.2535e-224
)
;

boundaryField
{
    sides
    {
        type            zeroGradient;
    }
    empty
    {
        type            empty;
    }
}


// ************************************************************************* //
