/*--------------------------------*- C++ -*----------------------------------*\
  =========                 |
  \\      /  F ield         | OpenFOAM: The Open Source CFD Toolbox
   \\    /   O peration     | Website:  https://openfoam.org
    \\  /    A nd           | Version:  13
     \\/     M anipulation  |
\*---------------------------------------------------------------------------*/
FoamFile
{
    format      ascii;
    class       volScalarField;
    location    "13";
    object      p;
}
// * * * * * * * * * * * * * * * * * * * * * * * * * * * * * * * * * * * * * //

dimensions      [0 2 -2 0 0 0 0];

internalField   nonuniform List<scalar> 
918
(
0.235049
0.928212
0.0122013
0.234549
0.00135765
0.895348
-0.823534
0.422634
0.215036
-0.137735
0.0206125
0.206415
0.755932
0.52325
-1.4561
0.0155821
0.373846
-0.664439
0.213518
0.0082279
0.497629
0.221699
0.224767
0.215461
0.270675
0.513996
0.636616
0.00441252
-0.00411074
0.000459066
0.00469613
-0.000850478
0.00450757
0.778969
0.830083
0.85274
0.184135
0.0117576
-0.669487
-0.752123
-0.72977
-0.869779
0.408817
0.414086
-0.484819
0.420756
0.435083
0.203138
0.214408
0.215451
0.216337
0.215522
0.216803
0.285441
-0.16455
-0.228238
-0.0789178
-0.0586246
0.0781845
0.0219282
0.0172977
0.0227583
0.0239852
0.144808
0.203176
0.19914
0.210565
0.220139
0.867763
0.839635
0.865774
0.77961
0.796056
0.733859
0.706322
0.542849
0.564362
0.509384
0.496829
-1.89951
-2.87583
-0.853839
-0.592498
0.0015122
0.0223047
0.0274837
0.35358
0.361801
0.366384
0.378597
0.77888
-0.642195
-0.777433
0.213242
0.211994
0.22163
0.222414
0.218455
0.217679
0.0154092
0.0226878
-0.000489332
0.00773894
0.00599054
0.476681
0.470811
0.216212
0.213153
0.227395
0.251531
0.239008
-0.0125905
0.286164
0.314037
0.316552
0.493395
0.492957
0.499942
0.610223
0.573092
0.673863
0.697166
0.00699539
0.00145482
0.0122697
0.00867153
0.0121587
0.181799
0.17673
0.195317
0.185865
0.18917
-0.0687588
-0.197998
0.0903726
0.117371
-0.582057
-0.659126
-0.734453
-0.760042
-0.853891
0.175902
0.39685
0.399804
-0.50028
-0.411637
-0.567857
-0.336108
-0.411683
0.191933
0.200421
0.194945
0.209937
0.20497
0.205907
0.21871
0.215911
0.217391
0.310141
0.377822
0.247098
0.224403
-0.454916
-0.295796
-0.437355
-0.0299976
-0.0196672
0.0879645
0.101236
0.0681058
0.0663641
-0.00203589
0.0150394
0.00164591
0.0258369
0.028114
0.138867
0.129201
0.153442
0.160491
0.194254
0.194754
0.197544
0.198098
0.65704
0.679378
0.686924
0.66053
-3.88965
-6.71169
-0.256362
-0.111637
0.00253281
0.00309098
0.00150783
0.0048747
0.00341972
0.000852487
0.0419921
0.0392709
0.0310182
0.0355653
0.341872
0.347183
0.748985
0.817921
0.684609
0.69834
0.201198
0.204444
0.209142
0.204913
0.0280283
0.0242756
0.0285945
0.435486
0.454248
0.456547
-0.046568
-0.134399
0.0354286
0.0623327
0.330931
0.314711
0.335806
0.382017
0.419294
0.704336
0.722747
0.721198
0.729698
0.773575
0.78989
0.755235
0.165693
0.174809
0.17061
0.200443
0.196796
0.197857
0.193309
0.19638
0.194243
-0.350288
-0.731478
0.2166
0.208583
0.16103
0.175828
0.241721
0.33321
0.375259
0.385035
0.392109
-0.270444
-0.339587
0.188681
0.173118
0.0879191
0.115966
0.101
0.628214
0.588401
0.638429
0.611903
0.573294
0.599794
-0.680665
-2.21614
-1.30998
0.25609
0.0596181
0.152284
0.0580893
0.0461104
0.0493998
0.737822
0.770994
0.423887
0.569192
0.534064
0.458418
0.490415
0.546719
0.470314
0.506355
0.542806
0.522637
0.145249
0.219085
0.143017
0.421103
0.506531
-0.158905
-0.204776
-0.266843
0.11236
0.145228
0.12863
0.662451
0.567245
0.641373
0.212967
0.213409
0.0122202
0.0204077
0.217445
0.217738
0.00837129
0.00957691
0.130926
-1.16637
-0.167698
0.205481
0.195936
0.212906
-0.137794
0.300459
0.0205358
0.0892264
0.0601293
0.20282
0.155261
0.119445
0.00778581
0.020936
0.0165251
-0.431632
0.210443
0.208541
0.212467
0.213629
0.214444
0.00988834
0.0112551
0.00804279
0.0138536
0.0122936
0.0117606
0.181937
0.192777
-0.482799
0.212754
0.214841
0.214787
0.208248
0.213363
0.211416
0.0166224
0.0119275
0.0117388
-0.0612385
0.0552815
0.391167
0.503983
0.339097
0.111887
-0.1335
0.286022
0.355905
0.251064
0.42137
0.378385
0.404145
-0.111646
-0.257598
-0.0969628
-0.150206
0.203485
0.2026
0.194887
0.19121
0.208234
0.206626
0.210597
0.208485
0.210894
0.211835
-0.0784025
-0.0630812
-0.180317
-0.246522
0.327757
0.407032
0.20933
0.243162
0.140999
0.0243708
0.0241324
0.0202093
0.0181375
0.0539256
0.0640892
0.079302
0.0695445
0.0496155
0.0473855
0.0526036
0.0582327
0.0626428
0.197703
0.197814
0.202191
0.209297
0.162127
0.165961
0.137225
0.152952
0.143891
0.0875347
0.11915
0.0986549
0.00920336
0.0102268
0.00845503
0.0249628
0.0292856
0.0161952
0.0139889
0.014449
0.0122416
0.0126045
0.0205273
0.0235911
-0.445785
-0.540342
0.75128
0.636476
-0.454593
0.199273
0.205444
0.202736
0.207831
0.21051
0.21098
0.209013
0.206405
0.193743
0.195005
0.1917
0.192363
-0.422983
-0.568628
-0.388461
-0.448156
-0.17182
0.317875
0.0672205
0.00637563
0.00340026
0.215196
0.591546
0.407811
0.456955
0.476574
-0.668489
-0.264094
-0.598062
0.0175386
-0.162328
0.391556
0.443926
0.466515
0.412561
0.36054
-0.421705
0.198485
-0.359957
-0.329024
-0.143401
-0.226468
0.428337
0.362667
0.368392
0.391351
0.415434
0.365811
0.347532
0.343782
0.383246
0.388114
0.179719
-0.0232942
-0.0718845
-0.105349
0.342795
0.222829
0.277408
0.19794
0.197836
0.20086
0.19994
0.184891
0.190485
0.185787
0.191478
0.19347
0.203967
0.203602
0.199385
0.20183
-0.0348348
-0.021982
-0.1476
-0.361312
-0.248812
-0.347018
-0.221015
0.0183197
0.0450221
-0.134745
0.136062
-0.116684
-0.418458
-0.300504
-0.489421
-0.16499
-0.285635
0.0948904
0.150104
0.160953
0.138473
0.202837
0.187007
0.0392166
0.0474104
0.030598
0.0299279
0.0932842
0.113226
0.110381
0.0481425
0.0503628
0.0268434
0.0278685
0.0647753
0.0408349
0.0517087
0.0633863
0.0222335
0.0251005
0.0298523
0.0391507
0.039169
0.0418291
0.192926
0.195184
0.193573
0.20533
0.216728
0.230244
0.200976
0.178963
0.171669
0.175359
0.152544
0.158896
0.157745
0.166345
0.184533
0.19039
0.189751
0.191372
0.177705
0.179393
0.166572
0.170251
0.1541
0.137996
0.126009
0.0194239
0.0123785
0.0162471
0.0166284
0.0114647
0.0137459
0.0430796
0.0344859
0.0384479
0.0339543
0.0380748
0.0183594
0.0192262
-0.55414
-0.570452
-0.518003
-0.561052
-0.582413
0.663637
0.703904
0.588179
0.291672
0.279669
0.54993
0.717509
0.383295
0.461165
0.485222
0.115192
0.417096
0.206119
0.204815
0.201742
0.202194
0.204271
-0.317524
-0.220748
-0.222195
-0.174947
-0.0365833
0.066511
0.137027
-0.189396
-0.043331
0.0130902
0.311317
0.327855
0.273929
0.298526
0.296792
0.130906
0.201631
0.247707
0.214167
0.252066
0.270852
0.233503
0.262418
0.216127
0.177086
0.177501
0.124832
0.140841
0.122174
0.106432
0.194365
0.174465
0.183823
0.176801
0.194828
0.226446
0.218044
0.239949
0.25639
0.184842
0.147527
0.155853
0.184144
0.145043
0.156305
0.171145
-0.0881749
-0.184062
-0.134488
-0.437951
-0.325429
-0.337473
-0.385498
-0.365968
-0.086773
-0.787268
-0.735224
-1.37283
0.132504
0.62578
0.38529
0.353317
0.412299
0.386185
0.384733
0.423248
0.429773
0.33476
0.353699
0.355944
0.307283
0.333773
0.362733
0.359534
0.17632
0.0700552
0.0597988
0.0291939
-0.096953
-0.068563
0.143621
0.0669369
-0.00807425
0.00137282
0.162117
0.0628301
0.120506
0.157091
0.0894195
0.0486743
0.237985
0.303434
0.298878
0.26656
0.188898
0.201231
0.225007
0.25645
0.284908
0.32191
0.192426
0.196815
0.198686
0.196722
0.192683
0.195789
0.195186
0.197401
0.19781
0.200412
0.199557
0.0164004
0.0194655
-0.00227042
0.00595836
-0.0145698
-0.0443028
-0.00168125
-0.0603253
0.0299512
0.0234314
-0.00884764
-0.00961686
-5.63576e-05
0.0136914
0.117612
0.132702
0.116488
0.0676795
0.0307333
0.2867
0.241767
0.177702
0.0824723
0.159324
0.255856
0.0738369
0.0842481
0.072379
0.0918898
0.0870233
0.0332514
0.0296956
0.0329786
0.0426274
0.0391657
0.0301064
0.025221
0.0269031
0.0291958
0.0284296
0.0282718
0.178542
0.174701
0.17685
0.170727
0.169385
0.18184
0.184691
0.185985
0.190583
0.192166
0.184361
0.187793
0.191165
0.0290952
0.0228658
0.0248078
0.025319
0.0246049
0.0217289
0.0223068
-0.504442
-0.574194
-0.881385
-0.49034
-0.513065
-0.51728
0.189805
0.0343137
0.186373
0.287594
0.177572
0.0976392
0.143918
0.221109
-0.0519031
0.03904
-0.108526
0.572693
0.391863
0.554616
0.0802935
-0.105588
0.0278414
0.0873666
-0.0976493
-0.0419453
-0.000330945
-0.109331
-0.0810313
-0.0527757
0.0432696
-0.0394501
-0.0582944
-0.236028
-0.0183877
-0.0142064
-0.0421932
0.0905363
0.155589
0.0327465
-0.113424
-0.167844
0.301604
0.320553
0.335621
0.311785
0.330038
0.259493
0.249218
0.268567
0.278475
0.272388
-1.11474
-0.834329
-1.76107
-1.06943
-0.652977
0.156916
0.118347
0.39777
0.301316
0.386722
0.368958
0.335389
0.299683
0.301039
0.33918
0.0580475
0.161609
0.136427
0.142059
0.0491772
-0.0115515
0.269148
0.266029
0.302106
0.326783
0.291997
0.329202
0.189363
0.188736
0.18984
0.186408
0.18262
0.184447
0.0810349
0.0656661
0.0659367
0.0495932
0.0442817
0.0543551
0.0334959
0.0301924
0.0272964
0.0277258
0.0311968
0.0350964
-0.176522
-0.339263
-0.43759
-0.474747
-0.334409
-0.435328
-0.427219
-0.390491
-0.261464
-0.263526
-0.0418904
0.247593
-0.0155815
0.242905
-0.0758469
0.119676
0.218265
0.183282
0.22435
0.084853
0.182305
-0.198808
-0.643798
-0.565459
0.425419
0.43563
0.207665
-0.00460548
-0.212106
0.0052109
0.212741
0.156133
0.19737
0.262808
0.260654
-0.355666
-0.275062
-0.0955891
0.148861
-0.147746
-0.145497
-0.159074
0.00262529
-0.0666558
)
;

boundaryField
{
    wall-4
    {
        type            zeroGradient;
    }
    velocity-inlet-5
    {
        type            zeroGradient;
    }
    velocity-inlet-6
    {
        type            zeroGradient;
    }
    pressure-outlet-7
    {
        type            fixedValue;
        value           uniform 0;
    }
    wall-8
    {
        type            zeroGradient;
    }
    frontAndBackPlanes
    {
        type            empty;
    }
}


// ************************************************************************* //
