/*--------------------------------*- C++ -*----------------------------------*\
  =========                 |
  \\      /  F ield         | OpenFOAM: The Open Source CFD Toolbox
   \\    /   O peration     | Website:  https://openfoam.org
    \\  /    A nd           | Version:  13
     \\/     M anipulation  |
\*---------------------------------------------------------------------------*/
FoamFile
{
    format      ascii;
    class       surfaceScalarField;
    location    "13";
    object      phi;
}
// * * * * * * * * * * * * * * * * * * * * * * * * * * * * * * * * * * * * * //

dimensions      [0 3 -1 0 0 0 0];

internalField   nonuniform List<scalar> 
1300
(
3.75095
5.62643
-6.19773
3.75095
-6.05768
5.62643
-4.48746
4.48746
-1.46505
1.46505
1.87688
1.87407
-4.45558
4.45558
-4.77199
4.77199
-2.82413
2.82413
-5.24641
5.24641
-5.06741
5.06741
4.69023
-4.69023
-4.91801
4.91801
-1.8829
1.8829
-3.97317
3.97317
3.17633
-3.17633
-5.08681
5.08681
-0.517039
0.517039
-0.554548
4.3055
3.19641
3.19641
-2.54635
2.54635
-4.84975
4.84975
6.21823
-6.21823
9.41898
-9.41898
-3.22125
-3.39182
1.35016
-8.11474
-4.70752
-4.70752
-8.44042
8.44042
-2.81399
2.81244
2.93954
-2.93954
-1.6841
1.6841
-4.47912
-0.00833914
-4.47912
4.46539
0.0220682
4.46539
-1.59432
0.12927
-1.59432
4.09542
-4.09542
1.29609
0.168958
1.29609
3.06346
-3.06346
-1.87714
3.75402
1.87381
-1.87285
6.17835
-1.8781
3.75217
-5.01018
5.01018
-4.29274
-0.162841
-4.29274
4.58227
-0.126689
4.58227
-5.22867
5.22867
-4.72704
-0.0449583
-4.72704
4.84093
-0.0689406
4.84093
3.04106
-3.04106
-2.85573
0.0316033
-2.85573
2.77884
0.0452872
2.77884
0.353587
5.27284
-5.98002
8.79246
-5.27284
0.0264369
5.20849
0.0379134
5.20849
-5.10596
0.0385537
-5.10596
5.01017
0.0572381
5.01017
4.78514
-0.0949128
4.78514
-4.80227
0.112045
-4.80227
-3.3267
-3.36385
-5.01334
0.0953309
-5.01334
-1.929
0.0461045
-1.929
1.84058
0.0423181
1.84058
-3.50776
3.50776
-4.08978
0.116605
-4.08978
3.1301
0.04623
3.1301
1.8682
1.88275
5.61916
-5.61916
2.44283
-5.05075
-0.0360629
-5.05075
-5.12566
-4.29332
5.12566
-0.0388544
-0.822856
0.305818
-0.822856
3.15779
0.0386194
3.15779
2.70067
0.0781661
-2.70067
0.154325
3.43228
-3.43228
1.90316
0.643184
1.90316
-5.57288
5.57288
4.94786
0.0623087
-4.94786
0.0981092
6.15715
0.0610769
6.15715
-6.19948
-0.0187457
-6.19948
3.38648
-6.7783
-3.39753
4.81285
0.105155
-4.81285
0.105332
2.95061
-0.0110664
2.95061
-2.90114
2.90114
-2.96434
0.0248013
-2.96434
-2.11822
0.434124
-2.11822
1.3649
0.319198
1.3649
-4.39406
-0.0850535
-4.39406
-4.31581
0.226033
4.31581
0.149575
0.794462
-0.794462
-1.71372
0.119403
-1.71372
-4.23733
-0.156737
4.23733
-0.14191
-3.99197
-0.103447
-3.99197
-3.01036
0.0460178
3.01036
0.0530927
3.11555
0.0422393
-3.11555
0.0520914
-1.87122
3.75397
-1.87973
3.75354
-4.79766
-0.212524
-4.79766
5.14898
-0.138798
5.14898
4.09846
-0.125282
-4.09846
-0.194282
4.65522
-0.0729552
4.65522
-5.22975
0.00107588
-5.22975
5.24099
-0.0123217
5.24099
4.70274
-0.0475216
-4.70274
-0.0242911
4.92299
-0.0820576
4.92299
3.09274
-0.0516814
3.09274
-3.00681
-0.0342517
-3.00681
2.88359
-2.88359
2.87658
0.0070043
-2.87658
0.0208515
-11.1327
11.114
-0.034967
-11.0977
5.17353
5.17353
4.20296
0.582178
4.20296
-5.01093
0.208657
-5.01093
3.33505
-6.73259
3.37605
-6.70275
3.35508
-11.4698
3.33954
-6.70339
5.16555
-5.16555
5.09448
0.0710721
-5.09448
0.0811403
-1.97176
0.0427543
-1.97176
-3.0262
-0.481564
-3.0262
3.94533
-0.437564
3.94533
-3.02236
3.02236
-3.07791
0.0555579
3.07791
0.0521806
4.9958
-0.0728088
-4.9958
-0.0549446
1.07046
0.225635
-1.07046
0.247599
3.62466
-0.192379
3.62466
-3.26318
-0.169107
-3.26318
-1.93631
-0.0354434
1.93631
-0.0331491
-5.81843
0.245547
-5.81843
-11.1908
0.0930568
-11.1529
-6.10642
-6.10642
2.334
11.1265
-2.9748
-0.0320092
2.9748
-0.0241899
2.95655
0.0658076
-2.95655
0.0554132
-2.88346
-0.000125746
2.88346
0.0176758
-2.52879
0.410569
-2.52879
-0.987187
0.987187
-1.14683
0.159645
1.14683
0.218071
1.06094
-0.266475
1.06094
1.77498
0.0656017
-1.77498
0.0612555
-3.89441
-0.0975565
-3.89441
5.22782
-0.0788414
5.22782
-3.15377
-0.109411
3.15377
-0.0610241
-0.0333319
11.1473
-5.14019
0.0342344
5.14019
-11.2084
11.2426
-3.22843
0.699636
3.22843
0.974534
5.29722
0.275657
-5.29722
0.286293
5.21838
0.0226124
-5.21838
0.0528276
-2.5005
-0.525694
-2.5005
-4.42211
-0.375551
4.42211
-0.476781
-11.4756
-0.201534
11.6771
-11.4184
6.01996
0.137187
-6.01996
11.3798
-0.790192
-0.00426934
0.790192
0.196994
1.46001
-0.399076
1.46001
3.79061
-0.165946
-3.79061
-0.103803
-5.24196
0.0122119
5.24196
-0.0141361
-1.93885
-0.561657
1.93885
-0.478834
-4.26689
4.30551
1.91147
-3.3705
-3.4078
-7.66382
1.85196
1.90202
4.29479
-7.07713
-4.39268
-6.9718
7.27701
-6.99072
-9.31565
9.22074
7.44123
-7.54468
-5.7734
5.82558
6.45963
-6.40653
1.88052
1.8735
9.04156
-9.2044
-11.93
11.7175
10.1262
-10.1711
11.0179
-11.0168
-12.5591
12.5817
-5.74826
5.77986
-6.60765
6.5734
-6.78853
6.7275
-3.29472
-3.40803
9.14124
-9.04591
11.7501
-11.7862
-7.25656
7.37317
3.38644
0.919063
3.42868
-1.88139
3.76192
-1.87078
3.78225
3.38997
-6.68469
3.34262
-6.75042
6.0729
5.67722
-6.03405
-1.62977
-5.85958
5.84852
-5.852
5.86968
8.86538
-8.87372
-1.88471
3.75821
-1.86883
3.77085
-3.4192
-2.3542
3.37297
0.921812
5.60225
3.53899
-5.7074
-1.2644
-7.63666
7.47071
-7.9184
7.74929
-0.459079
5.82711
-5.36803
4.39067
-1.55286
7.37997
5.72415
5.93281
5.86959
-5.59393
1.12113
-6.48916
-6.39105
-2.71536
2.83477
2.65508
-2.48612
5.86919
1.57204
5.72728
-5.42802
-2.11666
-5.52558
3.81241
2.01317
3.86796
4.02326
2.43637
4.06928
3.03346
-3.03656
0.00309779
-3.06012
6.09358
0.721646
-5.41431
-4.4925
6.33263
2.70893
6.20594
-5.52721
-3.67719
-5.72149
-7.28254
-4.64747
-7.65809
7.36564
4.35184
7.22684
-8.36862
8.35448
6.75559
3.37056
6.68665
-6.64274
-3.52837
-6.66703
10.5862
-2.56906
-8.01715
-7.06513
-5.49393
7.07746
3.94046
7.61904
4.96264
7.67187
3.56932
7.01689
-7.50978
2.01585
-3.8414
-1.90686
-3.82055
3.74004
2.03982
3.78533
-4.13137
-2.47628
-4.16338
-4.1994
-2.58913
4.25108
2.32232
-4.31583
-3.60257
4.42524
2.30226
3.07929
-7.47197
3.6241
-7.03214
-6.37205
-2.67385
-6.29091
4.13387
2.61264
-6.74651
-2.55082
10.931
-5.25378
9.30123
-7.29737
-4.48882
-7.35231
-6.04336
-1.2132
-5.81733
-8.55472
8.02903
-7.80188
7.36431
14.6945
-6.16449
-8.53001
-3.96996
-2.43657
3.91787
-0.489186
-3.71295
3.71605
0.0489612
3.83121
4.75027
4.26108
-3.87796
-1.97405
-3.82254
3.86813
2.00155
3.868
6.58105
2.28433
6.60312
-6.44072
-2.433
-6.52578
9.01803
-8.58391
2.91762
-2.95306
5.16375
2.58554
-4.97138
-2.66528
6.00875
-3.03991
-2.96883
-12.232
10.607
1.62498
-4.85203
-0.461354
0.0556846
-5.51934
-3.79631
5.40729
0.525516
11.1325
7.33621
-5.51528
5.76083
6.16184
6.22415
-0.166895
5.84662
-5.14698
5.1565
-2.25572
-2.90078
5.25706
-5.4138
-1.26871
-5.2986
4.02989
0.313475
1.88894
-1.58312
-2.11622
-0.599147
-2.05496
1.59397
1.0611
1.81961
1.00395
1.83082
-2.93096
0.526031
2.40493
-1.92702
-1.96009
-3.59276
-0.908427
4.50118
5.45539
2.01533
-5.35158
-0.173993
2.76966
-2.72734
-0.878039
-2.71472
1.92344
-2.80148
-3.43725
-1.79536
5.2326
-3.36993
-0.452614
3.30412
0.563842
-3.7481
-2.11148
3.7233
0.345983
-3.12159
6.23038
-3.10879
-5.09563
2.53168
3.5619
4.54485
-4.8155
2.44894
2.36656
-1.25359
5.61636
0.589586
5.5434
-7.72188
4.04469
5.45612
1.91705
-5.33084
-0.390651
-8.11253
10.8581
-8.02887
-2.82922
6.72384
4.13425
6.41553
8.27898
-6.38599
12.8015
1.13237
-9.16124
6.98016
-5.06312
3.71375
-8.77686
-11.9927
2.83149
-7.75045
8.83817
-1.08772
-2.38212
-5.9865
10.1326
-1.1615
-8.97107
6.06534
-5.49488
-5.28753
10.7824
-8.06393
8.81591
-2.83844
-5.97747
-6.99021
-4.02663
6.978
1.37648
-9.9956
12.0114
-2.97872
5.89814
0.788508
5.81608
4.1831
-6.01223
1.82913
3.88083
-6.71927
3.20035
-9.21258
-4.93083
9.61687
-4.68604
-7.60468
-6.81318
-0.7915
2.02909
9.98236
-6.99173
5.36116
1.63057
3.3433
0.524703
-3.35031
-0.47024
0.350748
4.44075
-4.7915
4.13607
4.21424
3.36593
1.07482
3.81993
2.02859
-3.79574
-0.367645
-4.02115
1.43202
-1.69883
-3.54105
4.97307
-3.95906
0.418006
-2.6421
-3.48918
6.13129
-4.54897
3.08623
3.14415
5.08778
-4.85021
1.36102
-2.40399
-2.44622
2.59804
-4.29686
1.88714
3.08593
4.1894
0.586835
4.89675
4.72012
-7.50939
0.477256
8.25911
-6.99471
1.72394
5.94793
-7.08509
0.271912
-6.019
1.09647
-6.35025
-5.65004
4.23689
-5.45009
-4.53997
5.73953
0.863589
-5.8891
0.0717736
-5.84444
-2.71029
-6.40609
-2.2687
-5.53318
-8.65469
-2.01429
-6.6404
6.01474
-5.2975
-2.36059
5.77428
1.59003
-7.2787
7.27443
-7.5936
7.19453
0.0883534
3.6277
4.34944
1.91286
-2.37411
4.28697
-4.96355
7.24789
-8.65872
3.69517
4.07393
-6.50693
-4.58479
4.92671
4.09132
5.24591
9.05807
-10.4974
1.43929
-10.7254
12.7867
-2.06127
-16.6375
5.91201
-7.57938
2.64656
0.271066
2.68931
0.676172
2.35155
-3.02772
-2.27689
-2.31004
-2.26178
-3.25911
5.52089
1.18505
-3.28842
2.10338
-3.41719
4.60224
-0.075018
-3.21341
5.12263
-2.77108
5.3937
-3.49221
1.90149
3.23766
5.47518
-2.23752
4.1665
-1.58096
1.7579
-3.99542
-1.50121
-2.96727
5.0071
-3.16402
3.58202
-0.215595
3.79762
-4.0043
0.964388
-0.638374
3.57587
3.73019
4.10665
-3.03182
2.8576
-4.43856
-1.13782
-3.85172
-0.765793
-0.759295
-3.59686
4.35615
5.85351
-6.61281
-5.38577
9.58999
-4.20422
7.71249
-5.46614
-2.24635
-4.25926
-4.32465
3.84869
1.99792
9.71042
0.172671
-5.63881
-4.97431
-3.99978
3.13368
2.02282
-2.0628
3.68778
2.00712
-0.118173
0.642387
1.17722
1.89858
-1.25619
0.158302
1.74027
-1.42482
2.04377
0.725889
-2.10937
0.0544144
-1.42108
3.34452
0.983857
-2.04496
0.788773
1.0884
-3.34413
4.65979
-2.27717
-2.38262
5.7482
1.22399
-3.50116
4.07461
-3.76113
2.28492
-3.19335
-1.21624
-4.97737
-3.40533
-2.45296
4.55634
-3.06793
5.08325
1.11909
-4.90926
6.02835
-3.4473
1.65195
-3.0645
3.79039
-1.15494
-1.90956
2.62084
2.61176
-2.78994
0.0752244
-0.169098
2.19508
-2.36417
-0.606406
-2.53342
-4.55324
4.89922
-2.17009
4.61903
2.11687
-1.927
6.54604
1.83347
-3.76047
-3.26216
-3.71478
-1.39391
3.15094
-1.05692
-5.61011
-7.03439
5.65763
-0.114223
-8.14809
10.0779
-1.92986
-5.43916
1.39447
5.32937
-7.7306
1.01133
-4.53025
5.54769
6.13728
6.02306
-9.49021
0.519139
-5.13837
2.2474
-7.38577
6.38165
-5.12122
7.95271
-9.27033
6.90974
-7.6803
5.12349
-2.26227
5.6009
-3.77177
2.41625
-6.44288
-5.06639
7.008
-3.63743
7.7965
-4.16626
11.9628
-7.14497
7.00628
4.95648
-1.45667
-5.89564
-6.85392
5.39725
0.152367
5.96845
4.92289
-2.8943
4.55524
2.2179
-4.62189
-2.07896
-6.47483
1.85294
-3.33069
-1.87952
3.73246
3.20826
3.73296
1.28624
-3.26272
6.74084
-7.53234
-2.05479
-3.59525
6.76605
-1.3688
4.07302
-7.66827
-2.27723
6.20497
-0.541977
-5.66299
-0.0404729
-4.4995
0.774026
-5.27353
4.67607
-4.60429
2.17762
-9.757
-5.10108
-4.90409
-2.40208
-5.19152
-7.72844
5.32636
-1.81643
5.458
-8.81607
8.27409
-3.97065
9.29701
-5.40134
-1.00475
5.88018
1.31435
10.6114
0.020007
-4.6048
-1.80004
3.82512
-2.02508
1.33364
-3.57685
0.248275
2.44365
3.30455
-6.47354
-0.03339
-4.63819
-3.81977
7.91109
5.77022
11.6237
1.12637
9.14346
-1.23237
10.2698
4.01354
4.23161
-3.27698
4.71627
1.07917
4.77434
-0.851655
2.75315
1.83766
1.88376
0.843584
2.27726
1.45293
3.24165
0.213924
-2.09612
4.69267
-8.69245
-0.946141
-8.11027
1.11047
5.77856
-4.66809
3.0356
-1.01278
1.01052
0.208506
-1.83755
1.62904
-2.69227
-1.95572
-0.21545
-1.50016
2.28893
1.84436
-2.07348
-0.618789
0.265402
-3.67073
2.92794
-2.85272
-0.240962
5.78739
-2.65874
0.294566
-1.0068
-2.23886
-2.838
2.78359
6.24666
0.299374
3.13787
5.1986
3.08711
0.192816
5.34125
-6.42897
-3.87133
-5.90983
0.471819
5.80119
2.10823
7.87413
7.06471
5.69591
-1.97237
-9.5047
8.0008
-3.28453
5.93953
-0.276539
-4.99699
4.53365
2.71423
-5.39724
0.792949
-4.20404
-7.48857
-0.509578
8.78367
-10.1018
9.09703
6.38674
0.253656
-4.22701
-0.67708
4.06736
0.164247
10.4341
-1.15582
-6.97217
8.12799
-4.62274
3.6766
0.847494
2.84029
2.47654
1.46376
-5.50841
-10.1765
-1.76115
-1.58297
-4.14378
0.357405
-2.20176
6.28037
-2.60377
4.03401
5.52422
6.53474
-2.32856
-4.28425
6.53277
-2.49876
4.03598
)
;

boundaryField
{
    wall-4
    {
        type            calculated;
        value           uniform 0;
    }
    velocity-inlet-5
    {
        type            calculated;
        value           uniform -3.75095;
    }
    velocity-inlet-6
    {
        type            calculated;
        value           uniform -5.62643;
    }
    pressure-outlet-7
    {
        type            calculated;
        value           nonuniform List<scalar> 8(6.19773 6.05768 6.61307 6.76458 6.69055 6.78402 6.7111 6.69462);
    }
    wall-8
    {
        type            calculated;
        value           uniform 0;
    }
    frontAndBackPlanes
    {
        type            empty;
    }
}


// ************************************************************************* //
