/*--------------------------------*- C++ -*----------------------------------*\
  =========                 |
  \\      /  F ield         | OpenFOAM: The Open Source CFD Toolbox
   \\    /   O peration     | Website:  https://openfoam.org
    \\  /    A nd           | Version:  13
     \\/     M anipulation  |
\*---------------------------------------------------------------------------*/
FoamFile
{
    format      ascii;
    class       volVectorField;
    location    "13";
    object      U;
}
// * * * * * * * * * * * * * * * * * * * * * * * * * * * * * * * * * * * * * //

dimensions      [0 1 -1 0 0 0 0];

internalField   nonuniform List<vector> 
918
(
(0.985272 -0.000406379 0)
(0.00500064 2.96626 0)
(-0.00095567 1.65177 0)
(0.979779 0.00206209 0)
(0.000698639 1.61488 -6.35002e-22)
(-0.00702852 2.94878 -1.90229e-18)
(0.850202 1.1829 7.25966e-19)
(0.500536 0.23914 -9.24306e-21)
(0.999966 -0.000451267 0)
(0.0183242 1.30906 0)
(-0.00811807 1.3883 0)
(0.831984 -0.00490619 0)
(0.0110955 2.93031 0)
(0.00165256 2.79448 0)
(-0.0182792 3.17262 1.08135e-18)
(-0.00320068 1.52826 -1.76445e-20)
(0.597101 0.106388 5.74156e-19)
(0.184678 1.26448 5.57403e-19)
(0.965732 0.00553678 0)
(0.00104682 1.50581 0)
(0.17184 0.276611 -4.9014e-19)
(1.00132 -0.00524354 0)
(1.00011 -0.0100303 0)
(0.975462 -0.00668514 0)
(0.749015 -0.0246577 0)
(0.0177549 2.62909 0)
(-0.0152388 2.91024 6.60165e-19)
(-0.00944509 1.67318 0)
(-0.00884774 1.76335 0)
(-0.00785195 1.6697 0)
(0.00308841 1.80337 0)
(0.00163384 1.6274 5.02701e-22)
(-0.00175094 1.53901 0)
(-0.0206147 2.98758 -6.66618e-23)
(-0.0167089 3.00531 1.47875e-18)
(0.00210614 3.00022 0)
(0.874859 -0.00513538 0)
(0.3721 0.893457 -2.69715e-20)
(0.842253 1.19807 -1.01032e-18)
(0.985338 1.05479 9.51212e-19)
(0.70866 1.28791 -1.70041e-19)
(0.695818 1.26666 9.45652e-19)
(0.533647 0.309081 9.01833e-21)
(0.526567 0.211926 0)
(1.19489 0.572628 0)
(0.493378 0.325199 4.18383e-20)
(0.458772 0.235954 -4.34127e-20)
(0.918496 -0.007357 0)
(1.00044 1.1327e-05 0)
(0.999956 0.000358151 0)
(1.00428 -0.00776503 0)
(1.00055 -0.000681566 0)
(1.00012 0.000156249 0)
(0.0390992 1.58183 -5.48326e-19)
(-0.00712541 1.40482 0)
(0.0215576 1.25455 0)
(-0.00992987 1.46841 0)
(0.0180607 1.33113 0)
(0.00187011 1.5742 0)
(-0.0107431 1.5342 0)
(0.00131435 1.37911 0)
(-0.0153889 1.56005 0)
(-0.0101303 1.41222 0)
(0.90602 -0.000406686 0)
(0.906678 0.00679337 0)
(0.845427 0.00102477 0)
(0.899421 0.0102366 0)
(0.819939 -0.00625808 0)
(0.0147087 3.00039 6.96988e-19)
(0.0115419 3.00786 0)
(0.0061448 3.00286 0)
(0.0135712 2.99732 7.78093e-24)
(0.00798731 2.95845 -1.0359e-18)
(0.0145182 2.98207 0)
(0.0107758 2.90363 0)
(0.0254393 2.93 1.40494e-24)
(0.00392938 2.82511 0)
(0.032284 2.91509 0)
(-0.00713122 2.74438 0)
(0.311376 3.57268 0)
(-0.13246 3.65531 0)
(0.141034 3.2632 -1.00637e-18)
(-0.00958487 2.99433 0)
(-0.0039496 1.7837 0)
(-0.00340897 1.64747 1.74066e-20)
(-0.00310971 1.54116 -2.66337e-20)
(0.658409 0.164703 -1.97246e-19)
(0.618375 0.0710726 -1.9062e-19)
(0.625849 0.196848 -5.90702e-19)
(0.581575 0.133256 -3.94485e-19)
(0.27621 1.09332 0)
(0.215187 1.29402 -5.84246e-19)
(0.342541 1.27465 9.75338e-19)
(0.988566 0.00915931 0)
(0.944169 0.00811419 0)
(1.00033 0.00063527 0)
(1.0027 0.0094695 0)
(1.00234 0.00852962 -1.1079e-18)
(0.991921 0.00972165 8.37016e-19)
(-0.00676814 1.61401 0)
(-0.00418998 1.50082 0)
(-0.0126516 1.68256 0)
(-0.00901608 1.63657 0)
(0.00109676 1.52008 0)
(0.253636 0.286286 1.51088e-19)
(0.294155 0.267831 0)
(0.993074 -0.00866 0)
(0.954004 -0.00631556 0)
(0.875437 0.0197421 0)
(0.840369 0.0327684 0)
(0.795968 -0.00549034 0)
(1.02615 -0.00429775 0)
(0.789958 0.0363152 0)
(0.670375 -0.0174458 7.75795e-19)
(-0.0346882 2.86757 3.43508e-19)
(0.0440506 2.90779 0)
(0.0579994 2.88199 0)
(-0.00558352 2.69545 0)
(-0.0130975 2.98512 6.07897e-19)
(-0.0184021 2.89561 0)
(-0.0154367 2.98804 -1.92088e-18)
(-0.0135001 2.92522 6.63181e-19)
(-0.00580779 1.81367 0)
(-0.00408604 1.80866 0)
(-0.00195916 1.64911 -3.58371e-22)
(-0.000126838 1.62717 0)
(-0.00500929 1.52606 0)
(0.935907 -6.06622e-05 0)
(0.874865 0.000857889 0)
(0.85836 0.00414202 0)
(0.939305 -0.00322596 0)
(0.881816 -0.00360469 0)
(0.482558 1.09124 2.35684e-20)
(0.535554 1.1549 0)
(0.337628 0.825595 4.52891e-21)
(0.276693 0.69302 0)
(0.956701 1.08298 -2.74696e-19)
(1.0749 0.898918 5.69547e-19)
(0.400722 1.3319 0)
(0.5803 1.32861 0)
(0.493592 1.30179 0)
(0.0993887 0.066986 -9.64024e-20)
(0.566351 0.284253 0)
(0.555545 0.190874 1.13909e-19)
(1.0448 0.945437 0)
(1.11497 0.791106 0)
(1.14117 0.738658 -4.98041e-19)
(1.17464 0.630291 0)
(1.22753 0.41538 6.12053e-20)
(0.949976 -0.00527247 0)
(0.958556 -0.00928523 0)
(0.89825 -0.00666249 0)
(0.984452 -0.0087719 0)
(0.975503 -0.00791829 0)
(0.939131 -0.00595855 0)
(1.00017 0.00229285 0)
(1.00074 0.00138633 0)
(0.999941 0.000766507 0)
(0.027866 1.70829 2.95654e-19)
(0.0738996 1.54813 0)
(0.0148672 1.73339 4.89444e-19)
(0.023776 1.59756 -4.17122e-19)
(0.0529947 1.27885 -4.63487e-19)
(-0.030276 1.3412 0)
(0.0643216 1.23549 0)
(-0.00310232 1.50308 0)
(0.0128456 1.34842 0)
(-0.00234655 1.67933 -1.20508e-21)
(-0.0037892 1.58502 0)
(0.000914418 1.68313 -5.84977e-20)
(0.000446195 1.58332 1.12372e-19)
(-0.00320616 1.52404 0)
(-0.00273003 1.53365 0)
(0.0092377 1.36735 0)
(-0.0184503 1.58125 0)
(-0.0120138 1.44002 0)
(0.974564 0.013781 0)
(0.924392 0.00456637 0)
(0.958184 0.00720883 0)
(0.897254 0.0017042 0)
(0.849464 -0.00600872 0)
(0.92585 0.000306729 0)
(0.919007 0.00809572 0)
(0.847247 -0.000199201 0)
(0.00606383 3.06455 -6.15183e-21)
(0.0161948 3.05817 0)
(0.0147204 2.9692 0)
(0.00854523 2.87635 0)
(0.927043 3.99211 0)
(1.24129 3.3178 1.01286e-18)
(0.0718476 3.08613 0)
(-0.0259591 2.91278 0)
(-0.00797024 1.79454 0)
(-0.00894107 1.78651 0)
(-0.00592784 1.78917 0)
(-0.000981104 1.79154 5.78709e-21)
(-0.0062832 1.78547 0)
(-0.00011679 1.78483 0)
(-0.00419007 1.55544 2.98872e-21)
(-0.00499783 1.6709 3.53665e-20)
(-0.00418092 1.66047 2.72073e-20)
(-0.00271968 1.54481 0)
(0.689567 0.131544 2.89822e-19)
(0.65368 0.0443596 -2.81548e-19)
(0.236174 1.34322 0)
(0.297622 0.891944 -2.5839e-19)
(0.169297 1.44712 -7.707e-19)
(0.216779 1.25199 7.68976e-19)
(0.899308 0.00999238 0)
(0.966822 0.0135546 0)
(0.976229 0.0130429 0)
(0.923499 0.0105397 0)
(-0.0163892 1.59865 0)
(-0.0118758 1.60915 0)
(-0.00991212 1.4704 0)
(0.447306 0.343903 3.85147e-19)
(0.365877 0.321863 -4.68543e-19)
(0.383889 0.244651 0)
(1.14297 0.0839118 -2.65185e-21)
(1.12794 0.0388541 0)
(1.05979 0.0328169 0)
(0.975853 0.00309314 0)
(0.710492 0.0851227 0)
(0.732783 0.0555051 -1.24727e-18)
(0.660783 0.0122029 4.77086e-19)
(0.0100246 2.98265 4.33967e-19)
(-0.0320355 2.8682 4.81686e-20)
(0.00395604 3.05016 -1.32733e-20)
(0.0198585 3.04359 4.77531e-19)
(-0.0150708 2.9965 2.2031e-20)
(-0.0129794 2.94937 -8.91794e-23)
(-0.0173149 3.01201 -4.17104e-19)
(0.0147648 3.02411 3.01558e-19)
(0.00725134 3.03675 -4.72032e-19)
(0.953452 0.00720726 0)
(0.946542 0.00517745 0)
(0.882507 0.00380916 0)
(0.953751 0.0124593 0)
(0.937498 0.0123958 0)
(0.875247 0.00873072 0)
(0.926669 -0.00190329 0)
(0.922791 0.0034534 0)
(0.849569 -0.0050107 0)
(0.694301 1.39151 3.17933e-19)
(0.735597 1.50799 0)
(0.213191 0.411441 3.09461e-20)
(0.1742 0.534517 2.44606e-19)
(0.25373 0.649247 -1.16796e-19)
(0.210811 0.55134 2.20988e-19)
(0.316459 0.626181 5.63388e-19)
(0.113895 0.116087 1.99174e-19)
(0.608938 0.226152 4.27917e-19)
(0.587404 0.249451 1.04635e-19)
(0.562714 0.160806 2.1825e-19)
(1.2154 0.469825 2.89341e-19)
(1.23224 0.262845 3.03332e-19)
(0.00468608 1.73811 1.92178e-19)
(0.00879696 1.60701 0)
(1.01443 0.0240012 0)
(0.987754 0.0140371 0)
(0.944714 -0.00263837 0)
(0.0109424 3.07503 0)
(0.0202088 2.94414 8.21878e-19)
(0.0166247 2.95656 0)
(0.00602533 2.85065 -8.15365e-19)
(0.00592443 3.0919 1.95238e-19)
(0.00731048 3.08184 0)
(0.770202 1.81821 -2.33624e-19)
(1.24647 2.51174 6.39027e-19)
(0.755276 1.96319 -1.47948e-18)
(0.0214471 2.98606 -3.18502e-19)
(0.0374539 3.00972 0)
(-0.0317202 2.8835 0)
(-0.00431456 1.67128 -7.10982e-21)
(-0.00570488 1.67705 -8.02043e-20)
(-0.00448661 1.57285 -5.16463e-21)
(0.320322 1.2363 7.59402e-19)
(0.274131 0.652771 -5.11097e-19)
(0.0522189 1.64988 5.00073e-19)
(0.091623 1.54844 -6.1642e-19)
(0.12268 1.42665 7.92928e-20)
(0.00549288 3.11863 -1.02997e-18)
(0.0117245 3.11909 1.12242e-18)
(-0.00866262 2.98098 5.29952e-19)
(-0.00361081 2.978 -4.69663e-19)
(-0.0214911 2.88192 -5.39747e-19)
(0.00860908 3.09956 -1.43125e-18)
(0.00205044 3.10492 1.43255e-18)
(0.189927 0.542531 0)
(0.0872734 0.510416 -4.57343e-19)
(0.147573 0.18608 1.87887e-19)
(0.350137 0.77299 6.13231e-19)
(0.200275 0.205826 -9.3233e-19)
(1.22541 0.171031 -5.29086e-20)
(1.22916 0.313444 0)
(1.21295 0.119577 1.18285e-19)
(-0.00960681 1.70563 -1.54762e-21)
(-0.00750347 1.71913 0)
(-0.000846976 1.59568 0)
(0.367716 1.11508 -2.47043e-19)
(0.373467 0.981757 -5.07722e-19)
(0.201844 0.389204 8.79596e-19)
(1.00562 -0.0107828 0)
(1.00765 -0.00809137 2.02173e-19)
(-0.00496123 1.80321 0)
(-0.0107429 1.80999 0)
(1.00262 0.00376124 1.91973e-21)
(1.0025 0.00866445 4.15577e-19)
(-0.000779334 1.79501 -7.54396e-21)
(-0.00143908 1.79497 0)
(0.0407245 3.18626 1.2195e-19)
(0.401831 3.50794 0)
(1.10009 0.642658 6.04943e-20)
(1.01268 0.013168 -2.54704e-21)
(1.01671 -0.0209064 0)
(1.0016 0.000425986 1.52634e-22)
(-0.111339 1.58706 0)
(0.0186564 1.98006 0)
(-0.0162912 1.78118 0)
(-0.0188653 1.83677 8.47872e-20)
(-0.003756 1.81822 4.39217e-20)
(1.00386 0.0115535 2.36805e-21)
(1.0455 0.0139084 0)
(1.07348 0.0223796 0)
(-0.0103434 1.78695 0)
(-0.00728669 1.80591 0)
(-0.0156448 1.79555 0)
(0.149331 1.23028 -3.85308e-19)
(1.01123 -0.00937841 0)
(1.01016 -0.0129807 0)
(1.0026 0.000774962 2.56056e-19)
(1.00617 -0.00543291 -3.04869e-19)
(1.00088 -0.000850387 0)
(-0.0119538 1.78767 0)
(-0.00814352 1.79671 0)
(-0.00738582 1.79376 0)
(-0.012207 1.79829 0)
(-0.00832446 1.79482 0)
(-0.0109298 1.79779 0)
(1.02307 0.00899909 0)
(1.02366 0.00556962 -1.08062e-21)
(0.78638 1.24582 5.13426e-19)
(1.00231 0.000480746 -2.54665e-19)
(1.0036 0.00546688 3.08893e-19)
(1.00124 0.00195435 0)
(1.01025 0.0100118 2.50902e-19)
(1.00801 0.00873777 -3.08811e-19)
(1.00652 0.0145937 0)
(-0.00702927 1.80607 0)
(-0.00523038 1.80146 1.5008e-20)
(-0.00589315 1.80103 -1.02822e-20)
(1.18017 0.260166 -4.85805e-20)
(1.11658 0.078336 0)
(0.0566233 3.0785 -5.36471e-19)
(0.070067 2.84983 -4.30121e-20)
(0.14948 3.19949 8.20035e-19)
(0.142417 3.22834 -8.35488e-21)
(0.142419 3.24626 0)
(0.0218121 3.1392 1.17335e-19)
(0.0821805 3.16304 5.24027e-19)
(0.07466 3.19114 -2.26606e-19)
(0.0263691 3.12818 0)
(0.710224 0.337791 0)
(0.616276 0.393051 0)
(1.0813 0.670667 -2.36951e-19)
(1.07261 0.808874 3.72318e-19)
(1.12993 0.559708 0)
(1.1622 0.507559 0)
(1.01554 0.0131531 -4.66807e-19)
(1.01343 0.0148102 5.79218e-19)
(1.01578 -0.0214604 0)
(1.01256 -0.0195071 0)
(1.00725 0.00198503 0)
(1.01081 0.00260412 0)
(1.00413 0.00304363 0)
(1.01031 0.0070429 0)
(1.00665 0.00578575 0)
(1.00567 0.00477294 0)
(-0.0936365 1.60033 0)
(-0.0662581 1.64607 0)
(-0.133285 1.55 0)
(-0.0851665 1.48733 0)
(0.023728 1.99507 0)
(0.0926261 1.9809 -3.185e-19)
(0.00847499 1.97389 0)
(-0.000687142 1.93759 1.55701e-19)
(-0.0243308 1.87959 -1.49144e-19)
(-0.0176403 1.78055 0)
(-0.0207159 1.78055 0)
(-0.0175954 1.77825 0)
(-0.0120006 1.75693 0)
(-0.0338298 1.82066 -4.46629e-20)
(-0.00632799 1.82256 6.04459e-20)
(-0.0120678 1.83765 7.83539e-20)
(-0.00116768 1.82855 0)
(-0.00862858 1.82027 -9.70211e-20)
(-0.00945399 1.81617 -5.48843e-20)
(-0.0261187 1.81701 3.48619e-20)
(-0.016476 1.81942 -7.73604e-20)
(-0.0135034 1.82861 -9.33575e-20)
(1.01061 0.0166728 4.56987e-19)
(1.00937 0.00342261 -5.71343e-19)
(1.00528 0.0201933 -4.74507e-19)
(0.991576 0.0153211 5.99661e-19)
(1.03879 0.0165182 0)
(1.04012 0.0106778 0)
(1.06039 0.0379085 0)
(1.04592 0.0217989 0)
(1.05932 0.0128366 0)
(1.10287 0.0686467 0)
(1.0788 0.0470212 0)
(1.09272 0.0366273 0)
(-0.0072141 1.79597 -1.73472e-21)
(-0.010307 1.78622 0)
(-0.00895409 1.78829 0)
(-0.00699161 1.8084 1.57598e-20)
(-0.00692588 1.8086 -7.23016e-22)
(-0.014317 1.78453 1.71286e-20)
(-0.0128817 1.78772 -1.7592e-20)
(-0.013753 1.79371 0)
(-0.010938 1.79457 0)
(-0.0115648 1.79541 0)
(-0.0160398 1.79416 0)
(-0.0170343 1.79511 0)
(0.340447 1.22467 8.39408e-19)
(0.391494 1.32407 3.22167e-19)
(0.511541 2.32867 -1.79255e-19)
(0.228429 2.13884 4.89522e-19)
(0.117542 2.42867 -1.02517e-19)
(1.0179 -0.015856 0)
(1.01612 -0.0101804 0)
(1.01492 -0.0195927 0)
(1.00878 -0.00130753 0)
(1.00483 -0.00181285 0)
(1.0069 -0.00454817 0)
(1.01033 -0.00369939 0)
(1.01203 -0.00650216 0)
(1.02378 0.00801842 4.49468e-19)
(1.01603 0.0162612 -5.56879e-19)
(1.02462 0.0025478 -4.49441e-19)
(1.02132 0.00218752 5.49835e-19)
(0.754133 1.2644 0)
(0.655615 1.34435 6.29018e-19)
(0.874148 1.17642 3.62963e-19)
(0.907938 1.14982 -4.83306e-19)
(1.1126 2.60017 -5.16073e-19)
(0.824752 0.100416 2.97741e-19)
(1.11804 0.0914058 0)
(1.15824 0.171911 4.57223e-20)
(1.15061 0.149332 1.95142e-21)
(0.966678 0.129465 0)
(0.153138 2.97022 1.27472e-19)
(0.12948 2.87663 -6.78833e-19)
(0.0412828 2.34805 4.97086e-19)
(0.117528 0.139634 -2.04876e-19)
(0.346618 3.43718 -4.40687e-19)
(0.200663 3.32621 0)
(0.24231 3.37293 5.73911e-19)
(0.262041 3.04306 -7.37338e-19)
(0.354195 3.20387 0)
(0.00833251 3.12031 2.74934e-20)
(0.0195012 3.1294 -3.48105e-19)
(0.017222 3.12527 5.12382e-19)
(0.0390694 3.13983 0)
(0.0374297 3.15235 0)
(1.19139 2.61346 0)
(0.509163 0.827842 -2.26447e-19)
(1.01166 0.981106 -1.99852e-19)
(0.963609 1.06396 0)
(0.81393 0.953698 5.77836e-20)
(1.03631 0.867306 3.23756e-20)
(0.406041 0.480463 -5.53668e-19)
(0.735866 0.328149 -2.31615e-20)
(0.730084 0.280525 2.2726e-19)
(0.614669 0.433923 1.80657e-20)
(0.55603 0.428012 -7.43931e-19)
(0.708749 0.366336 0)
(0.689089 0.435683 3.76577e-19)
(0.70176 0.433707 0)
(0.659088 0.413008 0)
(0.673917 0.356916 0)
(0.733185 0.602903 1.35973e-19)
(1.16849 0.269285 1.83612e-20)
(1.16881 0.402378 0)
(1.18735 0.369376 0)
(0.78072 0.213535 3.37339e-19)
(0.778829 0.533536 -1.88873e-19)
(0.68827 0.51087 3.07291e-19)
(0.883187 0.400866 -2.91834e-19)
(1.01776 0.0173962 2.99672e-19)
(1.0169 0.0152927 -3.15812e-19)
(1.01242 0.0217314 0)
(1.02034 0.00517252 0)
(1.01399 -0.0145666 -2.84439e-19)
(1.00757 -0.00987234 2.81773e-19)
(1.03357 0.00405248 0)
(1.03007 0.00437947 0)
(1.01238 0.00413504 0)
(1.01518 0.00962749 0)
(1.02224 0.00211015 0)
(1.01671 0.00116279 0)
(-0.0524587 1.67761 0)
(-0.0376854 1.69563 0)
(-0.221677 1.56212 1.12406e-19)
(0.0797125 1.31914 1.89752e-19)
(-0.0862842 1.43011 3.65542e-19)
(0.00376017 1.33883 -6.12018e-19)
(-0.217066 1.53154 0)
(-0.273524 1.94652 4.67776e-20)
(-0.247668 1.93946 0)
(-0.0562407 2.44678 1.45577e-19)
(-0.0524682 2.44562 2.84702e-19)
(-0.308647 1.95379 -4.15639e-20)
(-0.0927652 1.3494 1.89869e-19)
(-0.224588 1.50444 -1.50996e-19)
(-0.112168 1.34314 5.5629e-19)
(-0.255829 2.0252 0)
(-0.214993 2.05826 -3.53567e-19)
(-0.0693566 1.85094 -3.92486e-20)
(-0.0230924 1.89194 0)
(-0.0519954 1.87786 1.5711e-19)
(-0.0616547 1.86359 0)
(-0.00818074 1.92722 -1.69618e-19)
(-0.0107537 1.91249 0)
(-0.0257304 1.7973 -3.59739e-20)
(-0.0316417 1.80318 0)
(-0.038035 1.78241 0)
(-0.0314499 1.79053 4.03295e-20)
(-0.0300288 1.84574 -3.74654e-21)
(-0.0283113 1.87134 1.76972e-19)
(-0.0246573 1.85867 1.19754e-21)
(-0.0179175 1.80527 3.26225e-20)
(-0.0210089 1.80416 1.93491e-20)
(-0.0241662 1.78198 0)
(-0.0239657 1.78263 0)
(-0.0641562 1.82414 9.24446e-20)
(-0.0543443 1.78233 6.28945e-20)
(-0.0533089 1.80062 -8.93813e-20)
(-0.0876904 1.83762 0)
(-0.0122401 1.79945 -5.41521e-20)
(-0.0109035 1.80869 2.5429e-20)
(-0.0108922 1.80791 -8.25607e-21)
(-0.0159674 1.80592 -3.96634e-20)
(-0.0126275 1.81196 -1.28001e-20)
(-0.0139661 1.81451 6.52067e-20)
(1.02125 0.00275458 -2.90731e-19)
(1.0156 0.00956504 2.99413e-19)
(1.01626 0.00358021 0)
(0.995797 0.0459711 4.24056e-19)
(0.990959 0.0320726 -5.03027e-19)
(0.963092 0.0252106 5.82101e-19)
(0.99231 0.0830949 -5.70129e-20)
(1.02521 0.0118961 0)
(1.0322 0.0110571 2.61714e-19)
(1.03105 0.00824822 -2.5943e-19)
(1.03243 0.0414496 -1.42456e-20)
(1.03307 0.0265683 1.24819e-19)
(1.02394 0.0503213 0)
(1.01833 0.0434315 -4.67527e-20)
(1.01643 0.0220422 0)
(1.01736 0.0186613 0)
(1.03325 0.00601606 0)
(1.02691 0.00347423 0)
(1.02338 0.022305 9.603e-20)
(1.02632 0.0155573 -2.17313e-19)
(1.02442 0.0303416 -9.82014e-20)
(1.02394 0.0314267 -1.13635e-19)
(1.02172 0.0494571 2.00677e-19)
(1.05879 0.0473686 0)
(1.04769 0.0874609 0)
(-0.012724 1.79923 -2.30238e-20)
(-0.0118252 1.79122 -1.96811e-21)
(-0.0130796 1.78981 0)
(-0.00941443 1.80199 2.43684e-20)
(-0.00838487 1.79825 3.52184e-21)
(-0.00829186 1.80033 -3.95805e-21)
(-0.0101372 1.81538 4.85925e-20)
(-0.0104268 1.81122 -2.93521e-21)
(-0.0116848 1.81065 1.38574e-20)
(-0.00812032 1.81245 -2.44967e-20)
(-0.00934934 1.81245 2.87432e-20)
(-0.0155503 1.78611 5.16119e-22)
(-0.0157686 1.78588 2.53638e-20)
(0.305474 1.09706 -4.66431e-19)
(0.181838 1.44108 -7.33714e-19)
(0.645222 1.33744 -6.11795e-19)
(0.520152 1.32506 -3.02255e-19)
(0.516695 1.37541 0)
(0.573805 2.34479 1.40679e-19)
(0.654266 2.34587 2.34395e-19)
(0.255234 2.21506 1.15681e-19)
(0.16672 2.5021 -2.4725e-19)
(0.221341 2.51652 2.36296e-19)
(0.475811 2.33004 0)
(0.37039 2.211 -4.16938e-19)
(0.0582068 2.05806 8.08879e-19)
(0.167452 2.14747 -7.74865e-20)
(0.192138 2.01582 -1.09005e-18)
(0.907465 2.36931 9.14123e-20)
(0.86148 2.40057 0)
(1.00976 -0.0018575 1.00779e-20)
(1.01307 -0.00790362 -8.37977e-21)
(1.01504 -0.0108021 -1.47684e-19)
(1.01713 -0.0120916 1.50143e-19)
(1.01519 -0.00410352 0)
(0.675466 1.24864 0)
(0.663948 1.18555 0)
(0.762755 1.0528 0)
(0.6462 1.14578 0)
(1.143 2.61704 6.59255e-20)
(1.02772 2.325 0)
(0.81841 2.16701 7.40742e-22)
(0.929298 2.50769 0)
(0.99577 2.55442 2.70532e-20)
(1.00257 2.49096 -1.83865e-20)
(0.831756 0.146283 0)
(0.798596 0.166381 8.5551e-20)
(0.89507 0.120773 4.40796e-19)
(0.856997 0.103609 -1.76938e-19)
(0.857578 0.0680329 -5.27974e-19)
(1.01761 0.217042 -2.70949e-19)
(0.949232 0.252543 -1.63973e-20)
(0.899731 0.246593 3.86206e-19)
(0.96532 0.198404 3.0002e-19)
(0.920006 0.16362 -5.55018e-19)
(0.888701 0.173103 7.11125e-20)
(0.918224 0.228779 -1.39379e-19)
(0.896355 0.19261 0)
(0.970251 0.167266 2.6717e-19)
(1.00003 0.170156 0)
(0.995702 0.19675 0)
(1.04801 0.0945291 8.9326e-20)
(1.01613 0.155614 -1.19541e-20)
(1.00997 0.217877 -4.89216e-20)
(1.04534 0.187517 0)
(1.01008 0.0246763 2.30197e-19)
(1.0134 0.0425969 2.73439e-19)
(1.01459 0.0292195 -2.28174e-19)
(1.00795 0.0469727 -1.83887e-19)
(0.998902 0.0494645 -3.00066e-19)
(0.971962 0.130486 0)
(0.989022 0.0827101 0)
(0.965189 0.0471735 -2.1056e-19)
(0.927201 0.0545923 8.68045e-20)
(0.996047 0.0777115 2.60378e-19)
(1.01195 0.092903 -2.69402e-19)
(1.02259 0.128721 2.44843e-19)
(1.00052 0.119812 0)
(1.02323 0.0819489 0)
(1.01202 0.0690407 -1.12596e-19)
(1.0101 0.0715361 -2.09785e-19)
(0.507131 1.12436 -6.62705e-20)
(0.557571 1.56724 1.4359e-19)
(1.11085 2.78874 1.14795e-19)
(1.20275 3.11299 -7.28222e-20)
(1.21318 2.73346 5.41951e-19)
(1.25143 2.71998 -3.28897e-19)
(1.1713 2.33163 -5.87237e-21)
(1.18395 3.01444 2.03735e-19)
(1.19742 2.97625 -2.2891e-19)
(1.1994 3.26468 -2.69289e-19)
(1.36109 2.99069 3.73434e-19)
(1.35735 2.90147 0)
(0.508304 0.834261 -1.1639e-20)
(0.162383 1.29432 3.6907e-19)
(0.510443 0.55288 3.6436e-19)
(0.33444 0.323174 3.9889e-19)
(0.554337 0.454751 4.15557e-19)
(0.540054 0.502032 -6.57547e-19)
(0.540621 0.530645 5.37499e-19)
(0.514655 0.478425 -2.17038e-19)
(0.484042 0.436699 4.98713e-19)
(0.779521 0.259566 -1.87553e-19)
(0.75007 0.293236 0)
(0.748529 0.257053 1.20403e-20)
(0.679758 0.519916 1.9216e-19)
(0.658961 0.487238 -7.12128e-19)
(0.599963 0.501351 2.01788e-20)
(0.619531 0.478508 0)
(0.627564 0.722404 1.46973e-19)
(0.772373 0.77663 6.02006e-20)
(0.704828 0.837132 -7.84126e-20)
(0.810967 0.804468 -2.12266e-20)
(0.871187 0.833263 1.39798e-20)
(0.877489 0.845558 -1.43032e-20)
(0.782355 0.620464 -2.35254e-19)
(0.862144 0.690584 1.97357e-20)
(0.928269 0.695667 0)
(0.917769 0.664676 -2.19322e-20)
(0.969289 0.290119 6.72727e-20)
(1.06627 0.270529 2.03307e-20)
(1.00384 0.249882 1.10563e-19)
(0.942292 0.325946 -1.51957e-19)
(0.982239 0.399813 0)
(1.04936 0.381631 0)
(0.873424 0.329999 6.06314e-21)
(0.844287 0.279253 0)
(0.842745 0.245101 2.04831e-19)
(0.889553 0.252104 -3.97116e-21)
(0.874127 0.405352 8.0044e-19)
(0.822842 0.46966 2.0391e-19)
(0.82658 0.434023 -2.54339e-19)
(0.767291 0.424041 2.73194e-19)
(0.75271 0.427746 1.86711e-19)
(0.743855 0.42164 -1.82687e-19)
(1.02476 -0.00188172 2.43681e-19)
(1.02991 -0.00578617 0)
(1.02838 -0.0103647 1.62048e-19)
(1.02333 -0.011547 -3.615e-19)
(1.03668 0.00183438 1.77417e-19)
(1.03069 0.00820984 -3.74673e-19)
(1.02865 0.00978967 0)
(1.02198 0.0120734 -7.66875e-20)
(1.02578 0.00666474 1.94669e-19)
(1.01912 0.0127153 -9.9587e-20)
(1.02115 0.0142914 7.25375e-20)
(-0.0245921 1.75348 0)
(-0.0448702 1.77552 0)
(-0.0353208 1.72125 0)
(-0.0225351 1.72823 0)
(-0.145715 1.72089 -4.62252e-20)
(-0.144695 1.64293 7.04431e-21)
(-0.212467 1.90647 -1.58445e-20)
(-0.272819 1.7136 -8.89317e-20)
(-0.0777155 1.78205 -4.40316e-20)
(-0.0891761 1.77783 3.10317e-20)
(-0.111558 1.72049 2.69736e-21)
(-0.0931538 1.74148 1.34651e-20)
(-0.0641841 1.75564 9.50576e-22)
(-0.0597861 1.76599 -4.10938e-21)
(-0.0655754 1.91704 -1.66464e-19)
(-0.0629131 1.96383 0)
(-0.149115 1.98247 8.74547e-20)
(-0.191142 1.92538 4.50651e-20)
(-0.200555 2.21602 -2.08931e-20)
(-0.0472446 2.22822 0)
(-0.0654152 2.27215 -3.07248e-19)
(-0.0513869 2.36696 2.25343e-19)
(-0.170695 2.11869 -1.42583e-19)
(-0.156198 2.05297 5.47045e-20)
(-0.0869956 2.10796 0)
(-0.0527036 1.81834 -1.1809e-19)
(-0.0430224 1.82449 -1.62866e-19)
(-0.04417 1.82259 0)
(-0.0507561 1.84288 -5.18065e-21)
(-0.0615141 1.84032 6.24207e-20)
(-0.0198088 1.79427 5.67172e-21)
(-0.021764 1.79125 -9.29694e-20)
(-0.0251399 1.79293 2.02795e-20)
(-0.0218483 1.79581 3.72065e-20)
(-0.019777 1.79815 0)
(-0.0251092 1.79147 0)
(-0.0220494 1.79044 2.97659e-20)
(-0.023647 1.78877 -8.68993e-21)
(-0.0260377 1.78979 0)
(-0.0251876 1.78503 2.2824e-20)
(-0.0215814 1.78919 -4.45836e-20)
(1.02754 0.0177873 0)
(1.0292 0.0164234 -2.32862e-20)
(1.02841 0.0157988 -1.74921e-19)
(1.02756 0.0179378 0)
(1.02756 0.0202224 0)
(1.03056 0.0101511 -4.72327e-21)
(1.03092 0.0102825 2.88244e-19)
(1.02686 0.00860478 3.55098e-19)
(1.02615 0.00572344 0)
(1.02099 0.00516264 0)
(1.02401 0.0148393 1.76921e-19)
(1.02001 0.012704 0)
(1.0211 0.010785 0)
(-0.0137814 1.80038 0)
(-0.0158973 1.78603 1.92041e-21)
(-0.015945 1.79195 1.28767e-20)
(-0.0221609 1.78982 0)
(-0.0177869 1.7878 1.77279e-20)
(-0.0156575 1.7876 -8.49127e-21)
(-0.0177409 1.78726 0)
(0.670354 1.93979 0)
(0.275587 1.51404 1.19693e-18)
(0.27301 2.0911 0)
(0.55253 1.11095 -1.32394e-18)
(0.523841 1.14758 0)
(0.504997 1.13126 5.67229e-19)
(1.03809 2.67454 -2.83318e-21)
(0.932459 2.38417 -1.11789e-19)
(0.823797 2.0779 4.29498e-19)
(0.874405 2.38839 9.25003e-20)
(0.935296 2.53695 0)
(0.970359 2.49647 0)
(0.886124 2.36781 0)
(0.880175 2.35275 -3.49829e-19)
(0.684846 2.60757 5.05565e-20)
(0.931653 2.51578 6.56528e-21)
(0.942389 2.49398 -4.9545e-21)
(0.674182 2.39741 0)
(0.805763 2.41098 0)
(0.76542 2.38633 -2.22379e-19)
(0.876754 2.58875 0)
(0.579747 1.10018 0)
(0.466478 0.899474 2.40922e-20)
(0.523174 0.935721 1.575e-22)
(0.467772 1.04482 0)
(0.491849 0.993415 -3.75218e-20)
(0.727576 0.861545 1.33373e-20)
(0.772074 0.981816 0)
(0.747433 0.957262 -6.4748e-20)
(0.627763 1.00516 0)
(0.625455 0.919644 0)
(1.12857 2.77746 3.25777e-20)
(1.10008 2.84978 7.89195e-20)
(0.868004 2.38608 -2.01013e-19)
(0.829579 2.36557 9.41001e-21)
(1.09319 2.73519 0)
(1.06079 2.69328 -1.325e-20)
(1.04699 2.45405 -8.85959e-20)
(0.933056 2.16169 -2.5551e-20)
(0.588567 1.4476 0)
(0.521418 1.12924 5.83625e-20)
(0.6006 1.22055 0)
(0.835881 0.211 0)
(0.808336 0.182785 0)
(0.774484 0.190893 0)
(0.834674 0.210882 -3.239e-19)
(0.792273 0.21383 1.97133e-19)
(0.927976 0.0521386 -1.72412e-19)
(0.936376 0.0998223 0)
(0.916588 0.100264 8.22575e-20)
(0.884355 0.0725251 3.36303e-19)
(0.886173 0.0589546 -2.07477e-19)
(1.15642 3.38737 -9.82934e-19)
(1.19977 3.30892 0)
(1.16058 3.40982 -1.92472e-18)
(0.653386 3.56877 1.65551e-18)
(0.885881 3.13676 4.0505e-19)
(0.500912 0.843032 1.97751e-19)
(0.423364 0.828557 0)
(0.352415 0.567853 -8.11485e-20)
(0.412907 0.679888 3.67044e-19)
(0.508045 0.548396 -1.12905e-19)
(0.495286 0.564466 1.26315e-19)
(0.614178 0.539741 2.71189e-19)
(0.6327 0.549452 0)
(0.583899 0.624162 0)
(0.546644 0.564236 0)
(0.914186 0.578667 -4.49609e-20)
(0.830189 0.518153 -1.97054e-19)
(0.861357 0.55921 9.85797e-20)
(0.895813 0.495883 -1.44044e-19)
(1.00756 0.465623 0)
(1.00876 0.548164 -9.63771e-21)
(0.809309 0.368383 -4.07395e-19)
(0.818106 0.351367 -4.7403e-19)
(0.798738 0.377656 3.18529e-19)
(0.802165 0.336743 -3.6081e-19)
(0.834752 0.291846 -2.60591e-19)
(0.812744 0.293215 3.23935e-19)
(1.03769 0.00316661 -1.85916e-19)
(1.0381 0.00400843 3.77707e-19)
(1.02736 0.00395372 2.32153e-19)
(1.03189 0.00863533 -2.76241e-19)
(1.0285 0.0168707 0)
(1.03215 0.0121337 -4.53076e-19)
(-0.0855411 1.83639 2.82881e-20)
(-0.098983 1.84052 0)
(-0.126554 1.8719 1.29259e-19)
(-0.150732 1.91399 -1.08437e-19)
(-0.189671 1.88756 2.86926e-20)
(-0.155889 1.87159 0)
(-0.0169635 1.80271 0)
(-0.0230803 1.79434 -9.55379e-21)
(-0.0217455 1.79005 8.59838e-21)
(-0.0197245 1.78937 2.01791e-21)
(-0.0170759 1.79941 -1.72086e-20)
(-0.0161379 1.802 1.08519e-20)
(0.711528 1.42645 5.19224e-19)
(0.758149 1.5362 -5.51991e-19)
(0.649977 1.2124 5.64332e-19)
(0.81796 1.42109 -4.13595e-20)
(0.680477 1.24085 0)
(0.629428 1.203 5.64797e-19)
(0.629965 1.27046 -5.39543e-19)
(0.622241 1.13943 -5.53053e-19)
(0.726358 1.19792 0)
(0.663356 1.25615 0)
(0.696175 2.59386 -7.52604e-20)
(0.705951 2.555 3.11121e-19)
(0.788154 2.60365 -2.12295e-19)
(0.590285 2.61161 -1.25784e-19)
(0.415715 2.73762 1.72284e-20)
(0.350647 2.70128 -1.74374e-19)
(0.956025 2.28921 -2.4567e-19)
(0.982294 2.33242 0)
(0.851237 2.06219 -2.89435e-19)
(1.03764 2.67288 0)
(1.01494 2.64985 0)
(0.626443 2.31522 2.88377e-19)
(1.02711 3.18811 4.93013e-19)
(0.906026 3.05649 -4.67605e-19)
(0.3114 0.968872 0)
(0.358165 0.842413 -1.4076e-19)
(0.497966 0.765766 -5.12577e-20)
(0.433654 2.06742 0)
(0.480633 2.8011 -2.81643e-19)
(0.448298 2.56324 0)
(0.637682 0.677979 -3.05448e-19)
(0.704401 0.680054 3.99513e-19)
(0.737264 0.621627 -3.85156e-19)
(0.602751 0.642422 -4.6241e-20)
(0.663371 0.596395 -1.91989e-19)
(0.987592 2.80074 -3.74489e-19)
(1.00834 2.85829 3.05652e-19)
(0.658405 2.23974 -3.30089e-20)
(0.581031 1.75091 -1.43261e-20)
(0.687512 1.98009 1.61853e-19)
(0.96814 2.50562 -4.67441e-20)
(0.970929 2.52438 -1.86215e-19)
(0.689906 1.9292 -7.90072e-21)
(0.432802 1.39699 -1.0622e-19)
)
;

boundaryField
{
    wall-4
    {
        type            noSlip;
    }
    velocity-inlet-5
    {
        type            fixedValue;
        value           uniform (1 0 0);
    }
    velocity-inlet-6
    {
        type            fixedValue;
        value           uniform (0 3 0);
    }
    pressure-outlet-7
    {
        type            zeroGradient;
    }
    wall-8
    {
        type            noSlip;
    }
    frontAndBackPlanes
    {
        type            empty;
    }
}


// ************************************************************************* //
