/*--------------------------------*- C++ -*----------------------------------*\
  =========                 |
  \\      /  F ield         | OpenFOAM: The Open Source CFD Toolbox
   \\    /   O peration     | Website:  https://openfoam.org
    \\  /    A nd           | Version:  13
     \\/     M anipulation  |
\*---------------------------------------------------------------------------*/
FoamFile
{
    format      ascii;
    class       volScalarField;
    location    "6.5";
    object      p;
}
// * * * * * * * * * * * * * * * * * * * * * * * * * * * * * * * * * * * * * //

dimensions      [1 -1 -2 0 0 0 0];

internalField   nonuniform List<scalar> 
5250
(
1.00001
1.00003
1.0001
1.00023
1.00062
1.00143
1.00382
1.00869
1.02311
1.05419
1.14078
1.35808
1.9822
3.8073
8.97797
11.431
11.2017
11.06
11.1417
11.361
11.5832
11.722
11.8277
11.9108
11.9745
1.00001
1.00003
1.00009
1.00025
1.00057
1.00153
1.00348
1.00923
1.02147
1.05558
1.13599
1.35586
1.9649
3.76464
8.8726
11.4381
11.2004
11.0506
11.133
11.353
11.5749
11.7139
11.821
11.9054
11.9706
1.00001
1.00003
1.00009
1.00022
1.0006
1.00136
1.00367
1.00832
1.02213
1.05188
1.13463
1.34199
1.93521
3.66934
8.63697
11.4535
11.1936
11.0215
11.1023
11.3199
11.539
11.6759
11.7822
11.8657
11.9309
1.00001
1.00003
1.00008
1.00023
1.00052
1.00142
1.00322
1.00857
1.01985
1.05161
1.12553
1.32834
1.88489
3.52707
8.26724
11.4829
11.1846
10.9732
11.0499
11.261
11.4755
11.6078
11.7111
11.7927
11.8587
1.00001
1.00003
1.00008
1.0002
1.00053
1.00123
1.00323
1.0076
1.01935
1.04714
1.11899
1.30457
1.82257
3.33816
7.76385
11.5264
11.175
10.908
10.9782
11.1792
11.3877
11.5134
11.6109
11.6888
11.7565
1
1.00003
1.00007
1.0002
1.00045
1.00122
1.00277
1.00739
1.01703
1.04444
1.10731
1.27964
1.74466
3.10889
7.12512
11.5754
11.1645
10.8252
10.886
11.0713
11.271
11.3864
11.4739
11.5446
11.6133
1
1.00002
1.00007
1.00016
1.00044
1.00102
1.00267
1.00632
1.01592
1.039
1.0975
1.24815
1.66003
2.85243
6.37921
11.6008
11.1494
10.7286
10.7752
10.9356
11.1218
11.2203
11.2893
11.3433
11.4071
1
1.00002
1.00006
1.00015
1.00039
1.00091
1.00238
1.00557
1.01418
1.03434
1.08611
1.21704
1.57212
2.58604
5.55696
11.5209
11.0968
10.6172
10.646
10.7702
10.9348
11.0069
11.0445
11.0625
11.101
1
1.00002
1.00005
1.00013
1.00035
1.00081
1.00214
1.00487
1.01298
1.02998
1.07801
1.19171
1.50837
2.39887
5.03973
11.1224
10.9153
10.488
10.492
10.5687
10.7003
10.7327
10.7198
10.6642
10.613
1
1.00002
1.00005
1.00012
1.0003
1.00074
1.00185
1.00447
1.01134
1.02714
1.069
1.1712
1.44949
2.23266
4.54444
10.3326
10.5913
10.4002
10.3135
10.3474
10.4157
10.3965
10.3054
10.0874
9.75838
1
1.00001
1.00004
1.0001
1.00028
1.00064
1.00169
1.00385
1.01023
1.02358
1.06155
1.14975
1.39446
2.07069
4.0636
9.36449
10.4169
10.2927
10.1231
10.1141
10.0978
10.0124
9.76555
9.18658
7.6919
1
1.00001
1.00003
1.0001
1.00022
1.0006
1.00135
1.00362
1.0082
1.02184
1.05099
1.13241
1.33522
1.91379
3.58671
8.24012
10.3045
10.1911
9.95022
9.86848
9.78938
9.60909
9.21578
8.42615
6.87704
1
1.00001
1.00003
1.00008
1.0002
1.00049
1.00118
1.00298
1.00706
1.01818
1.04329
1.11083
1.2796
1.75283
3.10899
6.97556
10.2231
10.0954
9.7961
9.62618
9.48948
9.229
8.74104
7.93617
6.70678
1
1.00001
1.00003
1.00006
1.00016
1.00039
1.00098
1.00242
1.00581
1.01477
1.03532
1.08969
1.22435
1.59419
2.63599
5.60865
10.0546
9.96794
9.67607
9.40193
9.20102
8.89788
8.39705
7.65976
6.68957
1
1.00001
1.00002
1.00005
1.00013
1.00031
1.00079
1.00194
1.00469
1.01183
1.02827
1.07154
1.17707
1.46245
2.25249
4.49637
9.55713
9.74444
9.55063
9.20102
8.94373
8.62268
8.14517
7.48805
6.68056
1
1.00001
1.00002
1.00004
1.0001
1.00027
1.00061
1.00162
1.00369
1.00977
1.02248
1.05843
1.1416
1.37039
1.99385
3.79058
8.41397
9.47076
9.34254
9.03629
8.72632
8.39355
7.9467
7.36061
6.66357
1
1
1.00001
1.00003
1.00009
1.0002
1.00052
1.00123
1.00305
1.00755
1.01825
1.04586
1.11278
1.28998
1.77062
3.14696
6.89471
9.23534
9.15919
8.91226
8.55308
8.20299
7.78229
7.25593
6.64326
1
1
1.00001
1.00003
1.00006
1.00016
1.00039
1.00095
1.0024
1.00564
1.01451
1.03422
1.0875
1.21677
1.57251
2.55651
5.28416
8.97235
9.00185
8.82618
8.44173
8.05062
7.64467
7.16772
6.62289
1
1
1.00001
1.00002
1.00005
1.00012
1.00029
1.00074
1.00173
1.00447
1.01032
1.02679
1.06319
1.16201
1.411
2.10428
4.0012
8.31489
8.85185
8.70443
8.35007
7.92802
7.53076
7.09354
6.60366
1
1
1.00001
1.00001
1.00004
1.00009
1.00023
1.00053
1.00139
1.00314
1.00835
1.01903
1.04972
1.11882
1.3091
1.81397
3.23931
6.92131
8.59051
8.51569
8.26722
7.83703
7.43927
7.03041
6.58503
1
1
1
1.00001
1.00003
1.00007
1.00017
1.00041
1.00097
1.00248
1.00576
1.01489
1.03493
1.08921
1.22068
1.58087
2.56682
5.23014
8.27101
8.33671
8.18232
7.81488
7.38
6.97924
6.56755
1
1
1
1.00001
1.00002
1.00005
1.00012
1.00028
1.00074
1.00166
1.0044
1.00989
1.0261
1.06057
1.15593
1.39158
2.03878
3.75853
7.56422
8.20679
8.09134
7.7885
7.34348
6.94192
6.55252
1
1
1
1.00001
1.00001
1.00004
1.00008
1.00021
1.00049
1.00127
1.00296
1.00746
1.01798
1.04433
1.10969
1.277
1.72756
2.95844
6.10915
7.96918
7.93358
7.74639
7.34538
6.92425
6.5415
1
1
1
1
1.00001
1.00002
1.00006
1.00014
1.00036
1.00085
1.00212
1.00515
1.01241
1.0309
1.0748
1.18834
1.48129
2.27298
4.32805
7.50955
7.80884
7.68317
7.35813
6.92626
6.54176
1
1
1
1
1.00001
1.00002
1.00004
1.0001
1.00025
1.00058
1.0015
1.0034
1.0089
1.0203
1.05266
1.12508
1.32333
1.83506
3.21435
6.47229
7.6218
7.56246
7.35023
6.94073
6.54717
1
1
1
1
1
1.00001
1.00003
1.00007
1.00016
1.00042
1.00095
1.0025
1.00563
1.01481
1.03394
1.0875
1.21267
1.55553
2.45992
4.79378
7.24461
7.41029
7.30057
6.99594
6.56666
1
1
1
1
1
1.00001
1.00002
1.00005
1.00011
1.00028
1.00063
1.00165
1.00375
1.00966
1.02248
1.05661
1.13722
1.3489
1.8982
3.31252
6.43498
7.25668
7.19963
7.00233
6.60952
1
1
1
1
1
1.00001
1.00001
1.00003
1.00007
1.00018
1.00043
1.00106
1.00258
1.00614
1.01538
1.03644
1.09136
1.22503
1.58134
2.51389
4.8575
6.92794
7.06683
6.97028
6.70553
1
1
1
1
1
1
1.00001
1.00002
1.00005
1.00012
1.00027
1.0007
1.00158
1.00413
1.00926
1.02422
1.05569
1.14225
1.3501
1.90054
3.27019
6.2053
6.93119
6.89126
6.72667
1
1
1
1
1
1
1.00001
1.00001
1.00003
1.00008
1.00017
1.00045
1.00102
1.00264
1.00606
1.01536
1.03631
1.09038
1.2228
1.57027
2.47366
4.71174
6.61099
6.78037
6.69876
1
1
1
1
1
1
1
1.00001
1.00002
1.00005
1.00011
1.00028
1.00065
1.00165
1.00374
1.00968
1.02201
1.05652
1.13331
1.34004
1.85446
3.13859
5.88162
6.63508
6.6149
1
1
1
1
1
1
1
1
1.00001
1.00003
1.00007
1.00017
1.00043
1.00097
1.0025
1.00576
1.01441
1.03437
1.08451
1.20861
1.52826
2.35162
4.36901
6.27657
6.51651
1
1
1
1
1
1
1
1
1.00001
1.00002
1.00004
1.00011
1.00025
1.00064
1.00142
1.00373
1.00833
1.02162
1.04962
1.12568
1.3066
1.77738
2.93094
5.46305
6.33438
1
1
1
1
1
1
1
1
1
1.00001
1.00003
1.00006
1.00016
1.00036
1.00094
1.00209
1.00545
1.01226
1.03149
1.07328
1.18468
1.45718
2.15529
3.83269
5.88891
1
1
1
1
1
1
1
1
1
1.00001
1.00002
1.00004
1.00009
1.00022
1.00054
1.00128
1.0032
1.00734
1.01873
1.04312
1.1088
1.2634
1.66529
2.64906
4.8908
1
1
1
1
1
1
1
1
1
1
1.00001
1.00002
1.00005
1.00014
1.00031
1.00079
1.00176
1.00456
1.01017
1.02626
1.06007
1.15149
1.36736
1.91272
3.182
1
1
1
1
1
1
1
1
1
1
1.00001
1.00001
1.00003
1.00008
1.00019
1.00044
1.00108
1.00261
1.00615
1.0153
1.03564
1.08913
1.21417
1.54095
2.34052
1
1
1
1
1
1
1
1
1
1
1
1.00001
1.00002
1.00005
1.00011
1.00027
1.00062
1.0015
1.00361
1.00852
1.02104
1.04939
1.12199
1.29666
1.73508
1
1
1
1
1
1
1
1
1
1
1
1
1.00001
1.00003
1.00006
1.00015
1.00036
1.00089
1.00202
1.00517
1.01158
1.02983
1.06803
1.17185
1.41605
1
1
1
1
1
1
1
1
1
1
1
1
1.00001
1.00002
1.00004
1.00009
1.00022
1.0005
1.00128
1.00289
1.00732
1.01694
1.04168
1.10006
1.24625
1
1
1
1
1
1
1
1
1
1
1
1
1
1.00001
1.00002
1.00006
1.00013
1.00034
1.00077
1.00197
1.00451
1.01134
1.02673
1.06592
1.16078
1
1
1
1
1
1
1
1
1
1
1
1
1
1.00001
1.00002
1.00004
1.0001
1.00026
1.00058
1.00153
1.00345
1.00916
1.02095
1.0548
1.13204
1
1
1
1
1
1
1
1
1
1
1
1
1
1.00001
1.00002
1.00003
1.00009
1.00021
1.00056
1.00127
1.00342
1.00793
1.02082
1.05024
1.12987
1
1
1
1
1
1
1
1
1
1
1
1
1
1.00001
1.00001
1.00003
1.00009
1.0002
1.00054
1.00122
1.00333
1.00765
1.02058
1.04899
1.12862
1
1
1
1
1
1
1
1
1
1
1
1
1
1.00001
1.00001
1.00003
1.00008
1.00021
1.00049
1.00133
1.00305
1.00826
1.01933
1.05117
1.12646
1
1
1
1
1
1
1
1
1
1
1
1
1
1.00001
1.00001
1.00003
1.00008
1.0002
1.0005
1.00128
1.00309
1.00812
1.01946
1.05096
1.12684
1
1
1
1
1
1
1
1
1
1
1
1
1
1.00001
1.00001
1.00003
1.00008
1.00021
1.00048
1.00131
1.00302
1.00818
1.01931
1.05094
1.12661
1
1
1
1
1
1
1
1
1
1
1
1
1
1.00001
1.00001
1.00003
1.00008
1.0002
1.00051
1.00121
1.00325
1.00759
1.02035
1.04896
1.12868
1
1
1
1
1
1
1
1
1
1
1
1
1
1.00001
1.00001
1.00003
1.00008
1.00021
1.00047
1.0013
1.00299
1.00812
1.01912
1.05069
1.12581
1
1
1
1
1
1
1
1
1
1
1
1
1
1
1.00001
1.00003
1.00008
1.0002
1.00049
1.00125
1.00305
1.00797
1.01928
1.05029
1.12607
3.40706
2.40055
2.80256
3.8809
3.78028
3.62792
3.54071
3.50119
3.46544
3.40275
3.32976
3.26341
3.20496
3.14472
3.07823
3.00828
2.93994
2.87851
2.82338
2.76552
2.70096
2.66484
2.65011
2.64658
2.66565
2.72901
2.83671
2.98146
3.14825
3.32287
3.496
3.66266
3.81929
3.96442
4.09576
4.21442
4.32107
4.41722
4.50425
4.58249
4.65084
4.71026
4.76131
4.80446
4.84189
4.87385
4.89784
4.91489
4.92597
4.93188
4.93292
4.93122
4.9257
4.9144
4.89874
4.88064
4.86004
4.83722
4.812
4.78469
4.75536
4.72423
4.69135
4.65693
4.62104
4.58383
4.54535
4.50577
4.46512
4.42353
4.38105
4.33779
4.29379
4.24915
4.20392
4.15819
4.112
4.06544
4.01856
3.97144
3.92415
3.87676
3.82935
3.78198
3.73473
3.68766
3.64085
3.59436
3.54826
3.50264
3.45761
3.41331
3.36991
3.32767
3.28694
3.24822
3.21225
3.18015
3.15345
3.13525
4.22421
3.36668
3.49795
3.86629
3.75048
3.59806
3.53744
3.53817
3.49841
3.40943
3.32177
3.24924
3.19489
3.14128
3.07713
3.00761
2.93821
2.87446
2.81806
2.76429
2.70788
2.66575
2.64686
2.64194
2.65772
2.71662
2.82117
2.96549
3.13386
3.30991
3.48412
3.65103
3.80786
3.95305
4.08478
4.20327
4.3097
4.40478
4.49332
4.57302
4.64207
4.70201
4.75357
4.79782
4.83593
4.86787
4.89212
4.90959
4.92096
4.92711
4.92822
4.92689
4.92222
4.91169
4.89525
4.8768
4.8564
4.83375
4.80873
4.78153
4.75228
4.72122
4.68843
4.65409
4.61829
4.58116
4.54279
4.50329
4.46275
4.42125
4.37887
4.3357
4.2918
4.24725
4.20211
4.15645
4.11034
4.06384
4.01702
3.96995
3.9227
3.87536
3.82798
3.78065
3.73344
3.6864
3.63961
3.59314
3.54705
3.50144
3.45639
3.41206
3.36859
3.32625
3.28536
3.2464
3.21019
3.17778
3.15058
3.13186
5.06755
4.10908
3.80182
3.81671
3.76404
3.63629
3.54425
3.51084
3.46232
3.39322
3.31659
3.25133
3.20331
3.14603
3.07519
3.00171
2.92925
2.86256
2.80548
2.75661
2.71038
2.66794
2.64194
2.6331
2.64423
2.69638
2.79554
2.9397
3.11085
3.28811
3.4623
3.62879
3.78657
3.93453
4.06779
4.18725
4.29486
4.39214
4.48102
4.56116
4.63092
4.69162
4.74398
4.78892
4.82707
4.85876
4.88345
4.90146
4.91333
4.91978
4.92104
4.92002
4.91624
4.90719
4.89053
4.87152
4.8509
4.82838
4.80362
4.77662
4.74754
4.71659
4.68393
4.6497
4.61403
4.57703
4.5388
4.49944
4.45904
4.41768
4.37544
4.3324
4.28863
4.24419
4.19916
4.1536
4.10758
4.06115
4.0144
3.96739
3.92021
3.87292
3.8256
3.77832
3.73115
3.68416
3.6374
3.59094
3.54487
3.49923
3.45417
3.40979
3.36622
3.32373
3.28273
3.24361
3.20702
3.17399
3.14593
3.12633
5.48486
4.55138
4.03986
3.86148
3.78573
3.67275
3.57004
3.51494
3.45875
3.3879
3.31102
3.24423
3.18884
3.13199
3.06638
2.99475
2.92409
2.85861
2.80288
2.75297
2.70556
2.66585
2.6323
2.6153
2.62634
2.67962
2.77222
2.91324
3.08169
3.25984
3.43519
3.60312
3.76143
3.9092
4.04303
4.16381
4.27283
4.37147
4.46087
4.54136
4.61224
4.67405
4.7274
4.77318
4.8119
4.844
4.86929
4.88799
4.9005
4.90743
4.90895
4.90815
4.90514
4.89772
4.88258
4.86299
4.84184
4.81928
4.79477
4.76812
4.73934
4.70866
4.67624
4.64225
4.6068
4.57004
4.53205
4.49293
4.45276
4.41164
4.36963
4.32681
4.28325
4.23901
4.19417
4.14877
4.1029
4.0566
4.00996
3.96305
3.91597
3.86876
3.82154
3.77434
3.72726
3.68033
3.63365
3.58723
3.54122
3.49559
3.4505
3.40608
3.36258
3.32001
3.27878
3.23921
3.20205
3.16817
3.13899
3.11811
5.71434
4.86783
4.29479
3.97913
3.83775
3.72779
3.6219
3.5374
3.46962
3.3963
3.31822
3.2479
3.18714
3.12577
3.05861
2.98752
2.91828
2.85415
2.79797
2.74791
2.70282
2.6653
2.63784
2.62644
2.63563
2.68024
2.77612
2.90648
3.06091
3.22695
3.39764
3.56399
3.72182
3.86939
4.00463
4.12754
4.23872
4.33953
4.43065
4.51265
4.58519
4.64862
4.70336
4.75029
4.78987
4.82268
4.84876
4.86841
4.88189
4.8897
4.89187
4.89129
4.88898
4.88313
4.87075
4.85149
4.83008
4.80736
4.78299
4.75671
4.7284
4.69817
4.66614
4.63251
4.59742
4.56098
4.52331
4.48451
4.44466
4.40383
4.36212
4.31957
4.27628
4.23228
4.18765
4.14245
4.09675
4.05061
4.00413
3.95735
3.91041
3.86334
3.81626
3.76919
3.72222
3.67541
3.62884
3.58244
3.53652
3.49102
3.44612
3.40173
3.35814
3.31543
3.27393
3.23395
3.19615
3.16139
3.13099
3.10853
5.86111
5.11166
4.53583
4.16039
3.9416
3.79877
3.68044
3.58191
3.49683
3.41748
3.33747
3.26137
3.19385
3.12881
3.06084
2.99052
2.92231
2.85923
2.80417
2.75682
2.71681
2.68649
2.6686
2.66939
2.68367
2.72887
2.81983
2.92833
3.05467
3.19075
3.33936
3.49727
3.65563
3.80724
3.9482
4.07607
4.19096
4.29448
4.3878
4.47186
4.54665
4.6124
4.66934
4.71811
4.75922
4.7933
4.82066
4.84164
4.8565
4.86561
4.86899
4.86861
4.86696
4.8626
4.85311
4.83562
4.81469
4.79193
4.76764
4.7417
4.71392
4.68427
4.65282
4.61972
4.58511
4.54913
4.5119
4.47351
4.43406
4.39362
4.35227
4.31007
4.2671
4.22339
4.17903
4.13406
4.08857
4.04262
3.99632
3.94971
3.90295
3.85605
3.80915
3.76225
3.71535
3.66872
3.62237
3.57632
3.53057
3.48517
3.44029
3.39591
3.35225
3.30939
3.26765
3.22727
3.18886
3.15322
3.12163
3.0976
5.95983
5.29817
4.74516
4.33833
4.06516
3.88155
3.74325
3.63085
3.53535
3.44877
3.36567
3.28567
3.21075
3.14014
3.07091
3.00145
2.93435
2.87328
2.82151
2.78176
2.75487
2.74206
2.74473
2.76005
2.80067
2.86844
2.93307
3.00052
3.07915
3.17493
3.2719
3.39395
3.54355
3.7019
3.85797
3.99998
4.12522
4.23526
4.33239
4.41906
4.49621
4.5646
4.62431
4.67575
4.71928
4.75551
4.78484
4.80773
4.82447
4.83541
4.84073
4.84064
4.83965
4.83664
4.8297
4.81552
4.79588
4.77362
4.7496
4.72397
4.69669
4.66767
4.6369
4.60447
4.57049
4.53509
4.4984
4.46052
4.42156
4.38157
4.34065
4.29885
4.25624
4.21285
4.16879
4.12408
4.07883
4.03309
3.98701
3.94061
3.89409
3.84739
3.8007
3.75404
3.70769
3.6613
3.61517
3.56925
3.52365
3.47834
3.4335
3.38913
3.34543
3.30247
3.26051
3.21979
3.18083
3.14437
3.11171
3.08605
6.02776
5.4398
4.9198
4.50404
4.19664
3.97706
3.81469
3.68583
3.57944
3.48526
3.39775
3.3144
3.23597
3.1624
3.09151
3.02302
2.9576
2.90021
2.85584
2.83061
2.82567
2.83147
2.85517
2.91502
3.01469
3.07813
3.10916
3.13142
3.15194
3.18127
3.24135
3.29969
3.39451
3.53846
3.7075
3.87383
4.02258
4.15075
4.2598
4.35351
4.43446
4.50572
4.56809
4.62233
4.66884
4.70797
4.74017
4.76575
4.78501
4.79833
4.80598
4.80759
4.80699
4.80491
4.79989
4.7894
4.77224
4.75141
4.72813
4.70301
4.67626
4.64788
4.61786
4.5862
4.55299
4.51831
4.4823
4.44503
4.40664
4.36718
4.32675
4.28539
4.24319
4.20017
4.15643
4.112
4.06702
4.02153
3.97573
3.92954
3.88332
3.83706
3.79083
3.74457
3.69843
3.65232
3.60637
3.56059
3.51511
3.46992
3.42517
3.38087
3.33719
3.2942
3.25211
3.21115
3.17174
3.13461
3.10104
3.07395
6.07568
5.54788
5.06331
4.65278
4.32778
4.081
3.89455
3.74871
3.62958
3.52718
3.43433
3.34784
3.26614
3.1899
3.11755
3.04972
2.98748
2.9369
2.90638
2.9067
2.91529
2.94632
3.02292
3.17954
3.30848
3.34599
3.34183
3.32422
3.28187
3.23719
3.24031
3.26176
3.31036
3.39193
3.51779
3.68732
3.85724
4.01494
4.15104
4.26449
4.35788
4.43587
4.50198
4.55914
4.60838
4.65035
4.68585
4.71478
4.73733
4.75377
4.76439
4.76903
4.76885
4.76771
4.7645
4.75742
4.74348
4.72492
4.70313
4.679
4.65302
4.62538
4.59615
4.56534
4.53298
4.49914
4.4639
4.42736
4.38963
4.35078
4.3109
4.27003
4.22827
4.18563
4.14223
4.09811
4.05345
4.00823
3.96279
3.91721
3.87146
3.8256
3.77972
3.73377
3.68786
3.64198
3.59624
3.55066
3.50535
3.46034
3.41572
3.37154
3.32792
3.28495
3.2428
3.20166
3.16195
3.12426
3.08999
3.06165
6.10984
5.63118
5.1806
4.78292
4.45202
4.18764
3.98086
3.8177
3.68545
3.57405
3.4747
3.38514
3.30032
3.22216
3.14916
3.08289
3.02648
2.98811
2.98612
2.99528
3.02875
3.11338
3.29623
3.53982
3.6546
3.65113
3.62601
3.56069
3.4327
3.32854
3.27074
3.2717
3.28695
3.3271
3.39432
3.49669
3.64228
3.81057
3.97534
4.12176
4.24365
4.342
4.42069
4.48482
4.53821
4.58343
4.62197
4.65415
4.68041
4.70067
4.71497
4.72341
4.72571
4.7252
4.72334
4.71883
4.70937
4.69372
4.67411
4.65159
4.6268
4.60012
4.57179
4.54187
4.51042
4.47748
4.44311
4.40738
4.37039
4.33221
4.29294
4.2526
4.2113
4.16906
4.12602
4.0822
4.03791
3.99332
3.94844
3.90335
3.85807
3.81258
3.767
3.72132
3.67566
3.63004
3.58455
3.53921
3.49412
3.44932
3.40489
3.36087
3.31738
3.27448
3.23235
3.19114
3.15123
3.11314
3.07836
3.04894
6.13461
5.69645
5.27676
4.89553
4.56607
4.29211
4.0702
3.89164
3.74626
3.62487
3.51937
3.42531
3.33796
3.25888
3.18635
3.12419
3.07774
3.06805
3.07616
3.10719
3.18791
3.36458
3.71502
3.96517
4.00938
3.98857
3.92317
3.78051
3.60309
3.46106
3.36459
3.31266
3.30851
3.31774
3.34775
3.40103
3.47994
3.59086
3.74576
3.90837
4.06277
4.19622
4.30429
4.38898
4.45507
4.50753
4.55029
4.5858
4.61521
4.63919
4.65742
4.66989
4.67667
4.67764
4.6769
4.67448
4.66887
4.65744
4.64069
4.62038
4.59731
4.57197
4.54475
4.51584
4.48536
4.45337
4.41993
4.38508
4.34891
4.31148
4.27287
4.23311
4.1923
4.15049
4.10786
4.06466
4.02103
3.97703
3.93271
3.88807
3.84318
3.79805
3.75279
3.70743
3.66207
3.61675
3.57154
3.52648
3.48165
3.43709
3.39288
3.34908
3.30576
3.26302
3.22098
3.1798
3.13982
3.10148
3.06636
3.03607
6.15281
5.74819
5.35583
4.99227
4.66886
4.39143
4.15967
3.96874
3.81151
3.68019
3.56767
3.46876
3.37966
3.29982
3.22991
3.17622
3.15598
3.16239
3.18966
3.26417
3.4338
3.78611
4.21027
4.37774
4.36665
4.31528
4.19143
3.97646
3.77904
3.6199
3.50018
3.41661
3.36654
3.34754
3.35122
3.36875
3.40691
3.46039
3.545
3.66926
3.82281
3.97975
4.12334
4.24401
4.33926
4.41176
4.46667
4.50908
4.54276
4.56996
4.59163
4.60805
4.61923
4.6249
4.62506
4.62419
4.6214
4.61503
4.60223
4.58479
4.56399
4.54046
4.51469
4.487
4.45762
4.42665
4.39419
4.36027
4.32499
4.28836
4.25046
4.21131
4.17099
4.12973
4.08781
4.04534
4.00238
3.95894
3.9151
3.87089
3.82639
3.78166
3.73677
3.69178
3.64677
3.60179
3.55691
3.51216
3.46764
3.42337
3.37945
3.3359
3.29283
3.2503
3.20844
3.16738
3.12746
3.08901
3.05374
3.0228
6.1656
5.78904
5.42156
5.07557
4.76141
4.48453
4.24748
4.04755
3.88032
3.73975
3.62001
3.51623
3.42513
3.3471
3.28339
3.25187
3.25624
3.27894
3.34472
3.49934
3.82759
4.37297
4.70283
4.73134
4.69871
4.60221
4.39903
4.16374
3.96125
3.79611
3.66331
3.55839
3.47851
3.42287
3.38711
3.38226
3.38868
3.40797
3.44531
3.50329
3.59639
3.72976
3.87943
4.02862
4.16166
4.27032
4.35352
4.41492
4.45989
4.49346
4.51924
4.53909
4.5542
4.5641
4.56897
4.56887
4.56783
4.56477
4.55798
4.54441
4.52649
4.50527
4.48136
4.45519
4.4271
4.39727
4.36588
4.33297
4.29864
4.26287
4.22572
4.18719
4.14763
4.10722
4.06613
4.02438
3.98204
3.93916
3.89582
3.85209
3.80805
3.76375
3.71929
3.67471
3.63009
3.58548
3.54096
3.49657
3.45239
3.40846
3.36485
3.32163
3.27885
3.23661
3.195
3.15416
3.1144
3.07598
3.04072
3.00926
6.17758
5.82272
5.47712
5.14813
4.84461
4.57192
4.33269
4.12696
3.9518
3.80314
3.67669
3.56848
3.47689
3.40342
3.35743
3.35973
3.37783
3.43545
3.57497
3.87304
4.46827
4.94602
5.07573
5.05384
4.97772
4.80802
4.56422
4.33897
4.1456
3.98134
3.84115
3.72158
3.62067
3.53801
3.47298
3.42787
3.39984
3.40074
3.40817
3.42715
3.4669
3.53047
3.63533
3.77135
3.91864
4.06021
4.1826
4.27944
4.35103
4.40197
4.43799
4.46385
4.48276
4.49652
4.50545
4.50944
4.50928
4.50817
4.50496
4.49778
4.48388
4.46562
4.44408
4.41981
4.39329
4.36481
4.33462
4.30283
4.26951
4.23465
4.19829
4.16067
4.12207
4.08257
4.04228
4.00123
3.95953
3.91724
3.87446
3.83125
3.78772
3.74391
3.69992
3.65579
3.61161
3.56743
3.52333
3.47934
3.43556
3.39202
3.3488
3.30595
3.26355
3.22168
3.18042
3.13989
3.10043
3.06218
3.02709
2.99533
6.18995
5.85273
5.52661
5.21398
4.92142
4.65426
4.41565
4.20613
4.02513
3.86986
3.73801
3.62702
3.53918
3.47573
3.47335
3.48755
3.53881
3.66839
3.951
4.5246
5.12578
5.36768
5.35916
5.3096
5.18568
4.94903
4.71699
4.51125
4.33001
4.16894
4.02438
3.89437
3.77821
3.67611
3.58838
3.51562
3.45902
3.42001
3.40241
3.40417
3.41133
3.43176
3.47524
3.54716
3.66209
3.7991
3.94298
4.07621
4.18762
4.27294
4.33395
4.37564
4.40371
4.42272
4.43562
4.44348
4.44678
4.44655
4.44533
4.442
4.43469
4.42054
4.40213
4.38036
4.35582
4.32898
4.3002
4.26968
4.23748
4.20359
4.16828
4.13177
4.09421
4.05565
4.01621
3.97594
3.93496
3.89334
3.85119
3.80858
3.76561
3.72235
3.67888
3.63525
3.59156
3.54785
3.50421
3.46069
3.41735
3.37427
3.33149
3.28909
3.24713
3.20569
3.16487
3.12477
3.08572
3.04779
3.01303
2.98114
6.20895
5.88476
5.57457
5.27614
4.99393
4.73258
4.49567
4.28451
4.09968
3.94005
3.80506
3.69608
3.61659
3.59621
3.60863
3.65514
3.7761
4.04381
4.59342
5.26483
5.6113
5.62757
5.59473
5.50017
5.30261
5.07485
4.86774
4.6818
4.51165
4.3536
4.20589
4.06827
3.94101
3.82487
3.72041
3.62839
3.54943
3.4842
3.43517
3.40206
3.39296
3.39351
3.40041
3.42295
3.47212
3.55682
3.67791
3.81519
3.95425
4.07927
4.1802
4.25443
4.30516
4.33812
4.35885
4.3716
4.3789
4.38123
4.38089
4.37952
4.376
4.36842
4.35423
4.33578
4.31392
4.28923
4.26221
4.23315
4.20218
4.16951
4.13546
4.10015
4.06369
4.02613
3.98761
3.94819
3.90801
3.86713
3.82569
3.78375
3.74142
3.69875
3.65586
3.6128
3.56965
3.52648
3.48336
3.44037
3.39754
3.35498
3.31272
3.27085
3.22941
3.18852
3.14824
3.10869
3.07019
3.03274
2.9985
2.9667
6.24386
5.92248
5.6227
5.33576
5.06271
4.80735
4.57306
4.3619
4.17546
4.01429
3.88154
3.7804
3.73815
3.74754
3.78807
3.89943
4.15149
4.67432
5.39253
5.8171
5.87919
5.85367
5.77434
5.60631
5.39579
5.1981
5.01748
4.84851
4.68686
4.53099
4.38105
4.23801
4.10288
3.9767
3.86018
3.75399
3.65863
3.57474
3.50307
3.44509
3.40192
3.38032
3.36944
3.37023
3.37869
3.40568
3.46308
3.55833
3.68353
3.82149
3.95522
4.07077
4.16062
4.22412
4.26531
4.29021
4.30429
4.31129
4.31275
4.31227
4.31064
4.30676
4.29863
4.28461
4.26642
4.24469
4.22003
4.19279
4.16338
4.13221
4.09955
4.06551
4.03022
3.99377
3.95628
3.91783
3.87856
3.83854
3.7979
3.75672
3.7151
3.67313
3.63089
3.58846
3.54593
3.50336
3.46083
3.41843
3.3762
3.33424
3.29257
3.25132
3.21051
3.17026
3.13064
3.09176
3.05398
3.01719
2.98365
2.95222
6.30615
5.96956
5.67214
5.39328
5.1282
4.87873
4.64804
4.4388
4.25371
4.09617
3.97281
3.90275
3.90829
3.94222
4.04335
4.27955
4.77472
5.51871
5.99644
6.10677
6.08807
6.02281
5.87935
5.68218
5.4956
5.32552
5.16487
5.00787
4.85218
4.69807
4.54693
4.40044
4.26
4.1268
4.00167
3.88523
3.77794
3.68023
3.59259
3.51586
3.4507
3.39975
3.36381
3.34893
3.33485
3.33635
3.34802
3.3809
3.44936
3.55457
3.68184
3.81762
3.94506
4.05126
4.1302
4.18322
4.21535
4.23266
4.24045
4.24122
4.2406
4.23869
4.23438
4.2256
4.21179
4.19397
4.17257
4.14791
4.12063
4.09125
4.06014
4.0275
3.99352
3.9583
3.92197
3.88462
3.84637
3.80732
3.76759
3.72727
3.68647
3.64527
3.60377
3.56206
3.52022
3.47834
3.43649
3.39477
3.35322
3.31194
3.27098
3.23044
3.19038
3.15088
3.11208
3.07403
3.03714
3.00126
2.96865
2.93794
6.38215
6.02785
5.72405
5.44898
5.19053
4.94727
4.72153
4.51692
4.3378
4.19388
4.09252
4.09378
4.12064
4.21084
4.43216
4.90246
5.65794
6.17435
6.32506
6.30979
6.25275
6.12459
5.93986
5.76437
5.60557
5.45588
5.30802
5.15836
5.00655
4.85396
4.70256
4.55413
4.41036
4.2724
4.14122
4.01736
3.90134
3.79343
3.69409
3.6037
3.52267
3.45257
3.39434
3.34851
3.32136
3.30239
3.29248
3.29568
3.31166
3.35078
3.4301
3.54147
3.67264
3.80554
3.92522
4.02101
4.08901
4.13177
4.15516
4.16536
4.16661
4.16589
4.16369
4.15891
4.14937
4.13582
4.11837
4.09724
4.07291
4.04591
4.01675
3.98577
3.95328
3.91944
3.88441
3.84829
3.8112
3.77325
3.73456
3.69522
3.65534
3.61503
3.57437
3.53349
3.49245
3.45136
3.41029
3.36935
3.32859
3.28811
3.24797
3.20827
3.16907
3.1305
3.09266
3.05565
3.01989
2.9852
2.95381
2.92429
6.47812
6.10414
5.78296
5.505
5.25108
5.01437
4.79586
4.6001
4.43641
4.31662
4.29399
4.31745
4.4024
4.61504
5.06932
5.8257
6.36452
6.53818
6.52519
6.47321
6.3539
6.17482
6.00784
5.85992
5.72206
5.58524
5.44476
5.29934
5.15012
4.99882
4.84766
4.69844
4.55283
4.41186
4.27649
4.14735
4.02491
3.90949
3.80143
3.701
3.60875
3.52489
3.45034
3.38598
3.33332
3.29504
3.27107
3.2501
3.24376
3.24921
3.27035
3.3179
3.41091
3.52498
3.65556
3.78398
3.89514
3.98001
4.03705
4.07009
4.08551
4.08864
4.08789
4.08548
4.08021
4.07032
4.05675
4.03953
4.01884
3.99499
3.96846
3.93969
3.90908
3.87689
3.84334
3.8086
3.77281
3.7361
3.69857
3.66034
3.62152
3.58222
3.54255
3.50261
3.4625
3.42233
3.38217
3.34213
3.30228
3.26273
3.22354
3.18483
3.14667
3.1092
3.07255
3.03683
3.00247
2.96938
2.93957
2.91193
6.48568
6.19907
5.85514
5.56609
5.31349
5.08371
4.87561
4.69773
4.56205
4.51905
4.53947
4.61975
4.82671
5.27234
6.03064
6.58148
6.76673
6.75423
6.70071
6.57794
6.39557
6.23223
6.09262
5.96547
5.83997
5.70983
5.57309
5.43018
5.28288
5.13306
4.9828
4.83365
4.68719
4.54437
4.40623
4.27322
4.14608
4.0251
3.91067
3.80295
3.702
3.60823
3.52211
3.44418
3.3752
3.31657
3.26908
3.23688
3.21127
3.19203
3.19246
3.20084
3.22681
3.28281
3.38184
3.50097
3.63012
3.75274
3.85458
3.92865
3.97509
3.99912
4.00658
4.00597
4.00374
3.99849
3.98827
3.97465
3.95756
3.93727
3.91406
3.88824
3.86013
3.83005
3.79832
3.76519
3.73088
3.69555
3.65934
3.62238
3.58477
3.54666
3.50812
3.4693
3.43027
3.39117
3.35207
3.31309
3.2743
3.23584
3.19776
3.16022
3.1233
3.08717
3.05197
3.01788
2.98532
2.95438
2.92666
2.90188
6.45233
6.27238
5.93484
5.63517
5.38151
5.15982
4.96999
4.82261
4.76473
4.78328
4.86179
5.0687
5.51661
6.27986
6.83495
7.01939
7.00417
6.94119
6.80081
6.61055
6.44738
6.31242
6.19287
6.07641
5.95564
5.82767
5.69239
5.55107
5.40545
5.25729
5.1083
4.95984
4.81329
4.66958
4.5297
4.3942
4.26378
4.13866
4.01928
3.90577
3.79837
3.69727
3.60267
3.51491
3.43441
3.36181
3.29815
3.24406
3.20331
3.17216
3.14738
3.1321
3.13443
3.14724
3.17991
3.24742
3.34912
3.4711
3.59745
3.71278
3.80447
3.86752
3.90332
3.91934
3.91928
3.9177
3.91323
3.9038
3.88976
3.87263
3.85288
3.83049
3.80548
3.77809
3.74865
3.71753
3.68501
3.65132
3.61663
3.58113
3.54494
3.50819
3.47098
3.43345
3.39569
3.35783
3.31996
3.28221
3.24467
3.20749
3.17074
3.1346
3.09918
3.06469
3.0313
2.99931
2.96908
2.94111
2.91622
2.89575
6.34961
6.26496
6.0524
5.73045
5.46432
5.25247
5.09301
5.02559
5.04392
5.12476
5.33971
5.8056
6.58202
7.13487
7.30628
7.28568
7.20702
7.03735
6.83539
6.66607
6.53041
6.4139
6.30256
6.18815
6.06703
5.93858
5.80351
5.66321
5.51906
5.37253
5.22493
5.07749
4.93131
4.78735
4.64648
4.50933
4.37651
4.24838
4.12534
4.00754
3.89525
3.78851
3.68754
3.59246
3.50355
3.42111
3.34573
3.2779
3.21916
3.16961
3.13399
3.10203
3.07839
3.0679
3.07226
3.08933
3.12883
3.20835
3.31255
3.43482
3.55728
3.66393
3.74454
3.79616
3.82274
3.82906
3.82787
3.82412
3.81576
3.80201
3.7856
3.76636
3.74443
3.72003
3.69342
3.66487
3.63461
3.60295
3.57013
3.53637
3.50183
3.46667
3.431
3.39497
3.35867
3.32226
3.28583
3.24953
3.21345
3.17779
3.14263
3.10819
3.07461
3.04218
3.01111
2.98188
2.95479
2.93095
2.91009
2.89584
6.25279
6.22276
6.10335
5.84602
5.57291
5.37669
5.29769
5.31746
5.40502
5.63718
6.13899
6.94242
7.4894
7.63571
7.60657
7.50544
7.29422
7.07331
6.89343
6.75268
6.63473
6.52474
6.41347
6.29657
6.17296
6.04295
5.90754
5.76777
5.6248
5.47966
5.33341
5.18705
5.04153
4.89774
4.75641
4.61828
4.48385
4.35359
4.22783
4.1068
3.99071
3.87964
3.77376
3.67311
3.57788
3.4882
3.40439
3.32677
3.25594
3.19274
3.13766
3.09411
3.05816
3.02804
3.00511
3.00428
3.01049
3.03097
3.07604
3.16373
3.27195
3.39232
3.50888
3.60572
3.67522
3.71557
3.73378
3.73336
3.73096
3.72488
3.71243
3.69607
3.67672
3.65527
3.63182
3.60635
3.57897
3.54992
3.51946
3.48784
3.45527
3.42197
3.38808
3.35378
3.31918
3.28445
3.24969
3.2151
3.18077
3.14692
3.11369
3.08134
3.05009
3.0203
2.9923
2.96677
2.94415
2.926
2.9109
2.90089
6.0276
6.14814
6.09776
5.96097
5.7158
5.58824
5.60745
5.70248
5.95949
6.51493
7.36512
7.90448
8.01222
7.9709
7.84059
7.57645
7.3302
7.13548
6.98549
6.86253
6.75019
6.63892
6.52335
6.40187
6.27472
6.14247
6.00608
5.86623
5.72386
5.57962
5.43444
5.289
5.14419
5.00073
4.85934
4.72068
4.58524
4.45351
4.32577
4.20234
4.08334
3.96897
3.85925
3.75432
3.65422
3.55908
3.46898
3.38418
3.3049
3.23164
3.16482
3.10572
3.05473
3.01549
2.9778
2.95014
2.93172
2.93344
2.94335
2.96957
3.02463
3.11544
3.2262
3.34409
3.4531
3.53922
3.59723
3.62822
3.63564
3.63432
3.62974
3.61965
3.60354
3.58515
3.56449
3.54196
3.51762
3.49161
3.46402
3.43506
3.4049
3.37384
3.34205
3.30978
3.27715
3.2444
3.21161
3.17904
3.14679
3.11517
3.08432
3.05462
3.02637
3.00007
2.97627
2.95583
2.94006
2.9282
2.91816
2.91504
5.48593
6.04324
6.07393
6.03468
5.93444
5.94598
6.03973
6.31779
6.92637
7.84507
8.38204
8.43703
8.37766
8.20714
7.88876
7.61178
7.39854
7.23641
7.10498
6.98704
6.87215
6.75393
6.63135
6.50414
6.37283
6.23788
6.09996
5.9595
5.81715
5.67334
5.52881
5.38404
5.23985
5.09677
4.95553
4.81663
4.68062
4.5479
4.41879
4.29357
4.17241
4.05544
3.94276
3.83446
3.73055
3.63113
3.53621
3.44597
3.36042
3.27988
3.20459
3.13508
3.07217
3.01612
2.96996
2.92967
2.89447
2.86807
2.85752
2.86082
2.87417
2.906
2.97121
3.06517
3.17647
3.2905
3.39012
3.46655
3.51107
3.53311
3.53284
3.53044
3.5242
3.51104
3.49294
3.47258
3.45085
3.42782
3.40332
3.37743
3.35021
3.3219
3.29267
3.26284
3.23256
3.20213
3.17169
3.14154
3.11185
3.08298
3.05519
3.02892
3.00471
2.98312
2.96522
2.95272
2.94385
2.93828
2.93878
2.94218
4.25213
5.73794
6.04035
6.11337
6.18732
6.36113
6.74664
7.5281
8.4161
8.91816
8.91146
8.81819
8.58588
8.23106
7.92171
7.6855
7.5092
7.36733
7.2407
7.11808
6.99431
6.86714
6.73665
6.60334
6.46753
6.32956
6.18965
6.0481
5.9052
5.76135
5.61699
5.47263
5.32882
5.18611
5.04503
4.90613
4.76981
4.63648
4.50644
4.37993
4.25715
4.13819
4.02321
3.91223
3.80533
3.70247
3.6038
3.50931
3.41898
3.33291
3.2513
3.17446
3.10279
3.03673
2.97712
2.92525
2.88134
2.84033
2.80809
2.78367
2.7832
2.78814
2.80461
2.84157
2.91593
3.01365
3.12456
3.23289
3.32342
3.38551
3.41899
3.43045
3.42941
3.4253
3.41591
3.39896
3.38015
3.35953
3.33771
3.31485
3.29083