/*--------------------------------*- C++ -*----------------------------------*\
  =========                 |
  \\      /  F ield         | OpenFOAM: The Open Source CFD Toolbox
   \\    /   O peration     | Website:  https://openfoam.org
    \\  /    A nd           | Version:  13
     \\/     M anipulation  |
\*---------------------------------------------------------------------------*/
FoamFile
{
    format      ascii;
    class       surfaceScalarField;
    location    "6.5";
    object      phi;
}
// * * * * * * * * * * * * * * * * * * * * * * * * * * * * * * * * * * * * * //

dimensions      [1 0 -1 0 0 0 0];

internalField   nonuniform List<scalar> 
10325
(
0.00840003
2.17418e-10
0.00840005
5.01088e-11
0.00839998
3.82521e-09
0.00840013
1.03326e-10
0.00839969
2.71659e-08
0.00840075
2.75438e-09
0.00839792
1.55286e-07
0.00840411
8.05399e-08
0.00839049
7.78966e-07
0.00841057
1.00053e-06
0.00837998
3.73291e-06
0.00839595
9.31693e-06
0.00834514
3.05569e-05
0.00823561
0.000117263
0.00763309
0.00059395
0.00699162
0.000642693
0.00637356
0.000618317
0.0057311
0.000641768
0.00505671
0.000673608
0.00434154
0.00071428
0.00357499
0.000765598
0.00275512
0.000818608
0.00188726
0.000866884
0.000970815
0.000916237
0.000970449
0.00840003
3.46714e-11
0.00840001
1.65313e-09
0.00840012
1.71921e-09
0.00839983
1.5598e-08
0.0084005
1.48548e-08
0.00839894
9.4589e-08
0.00840248
1.19451e-07
0.00839454
5.30539e-07
0.00840919
9.22956e-07
0.0083831
2.82965e-06
0.00841105
6.845e-06
0.00836917
1.9501e-05
0.00835828
6.30101e-05
0.00822785
0.00023582
0.0076301
0.00118628
0.00697817
0.00129637
0.00636776
0.00122906
0.00573369
0.00127513
0.00506354
0.00134299
0.00434194
0.00143501
0.00356698
0.00153962
0.00273947
0.00164487
0.00186136
0.00174403
0.000940792
0.0018366
0.00191085
0.00840003
3.88341e-10
0.00840005
1.0746e-09
0.00839996
7.33716e-09
0.00840019
1.0715e-08
0.00839959
5.27085e-08
0.00840106
8.0773e-08
0.00839757
3.11168e-07
0.00840521
5.5923e-07
0.0083893
1.73991e-06
0.00841265
3.85913e-06
0.00837789
1.05914e-05
0.00839719
2.9409e-05
0.00834426
9.35236e-05
0.00823803
0.000350374
0.00766733
0.0017479
0.00700769
0.00195747
0.00640094
0.00183611
0.00577456
0.00190082
0.00511068
0.00200618
0.00438975
0.00215509
0.00361129
0.00231706
0.00277691
0.00247795
0.00188806
0.00263204
0.000952821
0.00277135
0.00286286
0.00840003
2.91571e-10
0.00840001
2.37836e-09
0.00840011
6.46531e-09
0.00839985
2.29687e-08
0.00840047
4.88917e-08
0.00839901
1.4435e-07
0.00840234
3.30024e-07
0.00839486
8.42478e-07
0.00840897
2.16834e-06
0.00838331
5.09299e-06
0.00841162
1.40968e-05
0.00837014
3.81198e-05
0.00836367
0.000122828
0.00825119
0.00045011
0.00775101
0.00224211
0.00708721
0.00262339
0.00648095
0.0024428
0.0058621
0.00251903
0.00520555
0.00266185
0.00449172
0.00286813
0.00371377
0.00309455
0.0028713
0.00331918
0.00196187
0.00354034
0.00099638
0.0037368
0.00385901
0.00840003
4.45564e-10
0.00840005
2.25665e-09
0.00839998
9.31993e-09
0.00840016
2.2449e-08
0.00839974
6.81601e-08
0.00840069
1.56878e-07
0.00839852
4.14045e-07
0.00840249
1.02122e-06
0.00839431
2.46069e-06
0.00840586
6.54953e-06
0.00838466
1.6302e-05
0.0083966
4.68066e-05
0.00835786
0.000145171
0.00828227
0.000530743
0.00790376
0.00261116
0.00723187
0.00329714
0.0066173
0.00305785
0.00600143
0.00313429
0.00535337
0.00330916
0.00464507
0.00357569
0.00386992
0.0038688
0.00302216
0.00416561
0.0020915
0.00447011
0.00107332
0.00475574
0.00493297
0.00840003
4.43308e-10
0.00840001
2.9392e-09
0.0084001
9.27732e-09
0.00839988
2.88824e-08
0.00840041
6.8733e-08
0.00839916
1.86688e-07
0.00840205
4.50739e-07
0.00839562
1.11456e-06
0.0084083
2.89834e-06
0.00838522
6.93013e-06
0.00841335
1.87961e-05
0.00837649
5.09924e-05
0.00838542
0.000160119
0.0083304
0.000572066
0.00816985
0.00276536
0.00748552
0.00398386
0.00683922
0.00370489
0.00621536
0.0037578
0.00557323
0.00395083
0.00487276
0.00427573
0.00409783
0.00464294
0.00323797
0.00502454
0.00227545
0.00543197
0.00119263
0.00583822
0.00612539
0.00840003
4.40554e-10
0.00840004
2.76827e-09
0.00839999
9.52321e-09
0.00840014
2.7204e-08
0.00839981
7.09932e-08
0.00840056
1.83013e-07
0.00839898
4.50341e-07
0.00840186
1.15069e-06
0.00839652
2.81545e-06
0.00840508
7.25748e-06
0.00839164
1.85533e-05
0.00840708
5.14887e-05
0.00839604
0.00015724
0.00841734
0.000555355
0.00861653
0.00255663
0.00791783
0.0046832
0.0071871
0.00443619
0.00653821
0.00440652
0.00588931
0.00459949
0.00519317
0.00497123
0.00441865
0.00541687
0.00354627
0.00589609
0.00254818
0.00642952
0.00137807
0.00700811
0.00750299
0.00840003
3.27715e-10
0.00840004
2.69506e-09
0.00839999
7.89633e-09
0.00840014
2.62002e-08
0.00839984
5.92477e-08
0.0084006
1.72622e-07
0.00839903
3.70486e-07
0.00840239
1.0697e-06
0.00839671
2.27433e-06
0.00840799
6.46547e-06
0.00839546
1.50382e-05
0.00842346
4.24501e-05
0.00844082
0.000122751
0.0085877
0.00041563
0.00934238
0.00179577
0.00863426
0.00538939
0.0077028
0.00536708
0.00700592
0.00510315
0.00633545
0.00526955
0.00562999
0.00567619
0.00485071
0.00619515
0.00396612
0.00677998
0.002941
0.00745376
0.00167902
0.0082696
0.00918162
0.00840003
3.65838e-10
0.00840004
2.18987e-09
0.00840001
8.04823e-09
0.00840009
2.12559e-08
0.00839988
5.96074e-08
0.00840046
1.4215e-07
0.00839898
3.70211e-07
0.00840285
8.9168e-07
0.00839467
2.21424e-06
0.00841128
5.53768e-06
0.00838865
1.38309e-05
0.00842132
3.70451e-05
0.00841286
0.000107114
0.00848651
0.000354723
0.00878135
0.00149308
0.0086047
0.00556157
0.00793099
0.00603806
0.00737134
0.00566268
0.00672741
0.00591317
0.0060919
0.0063108
0.00535666
0.00692962
0.00452625
0.00760941
0.00354412
0.00843532
0.00219599
0.00961729
0.0113773
0.00840003
3.32265e-10
0.00840003
2.17896e-09
0.00840004
7.19877e-09
0.00840001
2.12257e-08
0.00840006
5.38083e-08
0.00839998
1.38865e-07
0.00839997
3.44676e-07
0.00840025
8.46814e-07
0.00839911
2.14897e-06
0.00840164
5.20127e-06
0.00839901
1.35007e-05
0.00840275
3.5046e-05
0.00840758
0.000101557
0.00843256
0.000330715
0.00859683
0.00132408
0.00842403
0.0057284
0.00818616
0.00627493
0.00761151
0.00623696
0.00708208
0.00644187
0.00653973
0.00685214
0.00593622
0.00753215
0.00525293
0.00829149
0.0043545
0.00933271
0.00306824
0.0109027
0.0144452
0.00840003
4.20848e-10
0.00840004
1.88e-09
0.00840002
8.47957e-09
0.00840006
1.84357e-08
0.00839991
6.16164e-08
0.00840034
1.2497e-07
0.00839919
3.79193e-07
0.00840203
7.88091e-07
0.00839553
2.26894e-06
0.00840845
5.01814e-06
0.00838748
1.37656e-05
0.00841375
3.44229e-05
0.00839047
9.97581e-05
0.00842012
0.00031915
0.0085103
0.00122196
0.00850149
0.00573194
0.00815101
0.00662528
0.00776224
0.00662549
0.00740007
0.00680332
0.00697433
0.00727677
0.0065762
0.00792928
0.00610596
0.00876061
0.00565891
0.00977855
0.00559459
0.010966
0.0114115
0.00862691
0.00840003
3.34669e-10
0.00840002
2.21615e-09
0.00840005
7.2443e-09
0.00839998
2.16138e-08
0.00840017
5.45321e-08
0.00839966
1.41256e-07
0.00840096
3.52825e-07
0.00839786
8.56698e-07
0.00840519
2.19394e-06
0.0083903
5.24549e-06
0.00841459
1.36595e-05
0.00838302
3.48616e-05
0.0084137
9.86511e-05
0.00839906
0.000310838
0.00848122
0.00114825
0.00871036
0.00549322
0.00834973
0.00698594
0.00797062
0.00700461
0.00765938
0.00711397
0.0073682
0.00756673
0.00708946
0.00820679
0.00685864
0.00899015
0.00677768
0.00985805
0.00717337
0.0105681
0.0104642
0.00811866
0.00840003
3.19703e-10
0.00840003
2.13837e-09
0.00840003
6.98083e-09
0.00840004
2.08268e-08
0.00840001
5.20046e-08
0.00840003
1.37924e-07
0.00840008
3.31629e-07
0.00839959
8.55548e-07
0.00840103
2.06828e-06
0.00839757
5.28643e-06
0.008404
1.31186e-05
0.00839698
3.43207e-05
0.00840758
9.44012e-05
0.00841891
0.000292839
0.0085231
0.00104639
0.00919781
0.00480935
0.0087851
0.00739921
0.00831397
0.00747608
0.00800215
0.00742581
0.00777834
0.00778946
0.00760379
0.00837994
0.00755298
0.00903946
0.00773938
0.00967014
0.00822109
0.0100845
0.0098945
0.00878763
0.00840003
2.89386e-10
0.00840004
1.87159e-09
0.00840002
6.32792e-09
0.00840007
1.82889e-08
0.00839999
4.70404e-08
0.00840013
1.21562e-07
0.00839999
2.97536e-07
0.00840005
7.53852e-07
0.00840064
1.83421e-06
0.00839976
4.64321e-06
0.00840394
1.15019e-05
0.00840555
2.96502e-05
0.0084213
7.99192e-05
0.00847368
0.000238829
0.00870307
0.00081708
0.0100744
0.00342807
0.00946086
0.0080129
0.0089307
0.00800656
0.00849982
0.00785693
0.00825533
0.00803344
0.00815446
0.00847976
0.00819874
0.00899358
0.00842765
0.00943933
0.00884731
0.0096624
0.00943476
0.00930442
0.00840003
2.48326e-10
0.00840004
1.4825e-09
0.00840002
5.4299e-09
0.00840007
1.44873e-08
0.00839999
4.01874e-08
0.00840016
9.72953e-08
0.0084
2.47802e-07
0.00840023
6.07609e-07
0.00840068
1.48178e-06
0.00840056
3.72115e-06
0.00840485
9.0521e-06
0.00840897
2.3202e-05
0.00842918
6.03733e-05
0.00849438
0.000173521
0.0087493
0.000562516
0.00993231
0.00223949
0.0099496
0.00799234
0.00957205
0.00838343
0.009029
0.00839953
0.00876111
0.00830054
0.00867457
0.00856547
0.00873825
0.00892864
0.0089518
0.00922428
0.00929722
0.00931442
0.00905971
0.00966921
0.00840003
1.98902e-10
0.00840003
1.36425e-09
0.00840004
4.36988e-09
0.00840002
1.33408e-08
0.00840007
3.24096e-08
0.00839994
8.74258e-08
0.00840037
2.04962e-07
0.00839938
5.27611e-07
0.00840228
1.26681e-06
0.00839669
3.15458e-06
0.00841024
7.81073e-06
0.00839374
1.94991e-05
0.00842859
5.08351e-05
0.00843476
0.000141884
0.00856526
0.000450289
0.00909128
0.0017006
0.00997668
0.00710045
0.00976762
0.0085914
0.00946303
0.00870348
0.00920129
0.0085616
0.00912089
0.00864477
0.00918479
0.00886323
0.00936955
0.009038
0.009645
0.00903684
0.0087657
0.00993612
0.00840003
1.71662e-10
0.00840004
1.1542e-09
0.00840003
3.85581e-09
0.00840006
1.12464e-08
0.0084
2.85507e-08
0.00840015
7.52507e-08
0.00839991
1.76661e-07
0.00840036
4.7336e-07
0.00839997
1.0628e-06
0.00840066
2.91656e-06
0.00840118
6.55119e-06
0.00840395
1.78378e-05
0.00840827
4.36625e-05
0.00843052
0.000123525
0.00850123
0.000376399
0.00884445
0.00135474
0.0101159
0.00582072
0.0100383
0.00866885
0.00979993
0.00894143
0.00956715
0.00879418
0.0095007
0.00871048
0.00955574
0.00880683
0.009706
0.00888608
0.00992034
0.00882038
0.00854269
0.0101408
0.00840003
1.59304e-10
0.00840003
9.22121e-10
0.00840004
3.34514e-09
0.00840003
8.96405e-09
0.00840006
2.50137e-08
0.00840003
5.86358e-08
0.00840008
1.5986e-07
0.00840023
3.57058e-07
0.00839984
9.81491e-07
0.00840192
2.17359e-06
0.00839889
5.97233e-06
0.00840974
1.37192e-05
0.00840645
3.71332e-05
0.00844326
9.64164e-05
0.00852134
0.000288726
0.00890317
0.00097717
0.010813
0.00389932
0.0105324
0.00894847
0.0103701
0.00910382
0.0100688
0.00909512
0.00989868
0.00888011
0.00989923
0.00880513
0.0100026
0.00878144
0.0101588
0.00866245
0.0083803
0.0103188
0.00840003
1.07797e-10
0.00840003
7.7843e-10
0.00840003
2.44279e-09
0.00840004
7.6083e-09
0.00840003
1.80705e-08
0.00840005
5.01626e-08
0.0084001
1.12685e-07
0.00840002
3.06341e-07
0.0084008
6.84104e-07
0.00839942
1.83672e-06
0.00840538
4.16601e-06
0.00839949
1.10099e-05
0.00842379
2.62836e-05
0.00843352
7.04153e-05
0.00854035
0.000195372
0.00888075
0.000626265
0.010396
0.00238416
0.0110573
0.00828155
0.0108339
0.00932613
0.0105305
0.00939761
0.0102991
0.00911076
0.0102329
0.00887025
0.0102817
0.00873107
0.0103819
0.00856051
0.00827147
0.0104889
0.00840003
1.01044e-10
0.00840003
5.63416e-10
0.00840003
2.11595e-09
0.00840004
5.49962e-09
0.00840002
1.56461e-08
0.00840009
3.62809e-08
0.00839994
9.81779e-08
0.00840049
2.22095e-07
0.00839937
5.93225e-07
0.00840296
1.34873e-06
0.00839661
3.55589e-06
0.00841417
8.29303e-06
0.00839259
2.16225e-05
0.0084447
5.415e-05
0.0084512
0.000150279
0.00864408
0.000461869
0.00932454
0.00168527
0.010985
0.00661557
0.011041
0.00926919
0.01088
0.00955759
0.0106318
0.00935835
0.0105408
0.00896021
0.0105436
0.00872713
0.0105953
0.00850725
0.0082097
0.0106551
0.00840003
6.82188e-11
0.00840003
4.80944e-10
0.00840003
1.53951e-09
0.00840004
4.68539e-09
0.00840003
1.14236e-08
0.00840006
3.10129e-08
0.00840005
7.12854e-08
0.00840007
1.90952e-07
0.00840037
4.33176e-07
0.00839986
1.15488e-06
0.00840261
2.64266e-06
0.00839947
6.97589e-06
0.00841259
1.65337e-05
0.00841177
4.34637e-05
0.00845916
0.000114279
0.0085703
0.000339578
0.00910139
0.00115824
0.0113039
0.00440115
0.0113699
0.00920062
0.0113267
0.00960034
0.0111223
0.00956234
0.0108917
0.00919024
0.0108132
0.00880452
0.0108139
0.00850555
0.00818972
0.0108326
0.00840003
5.8472e-11
0.00840003
3.29185e-10
0.00840003
1.24867e-09
0.00840004
3.22651e-09
0.00840003
9.20341e-09
0.00840007
2.14635e-08
0.0084
5.68998e-08
0.00840029
1.32426e-07
0.00839976
3.38349e-07
0.00840175
8.05487e-07
0.00839857
2.00473e-06
0.00840965
4.88782e-06
0.00839618
1.20212e-05
0.00843868
3.01968e-05
0.00843766
7.78217e-05
0.00859309
0.000217771
0.00904138
0.000687803
0.0109092
0.00253537
0.0118277
0.0082755
0.0117277
0.00969906
0.0114907
0.0097984
0.0112333
0.00944706
0.011102
0.00893534
0.0110459
0.008561
0.00821267
0.0110216
0.00840003
4.01002e-11
0.00840003
2.67613e-10
0.00840004
8.71497e-10
0.00840003
2.6034e-09
0.00840005
6.45887e-09
0.00840002
1.68966e-08
0.00840011
4.09706e-08
0.00839997
1.01369e-07
0.00840045
2.51044e-07
0.00839984
5.9974e-07
0.00840192
1.52831e-06
0.00840009
3.56127e-06
0.00840809
9.30479e-06
0.00840749
2.19918e-05
0.00843888
5.82604e-05
0.00848744
0.000154583
0.00871116
0.000473328
0.0095506
0.00168829
0.0116828
0.00613349
0.0119144
0.00946635
0.011866
0.00984582
0.0116268
0.00968569
0.0114172
0.00914503
0.0112956
0.00868193
0.00828221
0.0112259
0.00840003
3.00559e-11
0.00840003
1.86063e-10
0.00840003
6.56195e-10
0.00840004
1.82113e-09
0.00840003
4.82489e-09
0.00840006
1.21209e-08
0.00840002
2.96032e-08
0.00840015
7.47474e-08
0.00840001
1.76083e-07
0.00840052
4.52425e-07
0.00840042
1.04311e-06
0.0084018
2.72718e-06
0.00840394
6.2647e-06
0.00841063
1.64317e-05
0.00842651
3.94398e-05
0.00847925
0.000106221
0.0086474
0.000299131
0.0093482
0.000986692
0.0119217
0.0035464
0.0123016
0.00908395
0.0122933
0.00985485
0.0120921
0.00988754
0.0117466
0.00949119
0.0115736
0.00885482
0.00839845
0.0114565
0.00840003
2.22105e-11
0.00840003
1.32229e-10
0.00840003
4.72159e-10
0.00840003
1.28859e-09
0.00840004
3.49534e-09
0.00840003
8.40258e-09
0.00840005
2.20096e-08
0.00840007
5.0529e-08
0.00840006
1.32904e-07
0.00840043
3.00198e-07
0.00839989
7.91687e-07
0.00840297
1.79463e-06
0.00839932
4.69209e-06
0.00841593
1.08783e-05
0.0084073
2.82532e-05
0.00847061
7.00506e-05
0.00854447
0.000194324
0.00896395
0.000593008
0.0103724
0.00211716
0.0123182
0.00713385
0.0124903
0.00968251
0.0124061
0.00997177
0.0120447
0.00985321
0.0118651
0.0090346
0.00856195
0.0117011
0.00840003
1.49557e-11
0.00840003
9.51314e-11
0.00840003
3.28057e-10
0.00840003
9.2934e-10
0.00840003
2.41966e-09
0.00840004
6.12556e-09
0.00840004
1.49651e-08
0.00840004
3.7492e-08
0.00840015
8.94761e-08
0.00839999
2.25567e-07
0.0084009
5.32436e-07
0.00839959
1.3512e-06
0.00840545
3.18779e-06
0.00839852
8.11557e-06
0.00842589
1.95013e-05
0.00841643
5.02408e-05
0.00851364
0.000131115
0.00869072
0.000383515
0.00952117
0.00130182
0.0121486
0.0044904
0.0126452
0.00918325
0.0127083
0.00990895
0.0126381
0.00992377
0.0122027
0.00947062
0.00880823
0.0119564
0.00840003
1.00621e-11
0.00840003
6.68564e-11
0.00840003
2.23072e-10
0.00840003
6.51307e-10
0.00840004
1.64898e-09
0.00840003
4.26235e-09
0.00840005
1.02285e-08
0.00840002
2.58115e-08
0.00840016
6.12349e-08
0.00839998
1.53534e-07
0.00840074
3.6405e-07
0.00839988
9.08022e-07
0.00840394
2.16735e-06
0.00840011
5.38583e-06
0.00841909
1.30381e-05
0.00841578
3.26838e-05
0.00849134
8.32051e-05
0.00861578
0.000228789
0.00922602
0.000709278
0.0112471
0.00245946
0.0128453
0.00757642
0.0129307
0.00982267
0.0128646
0.00998959
0.0124846
0.00985081
0.00904266
0.0122502
0.00840003
7.20683e-12
0.00840003
4.56312e-11
0.00840003
1.55451e-10
0.00840003
4.44523e-10
0.00840004
1.14793e-09
0.00840003
2.8911e-09
0.00840005
7.19866e-09
0.00840003
1.73206e-08
0.0084001
4.34514e-08
0.00840005
1.02224e-07
0.00840031
2.59766e-07
0.0084004
6.03676e-07
0.00840105
1.54755e-06
0.00840306
3.59076e-06
0.00840553
9.23033e-06
0.00841861
2.19255e-05
0.00844189
5.66827e-05
0.00852469
0.000147593
0.00879534
0.000434895
0.00977235
0.00148187
0.0124727
0.0048649
0.0130406
0.00925199
0.0131375
0.00989234
0.0130365
0.00995171
0.00946085
0.0126189
0.00840003
4.73097e-12
0.00840003
2.99125e-11
0.00840003
1.03823e-10
0.00840003
2.92645e-10
0.00840003
7.62958e-10
0.00840003
1.9205e-09
0.00840004
4.69582e-09
0.00840004
1.16382e-08
0.00840007
2.78317e-08
0.00840004
6.92474e-08
0.00840033
1.63893e-07
0.00839997
4.08633e-07
0.00840202
9.66665e-07
0.00839968
2.4106e-06
0.00841153
5.72414e-06
0.00840199
1.4342e-05
0.00845332
3.48725e-05
0.00846944
9.01401e-05
0.00869988
0.000245301
0.00939019
0.000762694
0.0116945
0.00256548
0.0132506
0.00768781
0.0133061
0.0098358
0.013331
0.00992595
0.00981248
0.0129783
0.00840003
3.03204e-12
0.00840003
2.06692e-11
0.00840003
6.70901e-11
0.00840003
2.00733e-10
0.00840003
4.9613e-10
0.00840003
1.30036e-09
0.00840004
3.08644e-09
0.00840003
7.78792e-09
0.00840007
1.85642e-08
0.00840003
4.57021e-08
0.00840024
1.10691e-07
0.00840001
2.67409e-07
0.0084012
6.58647e-07
0.00840012
1.56748e-06
0.008406
3.91803e-06
0.0084029
9.29991e-06
0.00842828
2.35361e-05
0.00843893
5.77734e-05
0.00855544
0.000154307
0.0088471
0.000446335
0.00990955
0.00151323
0.0127534
0.00482763
0.0134232
0.00916228
0.0135423
0.00980598
0.0099499
0.013404
0.00840003
2.02797e-12
0.00840003
1.29646e-11
0.00840003
4.4634e-11
0.00840003
1.26738e-10
0.00840003
3.27438e-10
0.00840003
8.30976e-10
0.00840003
2.00382e-09
0.00840004
5.02197e-09
0.00840004
1.18263e-08
0.00840007
2.97558e-08
0.0084001
6.93176e-08
0.00840015
1.74898e-07
0.0084006
4.07147e-07
0.00840034
1.02303e-06
0.00840404
2.40172e-06
0.0084019
5.98943e-06
0.00842272
1.43441e-05
0.00842372
3.58664e-05
0.00851578
9.04244e-05
0.00868437
0.000247182
0.00945823
0.000758923
0.0117712
0.00250162
0.0135355
0.00739186
0.0136203
0.00971932
0.0098143
0.0137543
0.00840003
1.38467e-12
0.00840003
8.13705e-12
0.00840003
2.94766e-11
0.00840003
7.92851e-11
0.00840003
2.16807e-10
0.00840003
5.15917e-10
0.00840003
1.33967e-09
0.00840004
3.09636e-09
0.00840003
7.92935e-09
0.00840007
1.83297e-08
0.00840003
4.64141e-08
0.00840025
1.08293e-07
0.00840004
2.70309e-07
0.00840121
6.42593e-07
0.00840038
1.57369e-06
0.00840583
3.8174e-06
0.0084046
9.24102e-06
0.00842782
2.29519e-05
0.00844554
5.66457e-05
0.00856252
0.000149165
0.00887531
0.000427088
0.00996492
0.00141934
0.0129007
0.00443779
0.0137482
0.00886774
0.00968381
0.0138777
0.00840003
8.09363e-13
0.00840003
5.35673e-12
0.00840003
1.8027e-11
0.00840003
5.22964e-11
0.00840003
1.31988e-10
0.00840003
3.42311e-10
0.00840003
8.05163e-10
0.00840003
2.06307e-09
0.00840004
4.7444e-09
0.00840004
1.21673e-08
0.00840008
2.77936e-08
0.00840004
7.11463e-08
0.00840035
1.6338e-07
0.00840005
4.13796e-07
0.00840203
9.61959e-07
0.00840027
2.41077e-06
0.00841114
5.68933e-06
0.00840506
1.41384e-05
0.00845282
3.43909e-05
0.00847827
8.7489e-05
0.00870677
0.000234703
0.00938665
0.000712735
0.011514
0.00231411
0.0136834
0.00668904
0.00951352
0.0138509
0.00840003
5.44781e-13
0.00840003
3.26324e-12
0.00840003
1.16903e-11
0.00840003
3.17763e-11
0.00840003
8.56591e-11
0.00840003
2.06205e-10
0.00840003
5.27423e-10
0.00840003
1.23105e-09
0.00840003
3.11258e-09
0.00840004
7.24376e-09
0.00840004
1.81666e-08
0.00840011
4.25392e-08
0.00840005
1.05403e-07
0.00840053
2.50344e-07
0.00840008
6.11097e-07
0.00840299
1.47164e-06
0.00840073
3.5563e-06
0.00841574
8.69077e-06
0.00841071
2.10079e-05
0.00847414
5.2659e-05
0.00853625
0.00013479
0.00890155
0.000380933
0.00996574
0.00122405
0.0128893
0.00375493
0.008404
0.0139939
0.00840003
3.11848e-13
0.00840003
2.10074e-12
0.00840003
6.8878e-12
0.00840003
2.04321e-11
0.00840003
5.09148e-11
0.00840003
1.31587e-10
0.00840003
3.15368e-10
0.00840003
7.80379e-10
0.00840004
1.87856e-09
0.00840003
4.5291e-09
0.00840005
1.10947e-08
0.00840005
2.62211e-08
0.00840012
6.52327e-08
0.00840017
1.5184e-07
0.00840039
3.82496e-07
0.00840119
8.83747e-07
0.00840141
2.23408e-06
0.0084079
5.18499e-06
0.0084085
1.31135e-05
0.008443
3.11725e-05
0.0084788
7.99363e-05
0.00866921
0.000209267
0.00925176
0.000624194
0.0110021
0.0020067
0.00575409
0.0136366
0.00840003
1.93109e-13
0.00840003
1.24267e-12
0.00840003
4.25758e-12
0.00840003
1.2137e-11
0.00840003
3.11407e-11
0.00840003
7.90544e-11
0.00840003
1.89612e-10
0.00840003
4.73328e-10
0.00840003
1.1103e-09
0.00840004
2.77668e-09
0.00840004
6.44348e-09
0.00840004
1.61358e-08
0.00840009
3.74471e-08
0.00840007
9.33237e-08
0.00840046
2.18044e-07
0.0084002
5.3715e-07
0.00840273
1.27365e-06
0.00840109
3.09444e-06
0.00841541
7.45271e-06
0.00841079
1.8052e-05
0.00847607
4.45845e-05
0.00852988
0.000112623
0.00888648
0.000308995
0.00990511
0.000955646
0.00287024
0.0127792
0.00840003
1.23693e-13
0.00840003
7.22805e-13
0.00840003
2.64369e-12
0.00840003
7.04358e-12
0.00840003
1.93234e-11
0.00840003
4.56899e-11
0.00840003
1.1819e-10
0.00840003
2.72392e-10
0.00840003
6.90826e-10
0.00840004
1.59982e-09
0.00840003
3.99118e-09
0.00840005
9.36004e-09
0.00840004
2.29327e-08
0.00840013
5.48546e-08
0.00840012
1.31571e-07
0.00840049
3.2117e-07
0.0084008
7.55162e-07
0.00840194
1.88047e-06
0.00840569
4.35975e-06
0.00840975
1.10178e-05
0.00843471
2.58331e-05
0.00846979
6.62133e-05
0.00862338
0.000168753
0.00906941
0.000490681
0.00156487
0.0103815
0.00840003
6.57495e-14
0.00840003
4.52987e-13
0.00840003
1.47128e-12
0.00840003
4.40876e-12
0.00840003
1.0811e-11
0.00840003
2.8401e-11
0.00840003
6.61563e-11
0.00840003
1.68034e-10
0.00840003
3.89534e-10
0.00840003
9.72032e-10
0.00840004
2.27693e-09
0.00840003
5.58363e-09
0.00840006
1.32922e-08
0.00840005
3.19713e-08
0.00840018
7.75733e-08
0.00840017
1.82916e-07
0.00840069
4.52093e-07
0.00840122
1.04852e-06
0.00840299
2.63078e-06
0.00840818
6.05874e-06
0.00841703
1.53437e-05
0.00844918
3.61349e-05
0.00852226
9.30863e-05
0.00876771
0.000244812
0.000736845
0.00959232
0.00840003
4.12446e-14
0.00840003
2.49033e-13
0.00840003
8.96297e-13
0.00840003
2.42557e-12
0.00840003
6.53167e-12
0.00840003
1.57673e-11
0.00840003
3.95135e-11
0.00840003
9.41247e-11
0.00840003
2.28723e-10
0.00840003
5.50519e-10
0.00840003
1.31116e-09
0.00840004
3.20041e-09
0.00840004
7.50022e-09
0.00840006
1.85304e-08
0.00840008
4.29319e-08
0.00840016
1.06967e-07
0.00840042
2.46167e-07
0.00840053
6.14657e-07
0.0084027
1.41915e-06
0.00840241
3.52585e-06
0.0084164
8.23995e-06
0.00841673
2.04281e-05
0.00848611
4.94235e-05
0.00856706
0.000127036
0.000350667
0.00898727
0.00840003
2.28927e-14
0.00840003
1.42764e-13
0.00840003
4.92243e-13
0.00840003
1.38928e-12
0.00840003
3.59208e-12
0.00840003
8.89795e-12
0.00840003
2.19844e-11
0.00840003
5.19407e-11
0.00840003
1.29263e-10
0.00840003
2.96621e-10
0.00840003
7.47017e-10
0.00840004
1.69349e-09
0.00840004
4.28211e-09
0.00840006
9.69944e-09
0.00840004
2.43299e-08
0.00840017
5.5778e-08
0.00840009
1.37644e-07
0.00840082
3.20915e-07
0.00840052
7.74842e-07
0.00840421
1.84912e-06
0.0084038
4.37079e-06
0.00842071
1.06796e-05
0.00843202
2.51986e-05
0.00851134
6.35277e-05
0.000163267
0.0086727
0.00840003
1.15618e-14
0.00840003
7.76731e-14
0.00840003
2.57348e-13
0.00840003
7.51866e-13
0.00840003
1.8729e-12
0.00840003
4.79553e-12
0.00840003
1.1247e-11
0.00840003
2.80665e-11
0.00840003
6.44615e-11
0.00840003
1.5973e-10
0.00840003
3.65253e-10
0.00840003
8.97484e-10
0.00840004
2.06694e-09
0.00840004
4.98013e-09
0.00840007
1.16668e-08
0.00840005
2.7502e-08
0.00840023
6.53083e-08
0.00840012
1.50714e-07
0.00840114
3.62866e-07
0.00840075
8.20138e-07
0.0084058
1.99356e-06
0.00840562
4.44803e-06
0.0084292
1.0908e-05
0.00844751
2.48752e-05
6.2745e-05
0.00856208
0.00840003
6.3554e-15
0.00840003
3.627e-14
0.00840003
1.37257e-13
0.00840003
3.52015e-13
0.00840003
9.78823e-13
0.00840003
2.26908e-12
0.00840003
5.69499e-12
0.00840003
1.32706e-11
0.00840003
3.13543e-11
0.00840003
7.55029e-11
0.00840003
1.69103e-10
0.00840003
4.22766e-10
0.00840003
8.98294e-10
0.00840004
2.33516e-09
0.00840004
4.73674e-09
0.00840004
1.25692e-08
0.00840013
2.48312e-08
0.00840003
6.59732e-08
0.00840069
1.28493e-07
0.00839981
3.3362e-07
0.00840406
6.57657e-07
0.00839884
1.62789e-06
0.00841957
3.30979e-06
0.00840493
7.79125e-06
1.67636e-05
0.00847326
0.00840003
2.84809e-15
0.00840003
1.79908e-14
0.00840003
6.25302e-14
0.00840003
1.73457e-13
0.00840003
4.49774e-13
0.00840003
1.07748e-12
0.00840003
2.64175e-12
0.00840003
6.02109e-12
0.00840003
1.45445e-11
0.00840003
3.26227e-11
0.00840003
7.71939e-11
0.00840003
1.7347e-10
0.00840003
4.01929e-10
0.00840004
9.05043e-10
0.00840003
2.03358e-09
0.00840007
4.60987e-09
0.00839999
1.00494e-08
0.00840024
2.27376e-08
0.00839973
4.83513e-08
0.00840111
1.09756e-07
0.00839836
2.19208e-07
0.00840477
5.14463e-07
0.00839302
9.44566e-07
0.00841235
2.20313e-06
4.04815e-06
0.00838584
0.00840003
1.23141e-15
0.00840003
9.27616e-15
0.00840003
2.64035e-14
0.00840003
8.80616e-14
0.00840003
1.94825e-13
0.00840003
5.13065e-13
0.00840003
1.20193e-12
0.00840003
2.63657e-12
0.00840003
7.07215e-12
0.00840003
1.24499e-11
0.00840003
4.0795e-11
0.00840003
5.62663e-11
0.00840003
2.26737e-10
0.00840003
2.37821e-10
0.00840003
1.21251e-09
0.00840005
9.8725e-10
0.00839997
6.07932e-09
0.00840018
4.05525e-09
0.00839962
2.85069e-08
0.00840093
1.63042e-08
0.00839759
1.28227e-07
0.00840439
5.95429e-08
0.00838823
4.79325e-07
0.00840874
2.09988e-07
1.05718e-06
0.00836747
0.00840003
5.19685e-16
0.00840003
4.57883e-15
0.00840003
1.31507e-14
0.00840003
4.45624e-14
0.00840003
9.03506e-14
0.00840003
2.91603e-13
0.00840003
4.87859e-13
0.00840003
1.72399e-12
0.00840003
2.41389e-12
0.00840003
9.87238e-12
0.00840003
1.12947e-11
0.00840003
5.39478e-11
0.00840003
4.93825e-11
0.00840003
2.82435e-10
0.00840004
2.30587e-10
0.00840001
1.34601e-09
0.00840008
1.31838e-09
0.00839986
5.8136e-09
0.00840035
7.90268e-09
0.00839892
2.46904e-08
0.00840185
4.0187e-08
0.00839394
8.28586e-08
0.00840598
1.61122e-07
0.00837739
2.53092e-07
4.00065e-07
0.0083946
0.00840003
5.22369e-16
0.00840003
1.75191e-15
0.00840003
8.76008e-15
0.00840003
1.69121e-14
0.00840003
6.58536e-14
0.00840003
9.88535e-14
0.00840003
4.26646e-13
0.00840003
5.1627e-13
0.00840003
2.65215e-12
0.00840003
2.66897e-12
0.00840003
1.57325e-11
0.00840003
1.2231e-11
0.00840003
8.69285e-11
0.00840004
4.17824e-11
0.00840002
4.41381e-10
0.00840004
2.98404e-10
0.0084
2.03708e-09
0.00840001
2.75749e-09
0.00839994
8.89416e-09
0.00839957
1.94707e-08
0.00839992
3.03272e-08
0.00839681
1.2131e-07
0.00839857
1.20491e-07
0.00838637
5.98669e-07
5.39616e-07
0.00837943
0.00840003
4.58916e-16
0.00840003
8.40257e-17
0.00840003
7.84613e-15
0.00840003
6.22468e-16
0.00840003
5.41447e-14
0.00840003
2.40708e-14
0.00840003
2.88944e-13
0.00840003
3.02434e-13
0.00840003
1.29055e-12
0.00840003
2.97387e-12
0.00840003
6.22126e-12
0.00840003
2.36652e-11
0.00840003
2.41761e-11
0.00840003
1.7331e-10
0.00840004
6.70357e-11
0.0084
1.18758e-09
0.00840008
-1.66742e-11
0.00839984
7.5422e-09
0.00840034
-2.19986e-09
0.0083989
4.465e-08
0.00840166
-2.18037e-08
0.00839372
2.33338e-07
0.00840524
-7.16255e-08
0.00837606
9.05137e-07
5.42758e-07
0.00839177
0.00840003
-1.25442e-16
0.00840003
2.06971e-15
0.00840003
-1.53314e-15
0.00840003
1.91772e-14
0.00840003
-7.43435e-15
0.00840003
1.07924e-13
0.00840003
1.41021e-14
0.00840003
5.12696e-13
0.00840003
5.8008e-13
0.00840003
2.43893e-12
0.00840003
6.48622e-12
0.00840003
1.00552e-11
0.00840003
5.50097e-11
0.00840003
2.91258e-11
0.00840003
4.18436e-10
0.00840003
-9.42545e-12
0.00840001
2.83323e-09
0.00840002
-9.42493e-10
0.00839978
1.80885e-08
0.00840017
-9.68517e-09
0.00839809
1.04628e-07
0.00840093
-6.60224e-08
0.00839064
4.86056e-07
0.00839677
-4.11819e-08
1.59032e-06
0.00836754
0.00840003
-1.27204e-16
0.00840003
6.33418e-16
0.00840003
8.28927e-16
0.00840003
7.21829e-15
0.00840003
2.95123e-15
0.00840003
6.10668e-14
0.00840003
-1.0946e-14
0.00840003
4.6646e-13
0.00840003
-1.95242e-13
0.00840003
3.29698e-12
0.00840003
-1.56663e-12
0.00840003
2.07385e-11
0.00840003
-8.4413e-12
0.00840003
1.15691e-10
0.00840004
-3.24951e-11
0.0084
5.33771e-10
0.00840008
8.13248e-11
0.00839984
2.13725e-09
0.00840034
3.66936e-09
0.00839886
6.82941e-09
0.0084017
3.69208e-08
0.00839353
1.18526e-08
0.00840546
2.34383e-07
0.00837498
7.91323e-08
9.13854e-07
0.00839182
0.00840003
0.00840003
0.00840003
0.00840003
0.00840003
0.00840003
0.00840003
0.00840003
0.00840003
0.00840003
0.00840003
0.00840003
0.00840003
0.00840004
0.00840002
0.00840004
0.00839999
0.00840002
0.0083999
0.00839962
0.00839965
0.00839713
0.00839709
0.0083874
0.00837525
0.00442787
0.00419396
0.00240658
0.00201247
0.00119446
0.00119065
-0.000531602
0.00171329
-0.00128289
0.000743856
-0.00185804
0.000566948
-0.00222545
0.000358494
-0.00238368
0.000149717
-0.00247944
8.9015e-05
-0.00262706
0.000141981
-0.00279132
0.000159147
-0.00293561
0.00013913
-0.00305043
0.000110118
-0.00315186
9.75652e-05
-0.00325166
9.65294e-05
-0.00334719
9.26209e-05
-0.00343613
8.60126e-05
-0.00351431
7.51381e-05
-0.00357526
5.78642e-05
-0.00361463
3.67e-05
-0.00364182
2.43504e-05
-0.00368737
3.98325e-05
-0.00373803
4.37205e-05
-0.00378006
3.49565e-05
-0.00381074
2.10991e-05
-0.00382361
-2.12473e-06
-0.00380199
-3.9137e-05
-0.00373446
-8.79426e-05
-0.00361844
-0.000137167
-0.00346359
-0.000176288
-0.00327811
-0.000206116
-0.0030704
-0.000227623
-0.0028447
-0.000244573
-0.00260687
-0.000255329
-0.00236297
-0.000260136
-0.00211709
-0.000260332
-0.00186904
-0.000261751
-0.00162018
-0.000261062
-0.00136742
-0.000263913
-0.00111322
-0.00026412
-0.000862264
-0.000260073
-0.000613121
-0.000256878
-0.00036548
-0.000254551
-0.000114338
-0.000256843
0.000131427
-0.000250566
0.000363152
-0.000235462
0.000584236
-0.00022391
0.000796972
-0.0002145
0.00100156
-0.000205506
0.00119847
-0.000196814
0.00138734
-0.00018785
0.00156796
-0.000179033
0.00174267
-0.000172479
0.00191458
-0.000168285
0.002081
-0.000162214
0.0022407
-0.000154898
0.0023941
-0.000147863
0.00254062
-0.000140898
0.00268135
-0.000134633
0.00281638
-0.000128654
0.00294587
-0.000123026
0.00306993
-0.000117558
0.003189
-0.000112412
0.00330301
-0.000107438
0.00341206
-0.000102698
0.00351643
-9.81149e-05
0.00361629
-9.37601e-05
0.00371163