/*--------------------------------*- C++ -*----------------------------------*\
  =========                 |
  \\      /  F ield         | OpenFOAM: The Open Source CFD Toolbox
   \\    /   O peration     | Website:  https://openfoam.org
    \\  /    A nd           | Version:  13
     \\/     M anipulation  |
\*---------------------------------------------------------------------------*/
FoamFile
{
    format      ascii;
    class       volScalarField;
    location    "6.5";
    object      rho;
}
// * * * * * * * * * * * * * * * * * * * * * * * * * * * * * * * * * * * * * //

dimensions      [1 -3 0 0 0 0 0];

internalField   nonuniform List<scalar> 
5250
(
1.40001
1.40002
1.40007
1.40016
1.40046
1.40098
1.40276
1.40604
1.41626
1.43679
1.49104
1.60335
1.84833
2.4082
4.69442
5.81499
5.72153
5.65263
5.67107
5.74842
5.83379
5.88554
5.92314
5.95496
5.98625
1.40001
1.40003
1.40007
1.40018
1.40041
1.40105
1.40256
1.40627
1.41549
1.43718
1.48868
1.60215
1.84231
2.39385
4.64665
5.81896
5.72205
5.64966
5.66851
5.74644
5.83188
5.88383
5.92227
5.95492
5.98715
1.40001
1.40002
1.40007
1.40016
1.40043
1.40098
1.40256
1.40597
1.41523
1.43582
1.48677
1.59628
1.83177
2.36316
4.53984
5.82862
5.72253
5.6403
5.6585
5.7362
5.82035
5.87102
5.90917
5.94238
5.97511
1.40001
1.40002
1.40006
1.40016
1.40038
1.40098
1.40236
1.40586
1.41429
1.43469
1.48231
1.58921
1.81453
2.3177
4.37151
5.84696
5.72462
5.62511
5.64208
5.716
5.80023
5.85028
5.887
5.91587
5.94859
1.40001
1.40002
1.40006
1.40015
1.40036
1.40093
1.40215
1.40567
1.41296
1.4333
1.47653
1.57924
1.79155
2.25913
4.14036
5.87485
5.72998
5.60508
5.61928
5.68912
5.769
5.81575
5.85235
5.88488
5.91749
1.40001
1.40002
1.40005
1.40014
1.40033
1.40085
1.40202
1.40507
1.41226
1.43007
1.47122
1.56548
1.76425
2.18936
3.84454
5.91067
5.73993
5.58239
5.59205
5.65591
5.73242
5.7735
5.80416
5.83305
5.86894
1.40001
1.40002
1.40005
1.40013
1.4003
1.40078
1.40178
1.40472
1.41069
1.42778
1.46352
1.55112
1.7318
2.11479
3.49671
5.94423
5.75538
5.55846
5.56101
5.61236
5.68346
5.71909
5.74251
5.76492
5.80009
1.40001
1.40002
1.40004
1.40011
1.40027
1.40069
1.4016
1.40416
1.40955
1.42458
1.4566
1.53495
1.69833
2.04123
3.10962
5.94147
5.76653
5.53776
5.53037
5.56341
5.62333
5.64712
5.65782
5.66675
5.69717
1.40001
1.40002
1.40004
1.40009
1.40026
1.40055
1.40157
1.40338
1.40926
1.42067
1.4528
1.51945
1.67243
1.98158
2.87739
5.76731
5.70285
5.50012
5.4867
5.50065
5.54675
5.55578
5.54588
5.52865
5.53462
1.40001
1.40001
1.40004
1.40008
1.40023
1.4005
1.4014
1.40299
1.40836
1.41824
1.44772
1.50705
1.64706
1.9292
2.67964
5.41713
5.55702
5.47265
5.42632
5.4271
5.44864
5.43734
5.4027
5.32821
5.27113
1.40001
1.40001
1.40004
1.40007
1.40021
1.40044
1.40124
1.40266
1.40732
1.41629
1.44216
1.49549
1.62158
1.87784
2.50453
4.98446
5.48125
5.43404
5.35562
5.34696
5.33503
5.30086
5.20759
4.98895
4.36272
1.40001
1.40001
1.40003
1.40008
1.40016
1.40043
1.40096
1.40256
1.40584
1.41514
1.4351
1.4857
1.5931
1.82529
2.34415
4.4758
5.44035
5.40103
5.29216
5.25618
5.22386
5.15458
5.00291
4.69148
4.025
1.40001
1.40001
1.40002
1.40006
1.40013
1.40037
1.40078
1.40225
1.40472
1.41326
1.42899
1.474
1.56478
1.76866
2.19396
3.89332
5.42939
5.38056
5.24472
5.16913
5.11531
5.01381
4.82429
4.49655
3.97049
1.40001
1.40001
1.40002
1.40005
1.40011
1.4003
1.40065
1.40183
1.40389
1.41085
1.42373
1.46104
1.53653
1.70915
2.05455
3.24516
5.3992
5.36078
5.224
5.09686
5.01351
4.89051
4.69205
4.38992
3.97826
1.40001
1.40001
1.40002
1.40004
1.40009
1.40024
1.40053
1.40147
1.40315
1.40873
1.41905
1.44953
1.5108
1.65484
1.94061
2.72023
5.21085
5.29678
5.2085
5.04035
4.92857
4.79397
4.60065
4.32716
3.98639
1.40001
1.40001
1.40002
1.40004
1.40007
1.4002
1.40042
1.40119
1.40256
1.407
1.41559
1.44016
1.49109
1.61141
1.85549
2.43546
4.68434
5.19246
5.14121
4.99479
4.85762
4.71501
4.53101
4.28571
3.98905
1.40001
1.40001
1.40001
1.40003
1.40006
1.40016
1.40035
1.40094
1.40204
1.40563
1.41228
1.43249
1.47297
1.57293
1.77497
2.21485
3.96521
5.10755
5.08011
4.96643
4.8037
4.65169
4.47393
4.25174
3.98907
1.40001
1.40001
1.40001
1.40002
1.40005
1.40011
1.4003
1.40064
1.4018
1.40381
1.4106
1.42315
1.4596
1.53283
1.7013
2.03067
3.17962
5.0302
5.0385
4.96048
4.78279
4.60719
4.43121
4.22607
3.9902
1.40001
1.40001
1.40001
1.40002
1.40004
1.4001
1.4002
1.40056
1.40118
1.40331
1.40707
1.41919
1.44244
1.50473
1.63047
1.89412
2.55748
4.75752
5.01101
4.94328
4.7755
4.57853
4.40019
4.20807
3.99279
1.40001
1.40001
1.40001
1.40002
1.40003
1.40007
1.40017
1.40037
1.401
1.40226
1.40584
1.41357
1.43392
1.47842
1.58186
1.79408
2.25919
4.08094
4.91609
4.88331
4.7704
4.56445
4.38069
4.19635
3.99722
1.40001
1.40001
1.40001
1.40001
1.40002
1.40006
1.40012
1.40031
1.40066
1.40185
1.40392
1.41084
1.42375
1.46062
1.53535
1.7053
2.03444
3.23364
4.80503
4.82921
4.76033
4.58601
4.37959
4.19318
4.0056
1.40001
1.40001
1.40001
1.40001
1.40002
1.40004
1.4001
1.4002
1.40054
1.40119
1.4031
1.40713
1.41806
1.44188
1.5002
1.62339
1.87007
2.49059
4.4999
4.81158
4.75474
4.60949
4.39156
4.19909
4.01651
1.40001
1.40001
1.40001
1.40001
1.40002
1.40003
1.40007
1.40015
1.40038
1.40086
1.40225
1.40501
1.41327
1.42974
1.47396
1.56513
1.76402
2.17123
3.76519
4.7334
4.7099
4.623
4.42554
4.21828
4.03275
1.40001
1.40001
1.40001
1.40001
1.40001
1.40002
1.40005
1.40011
1.40025
1.40065
1.40143
1.40388
1.40839
1.42239
1.44967
1.5205
1.66319
1.94396
2.82604
4.54583
4.68894
4.62838
4.46793
4.25102
4.05918
1.40001
1.40001
1.40001
1.40001
1.40001
1.40002
1.40004
1.40007
1.40019
1.4004
1.40111
1.40236
1.40646
1.41409
1.43674
1.48167
1.59154
1.80085
2.28594
4.03059
4.63449
4.6024
4.50006
4.2913
4.09117
1.40001
1.40001
1.40001
1.40001
1.40001
1.40001
1.40002
1.40006
1.40012
1.40032
1.40066
1.40183
1.40396
1.41056
1.42362
1.45914
1.53241
1.69629
2.00535
3.13747
4.47907
4.55801
4.50666
4.35459
4.13151
1.40001
1.40001
1.40001
1.40001
1.40001
1.40001
1.40002
1.40004
1.40008
1.4002
1.40047
1.40114
1.40282
1.40657
1.41649
1.43808
1.49098
1.6031
1.81991
2.34983
4.09036
4.52393
4.49049
4.39422
4.18517
1.40001
1.40001
1.40001
1.40001
1.40001
1.40001
1.40001
1.40003
1.40006
1.40013
1.40033
1.40072
1.40196
1.40416
1.41134
1.42472
1.46263
1.53858
1.7078
2.02772
3.23308
4.38815
4.45341
4.40637
4.2708
1.40001
1.40001
1.40001
1.40001
1.40001
1.40001
1.40001
1.40002
1.40004
1.40009
1.40019
1.40052
1.40113
1.40295
1.40668
1.4169
1.43885
1.4927
1.60538
1.81801
2.35434
4.03553
4.42672
4.39955
4.31734
1.40001
1.40001
1.40001
1.40001
1.40001
1.40001
1.40001
1.40002
1.40003
1.40006
1.40013
1.40032
1.40077
1.40181
1.40455
1.41047
1.42621
1.4599
1.5402
1.7012
2.02035
3.20281
4.28646
4.37169
4.33036
1.40001
1.40001
1.40001
1.40001
1.40001
1.40001
1.40001
1.40001
1.40002
1.40004
1.40008
1.40021
1.40045
1.40123
1.40261
1.40706
1.41533
1.43956
1.4871
1.60154
1.80038
2.31341
3.91739
4.33648
4.31804
1.40001
1.40001
1.40001
1.40001
1.40001
1.40001
1.40001
1.40001
1.40001
1.40003
1.40006
1.40013
1.4003
1.40074
1.4017
1.40436
1.40977
1.42504
1.45604
1.53303
1.68354
1.98029
3.05019
4.16553
4.29552
1.40001
1.40001
1.40001
1.40001
1.40001
1.40001
1.40001
1.40001
1.40001
1.40002
1.40003
1.40009
1.40018
1.40047
1.40103
1.40265
1.40606
1.41509
1.43498
1.48281
1.58437
1.77426
2.23352
3.73707
4.23739
1.40001
1.40001
1.40001
1.40001
1.40001
1.40001
1.40001
1.40001
1.40001
1.40001
1.40003
1.40005
1.40012
1.40026
1.40068
1.40152
1.40385
1.40894
1.42181
1.45087
1.51766
1.65512
1.90907
2.77376
4.01027
1.40001
1.40001
1.40001
1.40001
1.40001
1.40001
1.40001
1.40001
1.40001
1.40001
1.40002
1.40003
1.40008
1.40016
1.40042
1.40088
1.4024
1.40509
1.41367
1.42961
1.47386
1.56077
1.73545
2.11909
3.4518
1.40001
1.40001
1.40001
1.40001
1.40001
1.40001
1.40001
1.40001
1.40001
1.40001
1.40001
1.40002
1.40004
1.40011
1.40022
1.40058
1.40127
1.40327
1.40739
1.41839
1.44214
1.49884
1.61442
1.82038
2.40871
1.40001
1.40001
1.40001
1.40001
1.40001
1.40001
1.40001
1.40001
1.40001
1.40001
1.40001
1.40002
1.40003
1.40006
1.40014
1.40034
1.40074
1.40199
1.40422
1.41133
1.42441
1.46174
1.53393
1.69093
1.99243
1.40001
1.40001
1.40001
1.40001
1.40001
1.40001
1.40001
1.40001
1.40001
1.40001
1.40001
1.40001
1.40002
1.40004
1.40009
1.40019
1.40048
1.40103
1.40275
1.40584
1.41556
1.43362
1.48276
1.57823
1.75873
1.40001
1.40001
1.40001
1.40001
1.40001
1.40001
1.40001
1.40001
1.40001
1.40001
1.40001
1.40001
1.40001
1.40003
1.40005
1.40012
1.40025
1.40068
1.40141
1.40384
1.40814
1.42144
1.44664
1.51233
1.63627
1.40001
1.40001
1.40001
1.40001
1.40001
1.40001
1.40001
1.40001
1.40001
1.40001
1.40001
1.40001
1.40001
1.40002
1.40003
1.40007
1.40016
1.40038
1.4009
1.4022
1.40503
1.41266
1.42846
1.46931
1.55256
1.40001
1.40001
1.40001
1.40001
1.40001
1.40001
1.40001
1.40001
1.40001
1.40001
1.40001
1.40001
1.40001
1.40001
1.40002
1.40005
1.4001
1.40025
1.40059
1.40136
1.40345
1.40778
1.41985
1.44476
1.50743
1.40001
1.40001
1.40001
1.40001
1.40001
1.40001
1.40001
1.40001
1.40001
1.40001
1.40001
1.40001
1.40001
1.40001
1.40002
1.40004
1.40007
1.4002
1.40042
1.40112
1.4025
1.40656
1.41511
1.43818
1.48837
1.40001
1.40001
1.40001
1.40001
1.40001
1.40001
1.40001
1.40001
1.40001
1.40001
1.40001
1.40001
1.40001
1.40001
1.40002
1.40003
1.40007
1.40016
1.4004
1.40095
1.40238
1.40592
1.41438
1.43584
1.48516
1.40001
1.40001
1.40001
1.40001
1.40001
1.40001
1.40001
1.40001
1.40001
1.40001
1.40001
1.40001
1.40001
1.40001
1.40002
1.40003
1.40007
1.40015
1.40039
1.4009
1.40234
1.40564
1.41428
1.43466
1.48433
1.40001
1.40001
1.40001
1.40001
1.40001
1.40001
1.40001
1.40001
1.40001
1.40001
1.40001
1.40001
1.40001
1.40001
1.40001
1.40003
1.40006
1.40016
1.40036
1.40094
1.40225
1.40576
1.41404
1.43515
1.48393
1.40001
1.40001
1.40001
1.40001
1.40001
1.40001
1.40001
1.40001
1.40001
1.40001
1.40001
1.40001
1.40001
1.40001
1.40001
1.40003
1.40006
1.40016
1.40034
1.40099
1.4021
1.40609
1.41331
1.43635
1.48249
1.40001
1.40001
1.40001
1.40001
1.40001
1.40001
1.40001
1.40001
1.40001
1.40001
1.40001
1.40001
1.40001
1.40001
1.40001
1.40003
1.40006
1.40015
1.40036
1.40092
1.40227
1.40564
1.41419
1.43478
1.48437
1.40001
1.40001
1.40001
1.40001
1.40001
1.40001
1.40001
1.40001
1.40001
1.40001
1.40001
1.40001
1.40001
1.40001
1.40002
1.40003
1.40007
1.40014
1.40039
1.40083
1.40243
1.40527
1.4148
1.4336
1.48575
1.40001
1.40001
1.40001
1.40001
1.40001
1.40001
1.40001
1.40001
1.40001
1.40001
1.40001
1.40001
1.40001
1.40001
1.40001
1.40003
1.40006
1.40015
1.40035
1.40091
1.40224
1.40562
1.41404
1.43472
1.48395
1.40001
1.40001
1.40001
1.40001
1.40001
1.40001
1.40001
1.40001
1.40001
1.40001
1.40001
1.40001
1.40001
1.40001
1.40001
1.40003
1.40006
1.40016
1.40034
1.40097
1.40207
1.40601
1.41319
1.43602
1.48223
2.07459
1.44609
1.49035
1.976
1.82295
1.76566
1.74112
1.73142
1.71931
1.6956
1.66908
1.64608
1.62589
1.60405
1.57942
1.5535
1.52839
1.50609
1.48596
1.46405
1.4389
1.42745
1.42389
1.42402
1.43221
1.46051
1.50561
1.56377
1.63088
1.6987
1.76747
1.83138
1.89485
1.95041
2.00442
2.04999
2.09422
2.13294
2.16996
2.20197
2.23171
2.25795
2.28132
2.30175
2.32037
2.33661
2.34985
2.36004
2.36831
2.37369
2.37815
2.38045
2.38247
2.38057
2.37895
2.37411
2.37036
2.36402
2.35756
2.34955
2.34129
2.33147
2.32158
2.31057
2.29929
2.28691
2.27458
2.2612
2.24779
2.23336
2.21905
2.20382
2.18869
2.17272
2.15688
2.14043
2.12401
2.10708
2.09015
2.07285
2.05557
2.03803
2.02045
2.00273
1.985
1.96722
1.94949
1.93175
1.91409
1.89648
1.87903
1.86177
1.84473
1.82807
1.81181
1.79627
1.78156
1.76833
1.75685
1.74934
2.56673
2.01367
1.93267
2.02636
1.91511
1.77571
1.72213
1.70629
1.68661
1.65296
1.61802
1.59185
1.56951
1.54756
1.52067
1.49413
1.46555
1.44086
1.41749
1.39648
1.37293
1.35741
1.35048
1.34859
1.35194
1.37728
1.41671
1.47614
1.54347
1.61586
1.68922
1.75843
1.82741
1.89195
1.95311
2.00939
2.06136
2.10674
2.15261
2.19394
2.2344
2.26958
2.30152
2.32824
2.35455
2.37635
2.39618
2.41124
2.42516
2.43564
2.4445
2.45152
2.45685
2.46001
2.46055
2.45995
2.45819
2.45499
2.45074
2.44497
2.4384
2.43052
2.42205
2.41223
2.40189
2.39032
2.37829
2.36518
2.35167
2.33733
2.32257
2.30722
2.29139
2.2752
2.25846
2.24152
2.22403
2.20646
2.18833
2.17029
2.15166
2.13329
2.11434
2.09578
2.07668
2.05806
2.03893
2.02038
2.00137
1.98303
1.96427
1.94629
1.92802
1.91067
1.89326
1.87707
1.86139
1.84763
1.83524
1.82717
3.08658
2.50885
2.26046
2.15491
2.06997
1.95757
1.84943
1.78475
1.7173
1.65988
1.61061
1.57191
1.53949
1.52208
1.49707
1.4637
1.42892
1.39686
1.37007
1.34739
1.32737
1.30933
1.29878
1.29438
1.29545
1.31694
1.35566
1.4166
1.48838
1.56462
1.64433
1.72211
1.79739
1.86978
1.93806
1.99948
2.05714
2.10987
2.16182
2.2094
2.25308
2.2917
2.32679
2.35843
2.38687
2.41241
2.43439
2.45328
2.46936
2.48263
2.49392
2.50328
2.51144
2.51694
2.51957
2.52066
2.5206
2.51947
2.51705
2.51351
2.50866
2.5029
2.49598
2.48828
2.47946
2.46989
2.45927
2.44805
2.43585
2.42323
2.40962
2.39566
2.38067
2.36539
2.34906
2.33257
2.31507
2.29757
2.27909
2.26074
2.24147
2.22241
2.20256
2.1829
2.16266
2.14256
2.12213
2.10176
2.08132
2.06087
2.04064
2.02033
2.00061
1.98077
1.96215
1.94346
1.92667
1.91012
1.89666
1.8857
3.36265
2.83012
2.50004
2.33372
2.22703
2.11302
2.00652
1.92674
1.85137
1.77167
1.69413
1.63066
1.57645
1.53536
1.49967
1.46083
1.4225
1.38532
1.35486
1.3343
1.31416
1.29444
1.27773
1.26801
1.26678
1.28798
1.3283
1.3932
1.47346
1.56192
1.65014
1.7351
1.81845
1.89695
1.97046
2.03897
2.10341
2.16403
2.22122
2.27381
2.32223
2.36568
2.40577
2.44116
2.47356
2.50173
2.52684
2.54808
2.56619
2.5807
2.59267
2.60232
2.61079
2.61622
2.61906
2.61843
2.61737
2.61427
2.61095
2.6052
2.59929
2.5911
2.583
2.57287
2.56278
2.55099
2.53927
2.52623
2.51327
2.49919
2.48511
2.47001
2.45492
2.43893
2.42302
2.40629
2.38968
2.37222
2.35495
2.33674
2.31889
2.29996
2.28167
2.26211
2.24349
2.22339
2.20454
2.18399
2.16501
2.14411
2.1251
2.10416
2.08551
2.06484
2.04673
2.02676
2.00991
1.99182
1.97767
1.965
3.51398
3.05695
2.71565
2.4987
2.37171
2.26596
2.15954
2.07105
1.98788
1.91169
1.82898
1.75874
1.691
1.62493
1.56137
1.50549
1.45883
1.41686
1.38051
1.35023
1.32535
1.30377
1.28717
1.27979
1.28509
1.30865
1.35765
1.42526
1.50638
1.59537
1.68778
1.78092
1.87168
1.9576
2.03962
2.11491
2.18649
2.25174
2.31345
2.3689
2.42031
2.46554
2.50718
2.54311
2.5763
2.60436
2.63005
2.65094
2.66984
2.68408
2.6966
2.70589
2.71482
2.72063
2.7245
2.72365
2.72226
2.71891
2.71513
2.70938
2.70291
2.69462
2.68564
2.67504
2.66381
2.65117
2.63804
2.62363
2.60879
2.59274
2.5764
2.55898
2.54146
2.52295
2.50451
2.48507
2.46586
2.44563
2.42584
2.40504
2.3849
2.36371
2.34337
2.32194
2.30149
2.27994
2.25951
2.23794
2.21771
2.19651
2.17664
2.1558
2.13622
2.11596
2.09694
2.07769
2.05983
2.0426
2.02726
2.01524
3.61136
3.22212
2.90001
2.66683
2.51209
2.40113
2.29595
2.20591
2.12018
2.04087
1.96295
1.88683
1.81954
1.75185
1.68706
1.62083
1.55848
1.50123
1.45211
1.40948
1.37418
1.35009
1.33432
1.33158
1.33919
1.36594
1.41951
1.48718
1.56715
1.65513
1.74957
1.84862
1.94654
2.04109
2.12901
2.20969
2.28325
2.35003
2.41094
2.46614
2.51617
2.56069
2.60045
2.63508
2.66558
2.69182
2.71437
2.73313
2.74879
2.76087
2.77034
2.77698
2.78307
2.78725
2.78959
2.78752
2.7842
2.77916
2.77377
2.76697
2.75962
2.75076
2.74125
2.73039
2.71913
2.70671
2.69401
2.68019
2.66611
2.65099
2.63566
2.61936
2.60284
2.58535
2.56763
2.54901
2.53027
2.51067
2.49114
2.47072
2.45058
2.42949
2.40892
2.38733
2.36641
2.34454
2.32367
2.30178
2.28082
2.2588
2.23786
2.21591
2.19516
2.17351
2.1533
2.13238
2.11335
2.09412
2.07761
2.06317
3.67443
3.34459
3.04733
2.81423
2.64138
2.51592
2.41204
2.31988
2.23744
2.15754
2.08291
2.00772
1.93867
1.87076
1.80653
1.74221
1.68044
1.62299
1.56999
1.52644
1.4891
1.46344
1.4486
1.44711
1.46396
1.50743
1.55879
1.61928
1.69002
1.76984
1.84617
1.93113
2.02466
2.12013
2.21127
2.29409
2.36886
2.43372
2.49218
2.54362
2.59054
2.63192
2.6697
2.70219
2.73174
2.75657
2.77871
2.79687
2.81252
2.82475
2.83478
2.84123
2.84745
2.85203
2.85496
2.85398
2.85036
2.8448
2.83845
2.83084
2.82245
2.81273
2.80212
2.79035
2.77774
2.76412
2.74975
2.73449
2.71866
2.70202
2.68505
2.6672
2.64929
2.63037
2.61169
2.59185
2.57251
2.55185
2.53194
2.51063
2.49025
2.46848
2.44779
2.42586
2.40518
2.38318
2.3623
2.34028
2.3194
2.29742
2.27663
2.25488
2.23433
2.21304
2.19294
2.1725
2.15327
2.13453
2.11737
2.10306
3.71895
3.43378
3.16411
2.93651
2.75726
2.61959
2.51102
2.41682
2.33663
2.25815
2.1863
2.11391
2.04589
1.98034
1.91617
1.85594
1.7949
1.74168
1.69157
1.65457
1.62718
1.60908
1.60064
1.61523
1.66302
1.70927
1.75008
1.79324
1.83825
1.88294
1.9383
1.98771
2.04643
2.12818
2.2209
2.31139
2.39375
2.46469
2.52721
2.5807
2.62891
2.67184
2.71029
2.74479
2.77558
2.80235
2.82593
2.84574
2.86263
2.87601
2.88683
2.89388
2.89993
2.90445
2.90797
2.90837
2.90573
2.90065
2.89463
2.88688
2.87865
2.86876
2.8585
2.84655
2.83432
2.82048
2.80649
2.79104
2.77552
2.75865
2.74173
2.72354
2.70529
2.68581
2.6663
2.64565
2.62509
2.60354
2.58229
2.56016
2.53855
2.51634
2.49467
2.47224
2.45038
2.42773
2.40567
2.38285
2.36063
2.3378
2.31553
2.29291
2.27076
2.24865
2.22695
2.2058
2.18509
2.16571
2.14733
2.1321
3.75335
3.50206
3.25786
3.03992
2.85935
2.71379
2.59914
2.50192
2.41924
2.34406
2.27251
2.20551
2.13768
2.07672
2.01288
1.95668
1.89864
1.84985
1.80805
1.7844
1.76499
1.75615
1.76899
1.83144
1.89699
1.93272
1.95755
1.97917
1.99151
1.99267
2.01614
2.04442
2.08262
2.13353
2.20363
2.29675
2.38984
2.47662
2.55314
2.61744
2.67205
2.71794
2.75845
2.79376
2.82474
2.8518
2.87579
2.89545
2.91242
2.92537
2.93593
2.94277
2.94725
2.95051
2.95308
2.95317
2.95029
2.94455
2.93754
2.92884
2.91954
2.90891
2.89772
2.88528
2.87225
2.85811
2.84339
2.82768
2.8115
2.79443
2.77705
2.75878
2.74036
2.72095
2.70154
2.68102
2.66068
2.63916
2.61806
2.596
2.57444
2.55183
2.52982
2.50689
2.48454
2.46151
2.43895
2.41598
2.39338
2.37057
2.34805
2.32545
2.30312
2.28077
2.25879
2.23694
2.21576
2.19509
2.17607
2.15886
3.77979
3.5544
3.33223
3.12669
2.94934
2.79967
2.67906
2.5782
2.49267
2.41711
2.34661
2.28229
2.21701
2.15799
2.09864
2.04392
1.99298
1.94946
1.92573
1.90813
1.89782
1.91418
1.97409
2.08507
2.1503
2.16649
2.18029
2.17948
2.14372
2.11364
2.10164
2.11908
2.14058
2.173
2.2155
2.27294
2.35223
2.44186
2.53084
2.60912
2.67646
2.73033
2.77534
2.81184
2.84345
2.87026
2.89358
2.9137
2.93071
2.94458
2.95564
2.96351
2.96843
2.97153
2.97393
2.97492
2.97378
2.96923
2.96289
2.95478
2.94569
2.93522
2.92405
2.91164
2.89864
2.88443
2.86972
2.8538
2.83754
2.82005
2.80238
2.78348
2.76458
2.74445
2.72451
2.70342
2.68277
2.66129
2.64029
2.61842
2.59699
2.57469
2.55271
2.52998
2.50753
2.48442
2.46167
2.43836
2.41555
2.3923
2.36969
2.34674
2.32453
2.30208
2.28039
2.25862
2.2377
2.21711
2.19802
2.18052
3.80547
3.59797
3.3941
3.19979
3.02751
2.87768
2.7521
2.64754
2.55857
2.48145
2.4119
2.34737
2.28601
2.22858
2.17269
2.12249
2.07718
2.05335
2.03446
2.02906
2.03985
2.09244
2.2447
2.36495
2.39804
2.40741
2.40212
2.35952
2.29451
2.24172
2.2085
2.19366
2.20414
2.21954
2.24279
2.27692
2.32168
2.37985
2.46152
2.54736
2.62952
2.70117
2.76043
2.8076
2.84535
2.87583
2.90136
2.9228
2.94145
2.95692
2.96962
2.97923
2.98638
2.98982
2.99283
2.99434
2.99476
2.99177
2.98662
2.97895
2.97039
2.95993
2.94901
2.93647
2.92359
2.90924
2.89462
2.87864
2.86245
2.845
2.82741
2.80857
2.78967
2.76952
2.74945
2.7284
2.70752
2.68577
2.66415
2.64182
2.61957
2.5968
2.57412
2.55107
2.52812
2.50492
2.4818
2.45853
2.43533
2.41206
2.38889
2.36578
2.3428
2.3201
2.29755
2.27556
2.25382
2.23308
2.21334
2.19545
3.82993
3.63615
3.44606
3.26324
3.09585
2.94826
2.82036
2.71175
2.61989
2.53994
2.46963
2.40567
2.34585
2.29025
2.23898
2.19407
2.16431
2.15068
2.14397
2.15494
2.20625
2.34526
2.54531
2.63433
2.64204
2.63628
2.60227
2.51704
2.43745
2.37288
2.32605
2.29465
2.27915
2.27791
2.28851
2.30462
2.33067
2.36198
2.40738
2.47228
2.55313
2.63612
2.71248
2.7774
2.82925
2.86951
2.90052
2.92522
2.94517
2.9617
2.97547
2.9864
2.99483
3.00028
3.00293
3.00465
3.00579
3.00479
3.00084
2.99421
2.98611
2.97631
2.96552
2.95349
2.94071
2.92683
2.91233
2.89671
2.88065
2.8634
2.8459
2.82716
2.80827
2.78834
2.76854
2.74786
2.72729
2.70589
2.68456
2.6625
2.64045
2.61779
2.59514
2.57202
2.54893
2.52553
2.50223
2.47871
2.45538
2.43187
2.40867
2.3853
2.36232
2.33922
2.31662
2.29401
2.27213
2.25046
2.2305
2.21126
3.85441
3.67234
3.49266
3.31912
3.15793
3.01126
2.88445
2.7722
2.67761
2.59488
2.52295
2.45831
2.40027
2.34694
2.30015
2.26771
2.25632
2.24828
2.26131
2.30616
2.42736
2.68033
2.84287
2.86435
2.86328
2.8386
2.7602
2.66042
2.57461
2.50463
2.44897
2.40568
2.3737
2.35293
2.34068
2.34508
2.35445
2.36885
2.39187
2.42307
2.47034
2.53963
2.61747
2.69622
2.76669
2.82545
2.87086
2.9054
2.9311
2.95108
2.96669
2.97968
2.9898
2.99733
3.00262
3.00452
3.00632
3.00672
3.00578
3.0007
2.99399
2.98498
2.97509
2.96341
2.95117
2.93745
2.9233
2.90779
2.89189
2.87469
2.85709
2.8382
2.81915
2.79908
2.77898
2.75797
2.73699
2.71523
2.69352
2.67125
2.649
2.62637
2.6037
2.58077
2.5578
2.53459
2.5114
2.48803
2.46471
2.44132
2.41801
2.39481
2.37167
2.34886
2.32608
2.30387
2.2818
2.26056
2.24042
2.22132
3.88054
3.70682
3.53576
3.3701
3.21503
3.07133
2.94328
2.83123
2.73239
2.64736
2.57363
2.50711
2.45101
2.40048
2.36292
2.35154
2.34715
2.35611
2.39873
2.50651
2.77367
3.00477
3.0744
3.07385
3.05325
2.99196
2.88789
2.7895
2.70461
2.63276
2.57188
2.52031
2.47682
2.44187
2.41471
2.39731
2.38668
2.39293
2.40157
2.41464
2.43737
2.46977
2.52429
2.5949
2.6731
2.74785
2.8141
2.86668
2.90683
2.93581
2.95714
2.97292
2.98509
2.99437
3.00123
3.00535
3.00733
3.00837
3.00887
3.00705
3.00194
2.99427
2.98521
2.97433
2.96256
2.94934
2.93555
2.92047
2.90497
2.88819
2.87103
2.85274
2.83431
2.81488
2.79527
2.77482
2.75409
2.73271
2.711
2.6888
2.66634
2.64343
2.62046
2.59706
2.57378
2.55012
2.52667
2.50296
2.47943
2.4558
2.43227
2.40885
2.38545
2.36237
2.33931
2.31675
2.29442
2.27272
2.25238
2.23253
3.91141
3.74229
3.57919
3.41983
3.26996
3.12983
3.00223
2.88779
2.78876
2.69914
2.62428
2.55721
2.50189
2.45612
2.44474
2.43855
2.44893
2.48807
2.59099
2.84083
3.12819
3.2529
3.25473
3.24207
3.19997
3.10102
2.9992
2.90797
2.82718
2.75581
2.69169
2.63415
2.58269
2.53768
2.49872
2.467
2.44269
2.4262
2.42108
2.42626
2.43304
2.44573
2.46879
2.50564
2.56511
2.6375
2.71346
2.78567
2.84589
2.89357
2.92778
2.95234
2.96918
2.98134
2.99011
2.9962
3.00004
3.00131
3.00244
3.00223
3.0005
2.99467
2.98709
2.97734
2.96655
2.95411
2.94099
2.92648
2.91135
2.89487
2.87786
2.8598
2.84133
2.82189
2.80216
2.78154
2.76078
2.73923
2.71763
2.69538
2.67312
2.65034
2.62752
2.60433
2.58111
2.55765
2.53419
2.51066
2.48711
2.46369
2.4402
2.41703
2.39372
2.3709
2.34795
2.3256
2.30335
2.28173
2.26146
2.24136
3.94721
3.78043
3.62294
3.46907
3.32268
3.18532
3.05918
2.94357
2.84243
2.7523
2.67406
2.60958
2.55544
2.53515
2.53037
2.53874
2.57598
2.67491
2.90923
3.22705
3.40015
3.4119
3.4057
3.37553
3.29318
3.19296
3.10119
3.01877
2.94295
2.87275
2.80659
2.74532
2.68803
2.63585
2.58847
2.54674
2.51074
2.48114
2.45961
2.44436
2.44399
2.44776
2.45418
2.46729
2.49357
2.53657
2.60133
2.67425
2.74962
2.81741
2.87346
2.91493
2.94436
2.96406
2.97719
2.98597
2.99192
2.99481
2.99652
2.9971
2.99729
2.99495
2.98947
2.98132
2.97172
2.96014
2.94762
2.93361
2.91885
2.90283
2.88633
2.86873
2.85074
2.83177
2.81244
2.79224
2.77172
2.75044
2.72892
2.70676
2.68447
2.66161
2.63873
2.61539
2.59205
2.56844
2.54479
2.52112
2.49734
2.47379
2.45005
2.42677
2.40327
2.38036
2.35732
2.33491
2.31268
2.29101
2.27082
2.25052
3.99364
3.8253
3.66949
3.52064
3.37722
3.24159
3.11642
3.0008
2.89764
2.8065
2.72964
2.66537
2.63216
2.62657
2.63316
2.66661
2.76043
2.9776
3.3147
3.52545
3.55945
3.55415
3.52807
3.45936
3.36678
3.2787
3.19883
3.12403
3.05239
2.98327
2.91616
2.85206
2.79065
2.73324
2.67957
2.63062
2.58647
2.54749
2.51417
2.48755
2.46757
2.45947
2.4574
2.46162
2.46836
2.48336
2.51298
2.56389
2.63027
2.70548
2.77802
2.8422
2.89245
2.92905
2.9534
2.96898
2.97865
2.9843
2.98705
2.98814
2.98895
2.98826
2.98587
2.97986
2.97205
2.96196
2.95052
2.93734
2.92322
2.90781
2.89169
2.87445
2.85664
2.83782
2.81854
2.79839
2.77787
2.75665
2.73514
2.71311
2.69085
2.66819
2.64533
2.6222
2.59892
2.5755
2.55192
2.52842
2.50471
2.48129
2.45765
2.43446
2.41111
2.38828
2.36542
2.34312
2.3211
2.29954
2.27958
2.25928
4.0567
3.87718
3.71902
3.57139
3.43092
3.29713
3.17275
3.05785
2.95468
2.86382
2.78974
2.73951
2.73175
2.73589
2.76603
2.85242
3.05247
3.40011
3.63454
3.69187
3.68824
3.66646
3.60927
3.52274
3.43953
3.3643
3.29329
3.22424
3.1552
3.08704
3.01937
2.95359
2.88955
2.8286
2.77064
2.71659
2.66636
2.62057
2.57924
2.54339
2.51261
2.48976
2.4732
2.47048
2.46526
2.46977
2.47763
2.49512
2.53167
2.58762
2.6572
2.73095
2.80226
2.86139
2.90693
2.93787
2.95764
2.9692
2.97547
2.97738
2.97889
2.97911
2.97855
2.97532
2.96957
2.96135
2.95141
2.93937
2.92612
2.91138
2.89589
2.8792
2.86195
2.84362
2.8248
2.80505
2.78485
2.76392
2.74257
2.7207
2.69844
2.67585
2.65292
2.62985
2.60646
2.58312
2.5595
2.53607
2.51239
2.48901
2.46547
2.44229
2.41909
2.39629
2.37363
2.35143
2.32966
2.3083
2.28864
2.26856
4.1295
3.93813
3.77334
3.62548
3.48564
3.3539
3.22991
3.11687
3.01542
2.93022
2.86007
2.85126
2.85076
2.87432
2.95288
3.13888
3.49097
3.74288
3.81906
3.81589
3.79604
3.74512
3.6642
3.58561
3.51537
3.44904
3.38418
3.31841
3.2522
3.18445
3.11691
3.04956
2.98405
2.92046
2.85995
2.80205
2.7481
2.69707
2.65065
2.60777
2.56986
2.53737
2.50959
2.48885
2.47767
2.47169
2.46901
2.47381
2.48355
2.50397
2.54632
2.60703
2.67927
2.75306
2.82049
2.87491
2.91468
2.94052
2.95547
2.96314
2.96555
2.96652
2.96684
2.96548
2.96172
2.9556
2.94757
2.93731
2.92541
2.91169
2.89694
2.88084
2.86408
2.8462
2.82779
2.80845
2.78861
2.76804
2.74699
2.72542
2.7034
2.68108
2.65834
2.63547
2.61224
2.58903
2.56554
2.5422
2.51868
2.4954
2.47203
2.44902
2.426
2.40346
2.38103
2.35918
2.33774
2.31684
2.29761
2.27813
4.21733
4.00948
3.83336
3.68023
3.54145
3.41074
3.28946
3.17743
3.08288
3.00394
2.97948
2.97564
2.9975
3.06983
3.24621
3.59608
3.85787
3.94412
3.94103
3.92226
3.87504
3.79475
3.72017
3.65389
3.59393
3.53405
3.47386
3.41016
3.3449
3.27718
3.20965
3.14174
3.07564
3.01065
2.94824
2.88808
2.8308
2.77651
2.7258
2.67826
2.63506
2.59475
2.55968
2.52909
2.50397
2.48687
2.47754
2.46944
2.46837
2.47362
2.4858
2.51109
2.56142
2.62531
2.69721
2.77064
2.8336
2.88339
2.91706
2.93774
2.94836
2.95164
2.95266
2.95258
2.95101
2.94662
2.94051
2.93216
2.922
2.90975
2.89615
2.881
2.86493
2.8477
2.82972
2.8109
2.79139
2.77129
2.75052
2.72935
2.70758
2.68556
2.66303
2.64039
2.61735
2.59432
2.57099
2.54781
2.52444
2.50134
2.47815
2.45535
2.43255
2.41027
2.38814
2.36667
2.34566
2.32536
2.30669
2.28818
4.25175
4.09639
3.90293
3.74173
3.59997
3.47107
3.35281
3.24858
3.16046
3.12277
3.11592
3.13422
3.20211
3.3723
3.72099
3.98755
4.07849
4.07528
4.05541
4.00531
3.92352
3.849
3.78686
3.73065
3.67652
3.61992
3.5608
3.49795
3.43333
3.36627
3.2991
3.23114
3.16459
3.09862
3.03499
2.97287
2.91378
2.85693
2.8032
2.75201
2.70399
2.65903
2.6179
2.58016
2.54702
2.51876
2.49575
2.48196
2.47128
2.4628
2.46645
2.47263
2.48681
2.51627
2.57186
2.63863
2.71187
2.78215
2.84145
2.88469
2.91333
2.92845
2.93431
2.93505
2.93513
2.93307
2.92853
2.92203
2.9136
2.90312
2.89108
2.87739
2.86247
2.84619
2.82897
2.81074
2.79178
2.77211
2.75179
2.731
2.7096
2.68793
2.66573
2.64342
2.62065
2.59794
2.57485
2.55195
2.52881
2.506
2.48307
2.4606
2.43814
2.41631
2.39465
2.37382
2.35349
2.33418
2.31637
2.29959
4.26185
4.16888
3.97839
3.8066
3.66268
3.53447
3.42249
3.32813
3.27991
3.27028
3.28547
3.35124
3.52
3.86889
4.13652
4.22589
4.22138
4.19711
4.13881
4.05248
3.97703
3.91589
3.86282
3.81232
3.76005
3.7046
3.64554
3.58334
3.51873
3.45222
3.38521
3.31754
3.25098
3.18462
3.12046
3.05718
2.99666
2.93755
2.88129
2.82725
2.77582
2.72743
2.68144
2.63903
2.59953
2.56387
2.53273
2.50565
2.48684
2.47252
2.46224
2.45511
2.45934
2.46759
2.48523
2.52116
2.57975
2.64791
2.72135
2.78742
2.84198
2.87924
2.90197
2.91261
2.91371
2.91359
2.91218
2.90783
2.90088
2.89185
2.88145
2.8695
2.85603
2.84109
2.82482
2.80756
2.78924
2.7703
2.75049
2.73033
2.70939
2.6883
2.6665
2.64468
2.6223
2.6
2.57728
2.55477
2.53196
2.50953
2.48694
2.46495
2.44291
2.42172
2.40069
2.38078
2.36139
2.34355
2.32694
2.31287
4.23653
4.19205
4.07597
3.89097
3.73444
3.60903
3.5046
3.44859
3.43695
3.44976
3.51713
3.69137
4.04408
4.31086
4.39316
4.38644
4.35518
4.28359
4.19044
4.11261
4.0488
3.99663
3.94682
3.89766
3.84466
3.78919
3.72942
3.66765
3.60293
3.53742
3.47047
3.40357
3.33666
3.27035
3.20524
3.1411
3.07902
3.0182
2.96008
2.90341
2.84976
2.79777
2.74872
2.70186
2.65792
2.61683
2.57933
2.54515
2.51599
2.49081
2.47473
2.45915
2.44831
2.44383
2.4483
2.45833
2.47965
2.52387
2.58333
2.65314
2.72487
2.78731
2.8356
2.86733
2.88407
2.88903
2.88914
2.88775
2.8838
2.87634
2.86753
2.8571
2.84503
2.83152
2.81649
2.80048
2.78311
2.76514
2.74603
2.72661
2.7063
2.68581
2.66464
2.64341
2.62162
2.59994
2.57779
2.55591
2.53364
2.51189
2.48984
2.46858
2.4472
2.4269
2.40678
2.38814
2.37016
2.35445
2.33972
2.32977
4.21487
4.19476
4.13257
3.98354
3.82103
3.69388
3.62816
3.61469
3.62521
3.69684
3.88611
4.24917
4.51333
4.58247
4.57221
4.53223
4.43864
4.33672
4.2532
4.18729
4.1334
4.08354
4.03471
3.98323
3.92926
3.87169
3.81163
3.74906
3.68485
3.61932
3.55285
3.4861
3.41896
3.35262
3.28647
3.22198
3.15843
3.09684
3.03688
2.97874
2.92271
2.86833
2.81654
2.76643
2.71932
2.67416
2.63226
2.59268
2.55698
2.52433
2.49606
2.47413
2.45652
2.44181
2.42926
2.4313
2.43578
2.447
2.47002
2.52156
2.58244
2.654
2.72135
2.78034
2.82154
2.84729
2.85905
2.8594
2.85841
2.85545
2.84883
2.83997
2.82897
2.81685
2.80339
2.78873
2.77288
2.75586
2.73805
2.71933
2.70007
2.68022
2.65992
2.63935
2.61834
2.59737
2.57595
2.5549
2.5334
2.51255
2.49139
2.47114
2.45088
2.43184
2.41326
2.39639
2.38068
2.368
2.35661
2.34937
4.12378
4.18368
4.15312
4.07635
3.92088
3.82231
3.80428
3.81396
3.89172
4.10379
4.48644
4.74478
4.79519
4.78031
4.73057
4.60971
4.49616
4.40381
4.33387
4.27594
4.22539
4.17469
4.12395
4.06948
4.01362
3.9541
3.89337
3.82984
3.76582
3.6999
3.63397
3.56694
3.5002
3.43339
3.36714
3.30196
3.23756
3.17502
3.11343
3.05404
2.99581
2.93999
2.8855
2.83359
2.78318
2.73533
2.68932
2.64591
2.60483
2.56664
2.53151
2.50033
2.47287
2.45345
2.43298
2.41893
2.40793
2.4108
2.41679
2.43072