/*--------------------------------*- C++ -*----------------------------------*\
  =========                 |
  \\      /  F ield         | OpenFOAM: The Open Source CFD Toolbox
   \\    /   O peration     | Website:  https://openfoam.org
    \\  /    A nd           | Version:  13
     \\/     M anipulation  |
\*---------------------------------------------------------------------------*/
FoamFile
{
    format      ascii;
    class       volVectorField;
    location    "6.5";
    object      U;
}
// * * * * * * * * * * * * * * * * * * * * * * * * * * * * * * * * * * * * * //

dimensions      [0 1 -1 0 0 0 0];

internalField   nonuniform List<vector> 
5250
(
(3 2.57755e-08 0)
(2.99999 -7.11821e-09 0)
(2.99996 5.05292e-07 0)
(2.9999 -9.47579e-08 0)
(2.99975 3.60096e-06 0)
(2.99938 8.72766e-07 0)
(2.9985 1.96081e-05 0)
(2.99625 1.54942e-05 0)
(2.99077 9.76819e-05 0)
(2.97683 0.000145605 0)
(2.94064 0.000511772 0)
(2.84043 0.00117004 0)
(2.54869 0.003364 0)
(1.71158 0.00966489 0)
(0.786647 0.0249938 0)
(0.494527 0.0238711 0)
(0.547275 0.0241123 0)
(0.556609 0.0258994 0)
(0.503941 0.0277396 0)
(0.416377 0.0296527 0)
(0.332879 0.0319711 0)
(0.264071 0.0347228 0)
(0.194977 0.0376089 0)
(0.116493 0.040899 0)
(0.0502164 0.0452683 0)
(3 3.87024e-08 0)
(2.99999 2.21022e-07 0)
(2.99996 8.11387e-07 0)
(2.9999 2.06452e-06 0)
(2.99975 6.10504e-06 0)
(2.9994 1.34022e-05 0)
(2.99851 3.9266e-05 0)
(2.99631 8.39406e-05 0)
(2.99087 0.0002396 0)
(2.97718 0.000544217 0)
(2.94146 0.00145454 0)
(2.84289 0.00372709 0)
(2.5555 0.0104343 0)
(1.72913 0.0299889 0)
(0.796532 0.0761024 0)
(0.49104 0.0688156 0)
(0.546345 0.0664932 0)
(0.556818 0.0694213 0)
(0.503925 0.0724644 0)
(0.416404 0.0757474 0)
(0.332959 0.0795902 0)
(0.263661 0.0838697 0)
(0.193638 0.0878307 0)
(0.113975 0.0915985 0)
(0.0473027 0.0949236 0)
(3 6.00512e-08 0)
(2.99999 3.99113e-07 0)
(2.99996 1.31284e-06 0)
(2.9999 3.82338e-06 0)
(2.99976 9.91745e-06 0)
(2.99941 2.50598e-05 0)
(2.99855 6.32878e-05 0)
(2.99641 0.000154652 0)
(2.99115 0.000389698 0)
(2.97784 0.00095769 0)
(2.9433 0.00244615 0)
(2.84789 0.00638565 0)
(2.57066 0.0177641 0)
(1.76751 0.0513295 0)
(0.820001 0.131645 0)
(0.486503 0.116633 0)
(0.547639 0.111515 0)
(0.561015 0.1167 0)
(0.508212 0.122445 0)
(0.421193 0.129152 0)
(0.338051 0.13644 0)
(0.268279 0.144223 0)
(0.197184 0.15159 0)
(0.115967 0.158133 0)
(0.0472752 0.162388 0)
(3 9.80178e-08 0)
(2.99999 5.13072e-07 0)
(2.99996 2.0232e-06 0)
(2.99991 5.019e-06 0)
(2.99977 1.48919e-05 0)
(2.99944 3.36342e-05 0)
(2.99862 9.37675e-05 0)
(2.99658 0.000208513 0)
(2.99154 0.000570851 0)
(2.97889 0.00130355 0)
(2.94598 0.00348112 0)
(2.85566 0.00887085 0)
(2.59316 0.0248547 0)
(1.82789 0.0716257 0)
(0.856652 0.187012 0)
(0.480994 0.163904 0)
(0.551665 0.155731 0)
(0.569868 0.163241 0)
(0.517528 0.171876 0)
(0.431391 0.182404 0)
(0.348566 0.193497 0)
(0.27825 0.20528 0)
(0.205703 0.216896 0)
(0.121845 0.227147 0)
(0.0493807 0.232906 0)
(3 1.08468e-07 0)
(2.99999 6.82583e-07 0)
(2.99997 2.34834e-06 0)
(2.99991 6.69354e-06 0)
(2.99979 1.7448e-05 0)
(2.99948 4.44717e-05 0)
(2.9987 0.000110901 0)
(2.99681 0.000274606 0)
(2.99207 0.000685276 0)
(2.98026 0.00169871 0)
(2.94961 0.00430808 0)
(2.86572 0.0112611 0)
(2.62332 0.0312049 0)
(1.90891 0.0902355 0)
(0.907402 0.241154 0)
(0.476628 0.211491 0)
(0.559438 0.200025 0)
(0.583942 0.209429 0)
(0.532262 0.220697 0)
(0.447244 0.235132 0)
(0.364576 0.250272 0)
(0.293631 0.266489 0)
(0.219374 0.283035 0)
(0.131781 0.29804 0)
(0.053569 0.306331 0)
(3 1.27746e-07 0)
(2.99999 7.8252e-07 0)
(2.99997 2.75398e-06 0)
(2.99992 7.73748e-06 0)
(2.9998 2.04221e-05 0)
(2.99952 5.17841e-05 0)
(2.99881 0.000128977 0)
(2.99706 0.000320812 0)
(2.99273 0.000795414 0)
(2.98191 0.00198275 0)
(2.95396 0.00501959 0)
(2.87812 0.0130952 0)
(2.65949 0.0362376 0)
(2.01178 0.104856 0)
(0.975045 0.289226 0)
(0.479315 0.259328 0)
(0.573772 0.245299 0)
(0.605077 0.255789 0)
(0.554101 0.269307 0)
(0.470368 0.288023 0)
(0.387584 0.307918 0)
(0.315718 0.32964 0)
(0.239305 0.352615 0)
(0.146735 0.374482 0)
(0.0605081 0.387652 0)
(3 1.35768e-07 0)
(2.99999 8.56242e-07 0)
(2.99997 2.85323e-06 0)
(2.99993 8.4738e-06 0)
(2.99982 2.11576e-05 0)
(2.99957 5.59236e-05 0)
(2.99892 0.000136299 0)
(2.99737 0.000341894 0)
(2.99345 0.000857911 0)
(2.98378 0.00211181 0)
(2.95887 0.00539851 0)
(2.89182 0.0140315 0)
(2.70044 0.0388168 0)
(2.13102 0.11276 0)
(1.06368 0.324291 0)
(0.50064 0.308964 0)
(0.599287 0.295881 0)
(0.635776 0.305107 0)
(0.585583 0.31923 0)
(0.503312 0.341802 0)
(0.419985 0.366962 0)
(0.346941 0.395405 0)
(0.26822 0.426906 0)
(0.169655 0.459285 0)
(0.072072 0.482439 0)
(3 1.14078e-07 0)
(2.99999 8.13899e-07 0)
(2.99997 2.60163e-06 0)
(2.99994 7.9562e-06 0)
(2.99984 1.94772e-05 0)
(2.99961 5.29989e-05 0)
(2.99905 0.000122688 0)
(2.99766 0.000330502 0)
(2.99421 0.00075701 0)
(2.98569 0.00201788 0)
(2.96392 0.00483708 0)
(2.90601 0.0128422 0)
(2.74282 0.0345688 0)
(2.2626 0.0996653 0)
(1.18635 0.294928 0)
(0.562401 0.340477 0)
(0.644086 0.347055 0)
(0.678372 0.355782 0)
(0.628621 0.370705 0)
(0.548266 0.397103 0)
(0.464212 0.428276 0)
(0.389904 0.464817 0)
(0.30947 0.507167 0)
(0.205408 0.555288 0)
(0.0923128 0.599361 0)
(3 1.02317e-07 0)
(2.99999 7.24359e-07 0)
(2.99998 2.36313e-06 0)
(2.99994 7.01932e-06 0)
(2.99986 1.76095e-05 0)
(2.99965 4.64823e-05 0)
(2.99916 0.000109476 0)
(2.9979 0.000288636 0)
(2.99486 0.000658411 0)
(2.98719 0.00174107 0)
(2.96789 0.00409929 0)
(2.91665 0.0107588 0)
(2.77282 0.0282487 0)
(2.34944 0.0795162 0)
(1.29821 0.23512 0)
(0.604045 0.375926 0)
(0.664717 0.408388 0)
(0.702329 0.407887 0)
(0.665247 0.424068 0)
(0.595097 0.452757 0)
(0.515979 0.491274 0)
(0.444163 0.536992 0)
(0.366254 0.592561 0)
(0.26283 0.66553 0)
(0.129807 0.753668 0)
(3 1.03452e-07 0)
(2.99999 6.47019e-07 0)
(2.99998 2.25366e-06 0)
(2.99995 6.27412e-06 0)
(2.99988 1.6734e-05 0)
(2.99969 4.14732e-05 0)
(2.99925 0.000105339 0)
(2.99812 0.000256234 0)
(2.99542 0.000640302 0)
(2.98856 0.0015666 0)
(2.97142 0.00390588 0)
(2.92612 0.00990207 0)
(2.79947 0.026212 0)
(2.42846 0.0731852 0)
(1.44274 0.215558 0)
(0.686665 0.42763 0)
(0.672683 0.460908 0)
(0.704677 0.456177 0)
(0.691273 0.474938 0)
(0.638398 0.505303 0)
(0.571916 0.55188 0)
(0.508457 0.607457 0)
(0.443572 0.682049 0)
(0.358448 0.797659 0)
(0.201237 1.0057 0)
(3 1.11787e-07 0)
(2.99999 6.02465e-07 0)
(2.99998 2.32515e-06 0)
(2.99996 5.8809e-06 0)
(2.99989 1.70944e-05 0)
(2.99973 3.90792e-05 0)
(2.99933 0.000107038 0)
(2.99834 0.000241464 0)
(2.99595 0.000650932 0)
(2.98991 0.00149585 0)
(2.97483 0.00392791 0)
(2.93521 0.0096407 0)
(2.82536 0.0257827 0)
(2.50481 0.0715606 0)
(1.61211 0.209025 0)
(0.794097 0.473417 0)
(0.679596 0.491394 0)
(0.710741 0.493554 0)
(0.714413 0.515814 0)
(0.679657 0.551132 0)
(0.630807 0.603399 0)
(0.585047 0.66932 0)
(0.553156 0.761822 0)
(0.550322 0.905876 0)
(0.587229 1.15043 0)
(3 1.12153e-07 0)
(2.99999 6.1064e-07 0)
(2.99998 2.344e-06 0)
(2.99996 5.9786e-06 0)
(2.9999 1.7328e-05 0)
(2.99977 3.97553e-05 0)
(2.99942 0.000109182 0)
(2.99858 0.000245097 0)
(2.99646 0.000662732 0)
(2.99129 0.00151316 0)
(2.9782 0.0039871 0)
(2.94433 0.00971691 0)
(2.851 0.0259363 0)
(2.58055 0.0715354 0)
(1.80103 0.207807 0)
(0.92285 0.516751 0)
(0.690418 0.52101 0)
(0.722957 0.524666 0)
(0.740813 0.547138 0)
(0.721795 0.588296 0)
(0.691641 0.643888 0)
(0.669011 0.717331 0)
(0.672148 0.817472 0)
(0.728815 0.956772 0)
(0.868188 1.13938 0)
(3 9.76644e-08 0)
(3 6.50196e-07 0)
(2.99999 2.12604e-06 0)
(2.99997 6.35543e-06 0)
(2.99992 1.59376e-05 0)
(2.9998 4.1831e-05 0)
(2.99951 0.000102433 0)
(2.9988 0.000256528 0)
(2.997 0.000636119 0)
(2.99268 0.00156738 0)
(2.98167 0.00392741 0)
(2.95351 0.00986998 0)
(2.8769 0.0258682 0)
(2.65658 0.0713843 0)
(2.00889 0.20695 0)
(1.07619 0.553771 0)
(0.716897 0.558245 0)
(0.746604 0.560365 0)
(0.774363 0.575601 0)
(0.768554 0.617738 0)
(0.753972 0.675359 0)
(0.753131 0.749583 0)
(0.781655 0.844525 0)
(0.862437 0.959639 0)
(1.01943 1.07242 0)
(3 9.07652e-08 0)
(3 5.98908e-07 0)
(2.99999 1.99237e-06 0)
(2.99997 5.85801e-06 0)
(2.99993 1.48545e-05 0)
(2.99984 3.88858e-05 0)
(2.9996 9.43989e-05 0)
(2.99902 0.000241084 0)
(2.99755 0.000584843 0)
(2.99404 0.00148035 0)
(2.98513 0.00364218 0)
(2.96262 0.00922724 0)
(2.90241 0.0239037 0)
(2.73228 0.0654108 0)
(2.23186 0.188786 0)
(1.27209 0.538646 0)
(0.787801 0.592664 0)
(0.792108 0.603342 0)
(0.818771 0.608822 0)
(0.824037 0.644442 0)
(0.819142 0.699413 0)
(0.831298 0.768146 0)
(0.87385 0.849554 0)
(0.960043 0.938639 0)
(1.1077 1.011 0)
(3 7.97918e-08 0)
(3 4.98294e-07 0)
(2.99999 1.74845e-06 0)
(2.99998 4.86496e-06 0)
(2.99995 1.29718e-05 0)
(2.99987 3.24926e-05 0)
(2.99967 8.10458e-05 0)
(2.99921 0.000201942 0)
(2.99804 0.000491542 0)
(2.99523 0.00123367 0)
(2.98812 0.00301063 0)
(2.97041 0.00757555 0)
(2.92378 0.0192748 0)
(2.79448 0.0516277 0)
(2.41976 0.146135 0)
(1.49719 0.435473 0)
(0.888179 0.615398 0)
(0.845759 0.643352 0)
(0.864851 0.650872 0)
(0.881306 0.673634 0)
(0.884386 0.719401 0)
(0.902674 0.778509 0)
(0.95026 0.84518 0)
(1.0342 0.913029 0)
(1.16616 0.964078 0)
(3 6.63912e-08 0)
(3 4.22004e-07 0)
(2.99999 1.44947e-06 0)
(2.99998 4.11591e-06 0)
(2.99996 1.07173e-05 0)
(2.99989 2.72882e-05 0)
(2.99974 6.67594e-05 0)
(2.99936 0.000167343 0)
(2.99841 0.000403979 0)
(2.99614 0.00100745 0)
(2.99041 0.00245169 0)
(2.97617 0.00610277 0)
(2.93901 0.0153247 0)
(2.83697 0.0401109 0)
(2.54244 0.110883 0)
(1.73185 0.327981 0)
(1.00504 0.649561 0)
(0.881742 0.680103 0)
(0.897858 0.692539 0)
(0.924861 0.703282 0)
(0.941616 0.737493 0)
(0.965658 0.785733 0)
(1.01419 0.839218 0)
(1.09301 0.890962 0)
(1.20884 0.92879 0)
(3 5.50076e-08 0)
(3 3.74765e-07 0)
(2.99999 1.22272e-06 0)
(2.99999 3.6575e-06 0)
(2.99997 9.06422e-06 0)
(2.99992 2.41884e-05 0)
(2.99979 5.66999e-05 0)
(2.99949 0.00014879 0)
(2.99874 0.000345714 0)
(2.99693 0.00089998 0)
(2.99237 0.00211588 0)
(2.98113 0.00543607 0)
(2.95203 0.0133475 0)
(2.8732 0.035148 0)
(2.64769 0.0960651 0)
(1.99324 0.279722 0)
(1.1719 0.679985 0)
(0.917627 0.712119 0)
(0.925709 0.724908 0)
(0.958371 0.728613 0)
(0.989451 0.751628 0)
(1.02005 0.790541 0)
(1.06827 0.833733 0)
(1.14113 0.873706 0)
(1.24247 0.90217 0)
(3 4.92305e-08 0)
(3 3.09108e-07 0)
(3 1.07384e-06 0)
(2.99999 3.00994e-06 0)
(2.99997 7.99285e-06 0)
(2.99993 1.9959e-05 0)
(2.99984 5.02584e-05 0)
(2.9996 0.000123899 0)
(2.99904 0.000305418 0)
(2.99761 0.000758721 0)
(2.99419 0.00186286 0)
(2.98553 0.00464299 0)
(2.96375 0.0116343 0)
(2.90572 0.0300484 0)
(2.74286 0.0817305 0)
(2.26519 0.235336 0)
(1.3977 0.646754 0)
(0.993514 0.732531 0)
(0.969994 0.748029 0)
(0.993983 0.75221 0)
(1.03329 0.764973 0)
(1.06979 0.794698 0)
(1.1162 0.829268 0)
(1.18232 0.860468 0)
(1.27094 0.882062 0)
(3 3.97035e-08 0)
(3 2.52403e-07 0)
(3 8.58549e-07 0)
(2.99999 2.45978e-06 0)
(2.99998 6.38568e-06 0)
(2.99995 1.61512e-05 0)
(2.99988 4.03932e-05 0)
(2.9997 9.84174e-05 0)
(2.99927 0.000246608 0)
(2.99823 0.000593478 0)
(2.99561 0.00149378 0)
(2.98927 0.00361789 0)
(2.97319 0.00910799 0)
(2.93159 0.0229999 0)
(2.81755 0.0612384 0)
(2.48882 0.172548 0)
(1.67078 0.508777 0)
(1.10695 0.739539 0)
(1.02588 0.767933 0)
(1.03658 0.779557 0)
(1.07516 0.783754 0)
(1.11568 0.802273 0)
(1.15993 0.827746 0)
(1.21925 0.851431 0)
(1.29677 0.867536 0)
(3 3.08072e-08 0)
(3 1.98455e-07 0)
(3 6.7285e-07 0)
(2.99999 1.93299e-06 0)
(2.99998 4.9723e-06 0)
(2.99996 1.27342e-05 0)
(2.99991 3.10578e-05 0)
(2.99977 7.77486e-05 0)
(2.99945 0.000187855 0)
(2.99865 0.000467511 0)
(2.99671 0.00113033 0)
(2.99187 0.00280654 0)
(2.97989 0.00687243 0)
(2.94899 0.0172824 0)
(2.8655 0.0447513 0)
(2.62745 0.122593 0)
(1.95775 0.362129 0)
(1.25407 0.749952 0)
(1.07091 0.79266 0)
(1.071 0.808336 0)
(1.10691 0.807294 0)
(1.15345 0.812038 0)
(1.19835 0.828584 0)
(1.25256 0.846023 0)
(1.32089 0.85775 0)
(3 2.51247e-08 0)
(3 1.54932e-07 0)
(3 5.41998e-07 0)
(3 1.51002e-06 0)
(2.99999 4.01223e-06 0)
(2.99997 9.98074e-06 0)
(2.99993 2.5132e-05 0)
(2.99984 6.12952e-05 0)
(2.99959 0.000152319 0)
(2.99902 0.000371466 0)
(2.99755 0.000918886 0)
(2.99406 0.00225415 0)
(2.98524 0.00558564 0)
(2.96306 0.01395 0)
(2.90407 0.0359037 0)
(2.73896 0.0971893 0)
(2.25568 0.280889 0)
(1.47171 0.719629 0)
(1.1404 0.812421 0)
(1.11305 0.828344 0)
(1.13559 0.82912 0)
(1.1836 0.82447 0)
(1.23286 0.832195 0)
(1.28371 0.843792 0)
(1.34429 0.851857 0)
(3 1.87482e-08 0)
(3 1.20115e-07 0)
(3 4.13158e-07 0)
(3 1.17026e-06 0)
(2.99999 3.05619e-06 0)
(2.99998 7.76091e-06 0)
(2.99995 1.89843e-05 0)
(2.99988 4.78329e-05 0)
(2.99971 0.000114177 0)
(2.99929 0.000289866 0)
(2.99828 0.000686169 0)
(2.99576 0.00174752 0)
(2.98964 0.00417035 0)
(2.97424 0.0105863 0)
(2.93456 0.0264943 0)
(2.82663 0.0706534 0)
(2.51625 0.198875 0)
(1.76399 0.571675 0)
(1.25782 0.810822 0)
(1.16847 0.83933 0)
(1.17342 0.84886 0)
(1.21417 0.842076 0)
(1.26471 0.839847 0)
(1.3134 0.844931 0)
(1.3677 0.84949 0)
(3 1.46102e-08 0)
(3 8.82732e-08 0)
(3 3.12669e-07 0)
(3 8.59886e-07 0)
(2.99999 2.30499e-06 0)
(2.99999 5.65273e-06 0)
(2.99997 1.43985e-05 0)
(2.99991 3.4411e-05 0)
(2.99979 8.66527e-05 0)
(2.99949 0.000206436 0)
(2.99877 0.00051827 0)
(2.99696 0.00123559 0)
(2.9926 0.00310179 0)
(2.98165 0.0074906 0)
(2.95386 0.0189524 0)
(2.8794 0.0485581 0)
(2.6692 0.1326 0)
(2.07634 0.389887 0)
(1.41571 0.803286 0)
(1.21839 0.858889 0)
(1.20844 0.870061 0)
(1.23862 0.863651 0)
(1.28999 0.852488 0)
(1.34034 0.850204 0)
(1.39086 0.850558 0)
(3 1.03842e-08 0)
(3 6.71787e-08 0)
(3 2.25655e-07 0)
(3 6.53552e-07 0)
(3 1.66496e-06 0)
(2.99999 4.28369e-06 0)
(2.99998 1.04051e-05 0)
(2.99994 2.60022e-05 0)
(2.99985 6.29605e-05 0)
(2.99965 0.000155369 0)
(2.99913 0.000378852 0)
(2.99791 0.000927449 0)
(2.99485 0.00228444 0)
(2.98743 0.00560466 0)
(2.96863 0.0139426 0)
(2.91972 0.0355724 0)
(2.78569 0.0949906 0)
(2.39502 0.273268 0)
(1.66969 0.707317 0)
(1.30747 0.858397 0)
(1.25575 0.880498 0)
(1.2688 0.883153 0)
(1.31365 0.869703 0)
(1.36505 0.860463 0)
(1.41364 0.85599 0)
(3 7.7002e-09 0)
(3 4.6937e-08 0)
(3 1.66136e-07 0)
(3 4.56495e-07 0)
(3 1.22324e-06 0)
(2.99999 3.01092e-06 0)
(2.99998 7.58405e-06 0)
(2.99996 1.83716e-05 0)
(2.9999 4.53747e-05 0)
(2.99976 0.000110299 0)
(2.99941 0.000269139 0)
(2.99855 0.000661487 0)
(2.9965 0.00160009 0)
(2.99136 0.00395969 0)
(2.9788 0.00968025 0)
(2.94642 0.0243547 0)
(2.85992 0.0633114 0)
(2.61419 0.175089 0)
(1.97595 0.504818 0)
(1.43772 0.837249 0)
(1.3078 0.887038 0)
(1.30279 0.899989 0)
(1.33596 0.890054 0)
(1.38681 0.873533 0)
(1.43509 0.864792 0)
(3 5.50293e-09 0)
(3 3.3562e-08 0)
(3 1.17758e-07 0)
(3 3.26249e-07 0)
(3 8.68533e-07 0)
(3 2.13551e-06 0)
(2.99999 5.42876e-06 0)
(2.99997 1.29333e-05 0)
(2.99993 3.26589e-05 0)
(2.99984 7.72299e-05 0)
(2.99959 0.000194445 0)
(2.99902 0.000461494 0)
(2.99759 0.00115464 0)
(2.99416 0.00277039 0)
(2.98559 0.00690177 0)
(2.96416 0.0169771 0)
(2.90767 0.0435405 0)
(2.75166 0.116517 0)
(2.30125 0.337912 0)
(1.64457 0.779242 0)
(1.37555 0.892262 0)
(1.34109 0.911903 0)
(1.35729 0.910406 0)
(1.40355 0.891651 0)
(1.45457 0.876984 0)
(3 3.70194e-09 0)
(3 2.39255e-08 0)
(3 8.11924e-08 0)
(3 2.32137e-07 0)
(3 5.98418e-07 0)
(3 1.52415e-06 0)
(2.99999 3.70179e-06 0)
(2.99998 9.28732e-06 0)
(2.99995 2.21346e-05 0)
(2.99989 5.56457e-05 0)
(2.99973 0.00013159 0)
(2.99935 0.000331611 0)
(2.99842 0.000784592 0)
(2.99615 0.00197531 0)
(2.99062 0.00472343 0)
(2.97686 0.0118654 0)
(2.94172 0.0295359 0)
(2.84788 0.0777642 0)
(2.57866 0.217965 0)
(1.94275 0.600694 0)
(1.49496 0.871903 0)
(1.39444 0.914768 0)
(1.38951 0.925176 0)
(1.42195 0.91238 0)
(1.47116 0.889935 0)
(3 2.55933e-09 0)
(3 1.66099e-08 0)
(3 5.56551e-08 0)
(3 1.6107e-07 0)
(3 4.10079e-07 0)
(3 1.04994e-06 0)
(2.99999 2.55354e-06 0)
(2.99999 6.32713e-06 0)
(2.99997 1.53325e-05 0)
(2.99993 3.7485e-05 0)
(2.99982 9.13077e-05 0)
(2.99957 0.000221215 0)
(2.99896 0.000542809 0)
(2.99744 0.00130844 0)
(2.99383 0.00322985 0)
(2.98478 0.00783241 0)
(2.9622 0.0195453 0)
(2.90282 0.0496676 0)
(2.73854 0.133604 0)
(2.27438 0.385818 0)
(1.68002 0.816733 0)
(1.45531 0.916426 0)
(1.42501 0.9342 0)
(1.43949 0.930683 0)
(1.48262 0.907673 0)
(3 1.76365e-09 0)
(3 1.11377e-08 0)
(3 3.80523e-08 0)
(3 1.08116e-07 0)
(3 2.79724e-07 0)
(3 7.04905e-07 0)
(3 1.74068e-06 0)
(2.99999 4.24023e-06 0)
(2.99998 1.04326e-05 0)
(2.99995 2.50967e-05 0)
(2.99989 6.20135e-05 0)
(2.99973 0.000148087 0)
(2.99933 0.000367954 0)
(2.99839 0.000876378 0)
(2.99606 0.00218038 0)
(2.99043 0.00524731 0)
(2.97644 0.0130426 0)
(2.94088 0.0325921 0)
(2.84609 0.0854854 0)
(2.57441 0.240527 0)
(1.96793 0.637229 0)
(1.56705 0.887446 0)
(1.4768 0.931092 0)
(1.46971 0.940763 0)
(1.49747 0.927451 0)
(3 1.14439e-09 0)
(3 7.44469e-09 0)
(3 2.50235e-08 0)
(3 7.20899e-08 0)
(3 1.83826e-07 0)
(3 4.69876e-07 0)
(3 1.13475e-06 0)
(2.99999 2.83198e-06 0)
(2.99999 6.76014e-06 0)
(2.99997 1.67497e-05 0)
(2.99993 3.99773e-05 0)
(2.99982 9.84232e-05 0)
(2.99957 0.000236327 0)
(2.99895 0.000577984 0)
(2.99747 0.00139699 0)
(2.99383 0.0034091 0)
(2.98494 0.00832713 0)
(2.96256 0.0205404 0)
(2.90414 0.0523366 0)
(2.74317 0.139874 0)
(2.29447 0.400054 0)
(1.74218 0.821849 0)
(1.5352 0.925183 0)
(1.5037 0.945008 0)
(1.51411 0.943441 0)
(3 7.47247e-10 0)
(3 4.95408e-09 0)
(3 1.63686e-08 0)
(3 4.79493e-08 0)
(3 1.20303e-07 0)
(3 3.11625e-07 0)
(3 7.42947e-07 0)
(3 1.87241e-06 0)
(2.99999 4.43504e-06 0)
(2.99998 1.10283e-05 0)
(2.99995 2.62699e-05 0)
(2.99989 6.4633e-05 0)
(2.99973 0.000155552 0)
(2.99935 0.000378215 0)
(2.99842 0.000921322 0)
(2.9962 0.00222313 0)
(2.99069 0.00547388 0)
(2.97731 0.0133106 0)
(2.94308 0.0335331 0)
(2.85269 0.0870495 0)
(2.59422 0.244371 0)
(2.02472 0.637483 0)
(1.64377 0.891898 0)
(1.55365 0.940169 0)
(1.5434 0.9509 0)
(3 5.02031e-10 0)
(3 3.09582e-09 0)
(3 1.08242e-08 0)
(3 2.99957e-08 0)
(3 7.92295e-08 0)
(3 1.95833e-07 0)
(3 4.86293e-07 0)
(3 1.17954e-06 0)
(3 2.87138e-06 0)
(2.99999 6.98167e-06 0)
(2.99997 1.681e-05 0)
(2.99993 4.10857e-05 0)
(2.99983 9.83116e-05 0)
(2.99959 0.000241328 0)
(2.99901 0.000575745 0)
(2.99762 0.00141553 0)
(2.99418 0.00339193 0)
(2.98586 0.00835708 0)
(2.96495 0.0204086 0)
(2.91084 0.0518869 0)
(2.76273 0.137884 0)
(2.3516 0.390974 0)
(1.82468 0.808001 0)
(1.61349 0.926978 0)
(1.57698 0.951279 0)
(3 3.22618e-10 0)
(3 1.97807e-09 0)
(3 6.92938e-09 0)
(3 1.91504e-08 0)
(3 5.07128e-08 0)
(3 1.24775e-07 0)
(3 3.11725e-07 0)
(3 7.49976e-07 0)
(3 1.84257e-06 0)
(2.99999 4.43395e-06 0)
(2.99998 1.07929e-05 0)
(2.99996 2.60878e-05 0)
(2.9999 6.3094e-05 0)
(2.99975 0.000153562 0)
(2.9994 0.000368811 0)
(2.99855 0.000904097 0)
(2.99647 0.00216546 0)
(2.99147 0.0053414 0)
(2.97913 0.0129461 0)
(2.94804 0.0324505 0)
(2.86617 0.0837479 0)
(2.63399 0.232553 0)
(2.1083 0.608896 0)
(1.72647 0.891111 0)
(1.62678 0.948356 0)
(3 1.9869e-10 0)
(3 1.26287e-09 0)
(3 4.33053e-09 0)
(3 1.22167e-08 0)
(3 3.16169e-08 0)
(3 7.95778e-08 0)
(3 1.93338e-07 0)
(3 4.77726e-07 0)
(3 1.13927e-06 0)
(3 2.81492e-06 0)
(2.99999 6.65892e-06 0)
(2.99997 1.64813e-05 0)
(2.99994 3.89125e-05 0)
(2.99985 9.62045e-05 0)
(2.99964 0.000227407 0)
(2.99911 0.000561366 0)
(2.99787 0.00133233 0)
(2.99484 0.00327965 0)
(2.98748 0.00787448 0)
(2.96919 0.0194934 0)
(2.92235 0.0487622 0)
(2.79563 0.129167 0)
(2.44267 0.363449 0)
(1.93158 0.77775 0)
(1.69448 0.927499 0)
(3 1.26376e-10 0)
(3 7.85474e-10 0)
(3 2.707e-09 0)
(3 7.5923e-09 0)
(3 1.98169e-08 0)
(3 4.9042e-08 0)
(3 1.22234e-07 0)
(3 2.91835e-07 0)
(3 7.23908e-07 0)
(3 1.70727e-06 0)
(2.99999 4.24507e-06 0)
(2.99998 9.96779e-06 0)
(2.99996 2.4759e-05 0)
(2.99991 5.82862e-05 0)
(2.99978 0.00014417 0)
(2.99947 0.000341177 0)
(2.99874 0.00083924 0)
(2.99692 0.00200432 0)
(2.99262 0.00490834 0)
(2.98191 0.0118969 0)
(2.95531 0.0295324 0)
(2.88586 0.0754573 0)
(2.69128 0.206216 0)
(2.22503 0.547635 0)
(1.82163 0.879446 0)
(3 7.42095e-11 0)
(3 4.89313e-10 0)
(3 1.6194e-09 0)
(3 4.72356e-09 0)
(3 1.18768e-08 0)
(3 3.04842e-08 0)
(3 7.29989e-08 0)
(3 1.8136e-07 0)
(3 4.31898e-07 0)
(3 1.05657e-06 0)
(3 2.53358e-06 0)
(2.99999 6.12355e-06 0)
(2.99998 1.48298e-05 0)
(2.99995 3.5424e-05 0)
(2.99987 8.6716e-05 0)
(2.99969 0.000205125 0)
(2.99926 0.000506035 0)
(2.99823 0.00119213 0)
(2.99571 0.00295244 0)
(2.98967 0.00700728 0)
(2.97477 0.0174007 0)
(2.93724 0.043013 0)
(2.83778 0.112852 0)
(2.55892 0.314968 0)
(2.06063 0.71723 0)
(3 4.64178e-11 0)
(3 2.86883e-10 0)
(3 1.00149e-09 0)
(3 2.77212e-09 0)
(3 7.29025e-09 0)
(3 1.79895e-08 0)
(3 4.44018e-08 0)
(3 1.07438e-07 0)
(3 2.5964e-07 0)
(3 6.30233e-07 0)
(3 1.50281e-06 0)
(2.99999 3.66909e-06 0)
(2.99999 8.68777e-06 0)
(2.99997 2.13061e-05 0)
(2.99992 5.02364e-05 0)
(2.99982 0.000123255 0)
(2.99956 0.000291008 0)
(2.99896 0.000712588 0)
(2.99746 0.00168682 0)
(2.99393 0.00412941 0)
(2.98516 0.00988179 0)
(2.96365 0.0243893 0)
(2.90802 0.0610994 0)
(2.75589 0.163271 0)
(2.36293 0.440718 0)
(3 2.78041e-11 0)
(3 1.71363e-10 0)
(3 5.96375e-10 0)
(3 1.65464e-09 0)
(3 4.34764e-09 0)
(3 1.06868e-08 0)
(3 2.65786e-08 0)
(3 6.34945e-08 0)
(3 1.55743e-07 0)
(3 3.70686e-07 0)
(3 9.03719e-07 0)
(3 2.15349e-06 0)
(2.99999 5.22356e-06 0)
(2.99998 1.25129e-05 0)
(2.99996 3.01649e-05 0)
(2.99989 7.26525e-05 0)
(2.99975 0.000174163 0)
(2.99939 0.000422201 0)
(2.99856 0.00100765 0)
(2.99649 0.002455 0)
(2.99162 0.00588998 0)
(2.97954 0.0144209 0)
(2.94952 0.0355957 0)
(2.87126 0.0915745 0)
(2.65168 0.251428 0)
(3 1.56459e-11 0)
(3 1.02318e-10 0)
(3 3.42325e-10 0)
(3 9.85837e-10 0)
(3 2.49705e-09 0)
(3 6.35583e-09 0)
(3 1.51908e-08 0)
(3 3.76991e-08 0)
(3 8.88011e-08 0)
(3 2.18846e-07 0)
(3 5.1497e-07 0)
(3 1.26192e-06 0)
(3 2.98218e-06 0)
(2.99999 7.24939e-06 0)
(2.99997 1.72745e-05 0)
(2.99994 4.15752e-05 0)
(2.99985 0.000100025 0)
(2.99965 0.000238206 0)
(2.99915 0.0005794 0)
(2.99799 0.00136804 0)
(2.99512 0.00335349 0)
(2.98831 0.00796343 0)
(2.97138 0.0196284 0)
(2.92876 0.0485869 0)
(2.81495 0.127545 0)
(3 9.39625e-12 0)
(3 5.69256e-11 0)
(3 2.00633e-10 0)
(3 5.48566e-10 0)
(3 1.45477e-09 0)
(3 3.53851e-09 0)
(3 8.82562e-09 0)
(3 2.09359e-08 0)
(3 5.13489e-08 0)
(3 1.21347e-07 0)
(3 2.95075e-07 0)
(3 7.00823e-07 0)
(3 1.68851e-06 0)
(2.99999 4.04171e-06 0)
(2.99998 9.6344e-06 0)
(2.99996 2.33023e-05 0)
(2.99991 5.49492e-05 0)
(2.99979 0.000133927 0)
(2.9995 0.000313804 0)
(2.9988 0.000768435 0)
(2.99711 0.00179757 0)
(2.99307 0.00441225 0)
(2.98315 0.0104469 0)
(2.95866 0.0258368 0)
(2.8956 0.0647019 0)
(3 5.03163e-12 0)
(3 3.18992e-11 0)
(3 1.07607e-10 0)
(3 3.06572e-10 0)
(3 7.7984e-10 0)
(3 1.9541e-09 0)
(3 4.73389e-09 0)
(3 1.14008e-08 0)
(3 2.75791e-08 0)
(3 6.49501e-08 0)
(3 1.5826e-07 0)
(3 3.6823e-07 0)
(3 9.02737e-07 0)
(3 2.08315e-06 0)
(2.99999 5.11266e-06 0)
(2.99998 1.1798e-05 0)
(2.99994 2.87831e-05 0)
(2.99987 6.66694e-05 0)
(2.99968 0.000160946 0)
(2.99923 0.000376101 0)
(2.99816 0.00089579 0)
(2.99551 0.00211488 0)
(2.98917 0.00500266 0)
(2.97342 0.0119604 0)
(2.93352 0.0290427 0)
(3 2.5755e-12 0)
(3 1.63777e-11 0)
(3 5.60983e-11 0)
(3 1.56266e-10 0)
(3 4.02722e-10 0)
(3 9.95845e-10 0)
(3 2.38304e-09 0)
(3 5.81074e-09 0)
(3 1.34225e-08 0)
(3 3.29682e-08 0)
(3 7.44973e-08 0)
(3 1.84257e-07 0)
(3 4.11045e-07 0)
(3 1.01499e-06 0)
(2.99999 2.25851e-06 0)
(2.99998 5.51328e-06 0)
(2.99996 1.23071e-05 0)
(2.9999 2.94684e-05 0)
(2.99976 6.63089e-05 0)
(2.99941 0.000154102 0)
(2.99856 0.00035154 0)
(2.99649 0.000788447 0)
(2.99133 0.0018203 0)
(2.97852 0.0040039 0)
(2.94527 0.00918699 0)
(3 1.32011e-12 0)
(3 7.69194e-12 0)
(3 2.81285e-11 0)
(3 7.32475e-11 0)
(3 1.99315e-10 0)
(3 4.64277e-10 0)
(3 1.156e-09 0)
(3 2.66455e-09 0)
(3 6.31646e-09 0)
(3 1.48547e-08 0)
(3 3.35637e-08 0)
(3 8.13428e-08 0)
(3 1.74973e-07 0)
(3 4.37762e-07 0)
(2.99999 8.96793e-07 0)
(2.99999 2.28769e-06 0)
(2.99996 4.52864e-06 0)
(2.99991 1.15605e-05 0)
(2.99979 2.23575e-05 0)
(2.99947 5.58988e-05 0)
(2.99868 0.000106743 0)
(2.99673 0.000255609 0)
(2.99185 0.000484642 0)
(2.97949 0.0010752 0)
(2.94698 0.00200566 0)
(3 5.84371e-13 0)
(3 3.7983e-12 0)
(3 1.22896e-11 0)
(3 3.58099e-11 0)
(3 8.80366e-11 0)
(3 2.15452e-10 0)
(3 5.22263e-10 0)
(3 1.15811e-09 0)
(3 2.92109e-09 0)
(3 5.92228e-09 0)
(3 1.58186e-08 0)
(3 2.96002e-08 0)
(3 8.32227e-08 0)
(3 1.4477e-07 0)
(2.99999 4.21628e-07 0)
(2.99999 6.97306e-07 0)
(2.99997 2.03195e-06 0)
(2.99992 3.27025e-06 0)
(2.99979 9.23688e-06 0)
(2.99949 1.5022e-05 0)
(2.99872 3.82795e-05 0)
(2.9968 6.67141e-05 0)
(2.99201 0.000141378 0)
(2.97976 0.000255914 0)
(2.94748 0.000446017 0)
(3 2.15203e-13 0)
(3 1.9154e-12 0)
(3 5.15037e-12 0)
(3 1.81283e-11 0)
(3 3.6882e-11 0)
(3 1.08708e-10 0)
(3 2.15873e-10 0)
(3 5.79662e-10 0)
(3 1.20022e-09 0)
(3 2.89016e-09 0)
(3 6.60903e-09 0)
(3 1.37639e-08 0)
(3 3.56875e-08 0)
(3 6.18411e-08 0)
(2.99999 1.89262e-07 0)
(2.99999 2.60381e-07 0)
(2.99997 9.6799e-07 0)
(2.99992 9.63214e-07 0)
(2.9998 4.69873e-06 0)
(2.99949 2.84168e-06 0)
(2.99873 2.09535e-05 0)
(2.99682 3.4926e-06 0)
(2.992 7.43537e-05 0)
(2.97974 -2.01192e-05 0)
(2.9472 9.53407e-05 0)
(3 1.35211e-13 0)
(3 8.17986e-13 0)
(3 2.934e-12 0)
(3 7.81741e-12 0)
(3 2.07492e-11 0)
(3 4.97067e-11 0)
(3 1.2064e-10 0)
(3 2.79022e-10 0)
(3 6.63401e-10 0)
(3 1.51121e-09 0)
(3 3.56225e-09 0)
(3 8.00743e-09 0)
(3 1.83616e-08 0)
(3 4.2634e-08 0)
(2.99999 9.07013e-08 0)
(2.99999 2.20888e-07 0)
(2.99997 4.40535e-07 0)
(2.99992 1.09721e-06 0)
(2.9998 2.15157e-06 0)
(2.9995 5.24444e-06 0)
(2.99873 9.44109e-06 0)
(2.99685 2.46305e-05 0)
(2.99199 3.57374e-05 0)
(2.97978 9.50327e-05 0)
(2.94716 0.000134368 0)
(3 1.34056e-13 0)
(3 1.98463e-13 0)
(3 2.2021e-12 0)
(3 1.78521e-12 0)
(3 1.60133e-11 0)
(3 1.33451e-11 0)
(3 9.35459e-11 0)
(3 9.2903e-11 0)
(3 4.94788e-10 0)
(3 6.56778e-10 0)
(3 2.48511e-09 0)
(3 4.55885e-09 0)
(3 1.16123e-08 0)
(3 3.25519e-08 0)
(2.99999 4.70538e-08 0)
(2.99999 2.29797e-07 0)
(2.99997 1.47161e-07 0)
(2.99992 1.55945e-06 0)
(2.9998 1.78839e-07 0)
(2.9995 9.54732e-06 0)
(2.99874 -1.88988e-06 0)
(2.99684 5.27997e-05 0)
(2.99206 -6.46492e-06 0)
(2.97982 0.000223826 0)
(2.94731 0.000135479 0)
(3 4.22063e-14 0)
(3 2.79748e-13 0)
(3 8.16828e-13 0)
(3 2.59119e-12 0)
(3 6.30506e-12 0)
(3 1.66154e-11 0)
(3 4.09e-11 0)
(3 1.04329e-10 0)
(3 2.53677e-10 0)
(3 6.41992e-10 0)
(3 1.55469e-09 0)
(3 3.93807e-09 0)
(3 9.63442e-09 0)
(3 2.35604e-08 0)
(2.99999 5.96513e-08 0)
(2.99999 1.38779e-07 0)
(2.99997 3.5327e-07 0)
(2.99992 8.12337e-07 0)
(2.9998 2.03203e-06 0)
(2.9995 4.50155e-06 0)
(2.99876 1.13239e-05 0)
(2.99685 2.41535e-05 0)
(2.99213 5.92156e-05 0)
(2.97989 0.000126163 0)
(2.94757 0.000302501 0)
(3 -3.51816e-14 0)
(3 3.77093e-13 0)
(3 -1.4486e-13 0)
(3 3.7592e-12 0)
(3 -9.47141e-13 0)
(3 2.32953e-11 0)
(3 -1.81775e-12 0)
(3 1.3292e-10 0)
(3 4.77722e-11 0)
(3 7.01124e-10 0)
(3 7.43192e-10 0)
(3 3.56204e-09 0)
(3 7.25387e-09 0)
(3 1.57577e-08 0)
(2.99999 6.3073e-08 0)
(2.99999 5.00659e-08 0)
(2.99997 4.75378e-07 0)
(2.99992 2.04716e-08 0)
(2.9998 3.31708e-06 0)
(2.99951 -1.17872e-06 0)
(2.99876 2.085e-05 0)
(2.99688 -9.10761e-06 0)
(2.99214 0.000103561 0)
(2.98002 -3.25424e-07 0)
(2.94774 0.000353318 0)
(3 -3.65876e-14 0)
(3 1.38661e-13 0)
(3 -9.62676e-14 0)
(3 1.51454e-12 0)
(3 -9.46603e-13 0)
(3 1.18867e-11 0)
(3 -1.26931e-11 0)
(3 8.80514e-11 0)
(3 -1.06943e-10 0)
(3 6.05567e-10 0)
(3 -6.37425e-10 0)
(3 3.69635e-09 0)
(3 -2.86176e-09 0)
(3 1.94523e-08 0)
(2.99999 -4.61771e-09 0)
(2.99999 8.56403e-08 0)
(2.99997 5.8897e-08 0)
(2.99992 2.61153e-07 0)
(2.9998 8.41543e-07 0)
(2.99951 1.22448e-07 0)
(2.99875 7.45702e-06 0)
(2.99691 -5.52442e-06 0)
(2.99214 4.56306e-05 0)
(2.9801 -1.47537e-05 0)
(2.94787 0.000143952 0)
(1.20104 1.0369 0)
(1.34038 0.775846 0)
(0.738648 0.429098 0)
(-0.0985387 0.328428 0)
(-0.252227 0.0365457 0)
(-0.45757 0.00414514 0)
(-0.599431 -0.0160587 0)
(-0.66472 -0.0178785 0)
(-0.702988 0.00222545 0)
(-0.750075 0.0196512 0)
(-0.810183 0.0231297 0)
(-0.868406 0.0194788 0)
(-0.918501 0.013197 0)
(-0.964447 0.00882696 0)
(-1.01155 0.00738315 0)
(-1.06034 0.0069645 0)
(-1.10825 0.00675453 0)
(-1.15221 0.00617389 0)
(-1.1911 0.00478431 0)
(-1.22808 0.00296696 0)
(-1.26725 0.00252771 0)
(-1.30012 0.00479857 0)
(-1.31846 0.00502308 0)
(-1.327 0.00381842 0)
(-1.32606 0.00213386 0)
(-1.30654 -0.000619532 0)
(-1.26218 -0.00493376 0)
(-1.19733 -0.0102703 0)
(-1.11828 -0.0154623 0)
(-1.03222 -0.0194796 0)
(-0.944164 -0.0222786 0)
(-0.856886 -0.0240478 0)
(-0.77185 -0.0251804 0)
(-0.690116 -0.025806 0)
(-0.612606 -0.0260698 0)
(-0.53936 -0.0260953 0)
(-0.469645 -0.026353 0)
(-0.403217 -0.0268792 0)
(-0.338589 -0.0283207 0)
(-0.27636 -0.0292489 0)
(-0.216674 -0.0293369 0)
(-0.159279 -0.0294649 0)
(-0.103949 -0.0298123 0)
(-0.0506546 -0.0310338 0)
(0.00415581 -0.0297226 0)
(0.0555047 -0.0264975 0)
(0.103043 -0.0246683 0)
(0.148379 -0.023436 0)
(0.191515 -0.0223378 0)
(0.232955 -0.0213547 0)
(0.272432 -0.0203418 0)
(0.30955 -0.0193435 0)
(0.345967 -0.0186907 0)
(0.383108 -0.0184481 0)
(0.419764 -0.0178587 0)
(0.454925 -0.0170537 0)
(0.488796 -0.0162801 0)
(0.521583 -0.0155575 0)
(0.553508 -0.0149269 0)
(0.584616 -0.0143356 0)
(0.614978 -0.0137772 0)
(0.644636 -0.0132391 0)
(0.673631 -0.0127326 0)
(0.701984 -0.0122468 0)
(0.729737 -0.0117842 0)
(0.756921 -0.0113404 0)
(0.783563 -0.0109182 0)
(0.809688 -0.0105105 0)
(0.835326 -0.0101209 0)
(0.860501 -0.00974373 0)
(0.885236 -0.00938203 0)
(0.909549 -0.00902933 0)
(0.933466 -0.0086886 0)
(0.957003 -0.00835437 0)
(0.98018 -0.00802891 0)
(1.00301 -0.00770777 0)
(1.0255 -0.00739228 0)
(1.04767 -0.00707962 0)
(1.06952 -0.00677057 0)
(1.09106 -0.00646338 0)
(1.11228 -0.00615866 0)
(1.13319 -0.00585597 0)
(1.15378 -0.00555567 0)
(1.17405 -0.00525792 0)
(1.19401 -0.00496219 0)
(1.21364 -0.00466862 0)
(1.23294 -0.0043762 0)
(1.2519 -0.00408482 0)
(1.27051 -0.00379248 0)
(1.28875 -0.00349806 0)
(1.30658 -0.00319721 0)
(1.32394 -0.00288648 0)
(1.34077 -0.00255771 0)
(1.35695 -0.00220551 0)
(1.37231 -0.00181376 0)
(1.38661 -0.00136356 0)
(1.39949 -0.000856542 0)
(1.41049 -0.000277057 0)
(1.41872 0.000423591 0)
(1.42473 0.0012532 0)
(1.2672 0.942752 0)
(1.37677 0.647864 0)
(1.15961 0.390351 0)
(0.692451 0.384059 0)
(0.575831 0.316755 0)
(0.428627 0.238759 0)
(0.234372 0.176231 0)
(0.0529078 0.103407 0)
(-0.173731 0.0519087 0)