/*--------------------------------*- C++ -*----------------------------------*\
  =========                 |
  \\      /  F ield         | OpenFOAM: The Open Source CFD Toolbox
   \\    /   O peration     | Website:  https://openfoam.org
    \\  /    A nd           | Version:  13
     \\/     M anipulation  |
\*---------------------------------------------------------------------------*/
FoamFile
{
    format      ascii;
    class       volVectorField;
    location    "11";
    object      U;
}
// * * * * * * * * * * * * * * * * * * * * * * * * * * * * * * * * * * * * * //

dimensions      [0 1 -1 0 0 0 0];

internalField   nonuniform List<vector> 
918
(
(0.985186 -0.000699383 0)
(0.00500824 2.96625 0)
(-0.00198825 1.6677 0)
(0.979672 0.00224105 0)
(-2.65965e-06 1.63883 -1.13633e-21)
(-0.00703063 2.9488 -1.91286e-18)
(0.854628 1.16163 7.35496e-19)
(0.514805 0.254094 -8.95642e-21)
(0.999878 -0.000363752 0)
(0.0468169 1.4295 0)
(-0.00956697 1.46331 0)
(0.853698 -0.00381887 0)
(0.0110211 2.93045 0)
(0.00129536 2.79399 0)
(-0.0213849 3.17488 1.086e-18)
(-0.00145714 1.55344 -1.84609e-20)
(0.614502 0.114297 5.53079e-19)
(0.225616 1.4885 5.24292e-19)
(0.966682 0.00778849 0)
(0.00247059 1.54336 0)
(0.188154 0.292164 -4.99047e-19)
(1.00143 -0.0051037 0)
(0.999898 -0.0101822 0)
(0.975378 -0.00635043 0)
(0.769714 -0.0269167 0)
(0.0203287 2.6251 0)
(-0.0152464 2.91022 6.65106e-19)
(-0.00828958 1.68714 0)
(-0.00866203 1.76489 0)
(-0.00714755 1.68491 0)
(0.0046794 1.7992 0)
(0.00246567 1.65104 8.99752e-22)
(-0.00014337 1.56724 0)
(-0.0206329 2.98758 -6.70723e-23)
(-0.0167034 3.0053 1.48691e-18)
(0.00209554 3.0002 0)
(0.892242 -0.00212157 0)
(0.382177 0.922749 6.20416e-21)
(0.839337 1.18983 -1.05508e-18)
(0.978988 1.03906 9.79869e-19)
(0.694093 1.2827 -1.6831e-19)
(0.704955 1.26585 9.50228e-19)
(0.553712 0.315765 8.73856e-21)
(0.546194 0.220079 0)
(1.19652 0.571053 0)
(0.50489 0.334561 4.04958e-20)
(0.471291 0.245535 -4.20198e-20)
(0.913083 -0.00677948 0)
(1.00013 0.000152854 0)
(0.999954 0.000224942 0)
(1.00475 -0.00803863 0)
(1.00049 -0.000468869 0)
(1.00014 2.31688e-05 0)
(0.0336966 1.58128 -5.98853e-19)
(0.0223022 1.56336 0)
(0.0666583 1.44875 0)
(0.0104639 1.575 0)
(0.0277659 1.4149 0)
(-0.000344409 1.60258 0)
(-0.015838 1.57788 0)
(-0.00822914 1.44533 0)
(-0.0159375 1.60783 0)
(-0.01138 1.48709 0)
(0.921695 0.00173579 0)
(0.916982 0.00409802 0)
(0.862162 -0.00116905 0)
(0.912881 0.00846609 0)
(0.838606 0.00189574 0)
(0.0146943 3.0004 7.01068e-19)
(0.0115073 3.00788 0)
(0.00613297 3.00281 0)
(0.0135429 2.9973 7.82792e-24)
(0.00798463 2.9585 -1.04196e-18)
(0.0145421 2.98219 0)
(0.0108439 2.90364 0)
(0.0255008 2.92995 1.41874e-24)
(0.00384529 2.82455 0)
(0.0320768 2.91489 0)
(-0.00710896 2.74326 0)
(0.302374 3.56328 0)
(-0.13279 3.6457 0)
(0.134164 3.26345 -1.01069e-18)
(-0.0101478 2.99876 0)
(0.00951615 1.77134 0)
(-0.00291867 1.65569 1.82123e-20)
(-0.00161807 1.5618 -2.8831e-20)
(0.674991 0.163512 -1.89795e-19)
(0.635407 0.0719308 -1.83861e-19)
(0.644227 0.197392 -5.70878e-19)
(0.601539 0.13419 -3.83116e-19)
(0.258835 1.21383 0)
(0.197317 1.50118 -5.63086e-19)
(0.377022 1.39953 9.44624e-19)
(0.987977 0.0116652 0)
(0.942427 0.0106433 0)
(1.00038 0.000646985 0)
(1.00257 0.00955599 0)
(1.0023 0.00890109 -1.0287e-18)
(0.991875 0.00927141 7.85506e-19)
(-0.00178463 1.64222 0)
(0.000835693 1.54662 0)
(-0.0104068 1.69663 0)
(-0.00654115 1.65741 0)
(0.000938634 1.55284 0)
(0.277941 0.302056 1.5212e-19)
(0.321018 0.272872 0)
(0.992899 -0.00822742 0)
(0.95601 -0.00522558 0)
(0.885547 0.0248381 0)
(0.850706 0.0250882 0)
(0.8103 -0.00269889 0)
(1.03527 0.000291602 0)
(0.806365 0.0273571 0)
(0.703938 -0.0169151 7.4647e-19)
(-0.0341193 2.86852 3.43777e-19)
(0.0447495 2.90681 0)
(0.0585975 2.88165 0)
(-0.0054211 2.69402 0)
(-0.0131154 2.9854 6.1247e-19)
(-0.018663 2.89575 0)
(-0.0153228 2.98819 -1.93493e-18)
(-0.0135805 2.92532 6.67494e-19)
(-0.00466498 1.80632 0)
(-0.0013005 1.80059 0)
(0.000209784 1.66025 -4.20066e-22)
(0.000687586 1.6502 0)
(-0.000250838 1.55404 0)
(0.94775 0.0022787 0)
(0.894003 0.00348337 0)
(0.870351 -0.00429357 0)
(0.945539 -0.00228984 0)
(0.888544 -0.00247536 0)
(0.502093 1.10462 -1.80395e-20)
(0.546972 1.15562 0)
(0.338398 0.863267 1.04816e-20)
(0.272921 0.740539 0)
(0.950697 1.07573 -2.83639e-19)
(1.07573 0.891287 5.8686e-19)
(0.34658 1.42491 0)
(0.533269 1.35893 0)
(0.558255 1.31664 0)
(0.0774323 0.00226317 -9.81738e-20)
(0.584262 0.291181 0)
(0.576412 0.205146 1.11197e-19)
(1.04564 0.939227 0)
(1.11618 0.786215 0)
(1.14192 0.735785 -5.08685e-19)
(1.17892 0.627202 0)
(1.23326 0.416574 6.24846e-20)
(0.948249 -0.000419643 0)
(0.952863 -0.00617481 0)
(0.898845 -0.0027489 0)
(0.985683 -0.00903817 0)
(0.971524 -0.00783097 0)
(0.937872 -0.00568482 0)
(1.00019 0.00230548 0)
(1.00085 0.00148751 0)
(0.999896 0.000774706 0)
(0.0216024 1.66058 3.27565e-19)
(0.061718 1.5493 0)
(0.00422166 1.69227 5.22094e-19)
(0.0136458 1.58494 -4.45055e-19)
(0.0581705 1.52749 -4.37932e-19)
(0.0120353 1.56442 0)
(0.0957676 1.47382 0)
(0.00389782 1.57691 0)
(0.021615 1.40905 0)
(-0.000863887 1.68225 -1.28611e-21)
(0.00801042 1.59926 0)
(-0.00673683 1.69043 -6.60769e-20)
(-0.00682147 1.59812 1.25775e-19)
(0.00183729 1.57425 0)
(-0.0128814 1.57045 0)
(0.00550505 1.42273 0)
(-0.0152791 1.62713 0)
(-0.00892319 1.50683 0)
(0.984025 0.0130392 0)
(0.938502 0.00411426 0)
(0.96874 0.00632682 0)
(0.913828 0.00213054 0)
(0.870241 -0.00388722 0)
(0.936589 0.0040753 0)
(0.929025 0.00660543 0)
(0.866167 0.00364713 0)
(0.00609878 3.06485 -6.19579e-21)
(0.0164776 3.05797 0)
(0.0149296 2.96913 0)
(0.00873266 2.87614 0)
(0.913064 3.97152 0)
(1.22576 3.29419 1.00095e-18)
(0.0718045 3.09195 0)
(-0.0245848 2.91588 0)
(-0.00206237 1.79513 0)
(0.00387053 1.77481 0)
(0.00469964 1.77798 0)
(0.00273014 1.78543 4.27295e-21)
(0.00710049 1.77287 0)
(0.00829128 1.77913 0)
(-0.00147517 1.57058 4.49592e-21)
(-0.00230584 1.67496 3.72865e-20)
(-0.00281552 1.66676 2.94666e-20)
(-0.00242742 1.56503 0)
(0.696872 0.130078 2.78924e-19)
(0.66444 0.0539272 -2.70258e-19)
(0.22594 1.33223 0)
(0.310175 1.03262 -2.73971e-19)
(0.155635 1.44238 -8.15404e-19)
(0.186079 1.34966 8.14856e-19)
(0.89396 0.00941917 0)
(0.964063 0.013629 0)
(0.975329 0.0140283 0)
(0.920797 0.0124095 0)
(-0.0120145 1.63838 0)
(-0.00461116 1.6441 0)
(-0.00357147 1.52835 0)
(0.458484 0.350882 3.71227e-19)
(0.386194 0.331932 -4.578e-19)
(0.394563 0.247776 0)
(1.15489 0.0846127 -4.28276e-21)
(1.14094 0.0381187 0)
(1.06754 0.0361335 0)
(0.983043 0.00205598 0)
(0.727681 0.0988128 0)
(0.756997 0.0532036 -1.19795e-18)
(0.690658 0.0220836 4.58908e-19)
(0.0104856 2.98354 4.37017e-19)
(-0.031278 2.86953 5.03296e-20)
(0.00397817 3.05026 -1.33544e-20)
(0.0199066 3.04352 4.80329e-19)
(-0.0150977 2.9966 2.21616e-20)
(-0.0129383 2.94939 -8.97804e-23)
(-0.0172523 3.01201 -4.19742e-19)
(0.0146725 3.02423 3.03084e-19)
(0.00719886 3.0366 -4.73947e-19)
(0.965005 0.00563885 0)
(0.958281 0.00585226 0)
(0.902189 0.00517782 0)
(0.950285 0.0118903 0)
(0.938194 0.00520477 0)
(0.874141 0.00624837 0)
(0.939038 -0.00269243 0)
(0.931183 -0.00284783 0)
(0.872633 -0.00856338 0)
(0.700091 1.38003 2.86547e-19)
(0.733641 1.49165 0)
(0.174444 0.252479 5.95633e-21)
(0.097285 0.51911 1.71795e-19)
(0.206512 0.675426 -1.36678e-19)
(0.208744 0.560852 2.833e-19)
(0.396516 0.624912 6.71819e-19)
(0.140435 0.146231 2.68723e-19)
(0.632677 0.226871 4.15745e-19)
(0.611659 0.260602 1.01789e-19)
(0.589392 0.169124 2.13503e-19)
(1.22236 0.468129 3.0074e-19)
(1.2423 0.263097 3.16476e-19)
(-0.00634614 1.69255 2.07713e-19)
(0.00366607 1.58412 0)
(1.02235 0.0219266 0)
(0.998317 0.0117886 0)
(0.956317 -0.0032651 0)
(0.0108555 3.07457 0)
(0.020195 2.94387 8.28883e-19)
(0.0167273 2.95624 0)
(0.00614253 2.85035 -8.2211e-19)
(0.00591417 3.09201 1.96962e-19)
(0.00721722 3.08254 0)
(0.76542 1.79771 -2.27709e-19)
(1.23078 2.48613 6.17207e-19)
(0.747942 1.94129 -1.45057e-18)
(0.0217575 2.98724 -3.18956e-19)
(0.0382754 3.01286 0)
(-0.030401 2.88556 0)
(-0.00872119 1.67432 -8.07968e-21)
(-0.00337361 1.67668 -8.77385e-20)
(-0.0031698 1.58215 -6.1739e-21)
(0.279307 1.22476 8.48799e-19)
(0.329972 0.882355 -5.70329e-19)
(0.0380089 1.62036 5.49512e-19)
(0.0796519 1.55057 -6.65442e-19)
(0.105118 1.46223 7.77043e-20)
(0.00619991 3.11816 -1.04162e-18)
(0.014138 3.11872 1.12921e-18)
(-0.00846533 2.98073 5.35253e-19)
(-0.00266552 2.9781 -4.74918e-19)
(-0.0215998 2.8826 -5.45141e-19)
(0.00875179 3.09857 -1.44377e-18)
(0.00194807 3.10607 1.43643e-18)
(0.317883 0.482256 0)
(0.106206 0.470399 9.82987e-20)
(0.0846067 0.00653935 -2.87067e-20)
(0.437666 0.794191 7.89917e-19)
(0.263084 0.364328 -1.20032e-18)
(1.23647 0.172098 -5.82087e-20)
(1.23977 0.314001 0)
(1.22518 0.121736 1.24965e-19)
(0.00223201 1.68114 -1.68581e-21)
(-0.00502768 1.68006 0)
(0.0042218 1.58241 0)
(0.310536 1.0739 -3.03777e-19)
(0.346722 0.954742 -6.29335e-19)
(0.304812 0.660508 1.09425e-18)
(1.00535 -0.00900665 0)
(1.00715 -0.00735433 1.88663e-19)
(-0.00308078 1.80112 0)
(-0.00812038 1.80645 0)
(1.00259 0.00353477 1.72938e-21)
(1.00193 0.00863928 3.8574e-19)
(0.00354637 1.78718 -5.49171e-21)
(0.00261663 1.78778 0)
(0.0428674 3.18859 1.14817e-19)
(0.395119 3.51161 0)
(1.10283 0.639621 6.80729e-20)
(1.01351 0.013131 -2.73279e-21)
(1.01029 -0.0204512 0)
(1.00155 0.000302894 2.69979e-22)
(-0.0103983 1.741 0)
(0.0386115 1.84041 0)
(-0.0217762 1.78613 0)
(0.0126555 1.80406 9.25463e-20)
(-0.00813703 1.80251 4.3144e-20)
(1.00233 0.0115341 2.29436e-21)
(1.04455 0.0148537 0)
(1.07473 0.0253572 0)
(-0.00241353 1.77955 0)
(-0.00610666 1.79474 0)
(-0.00606792 1.79629 0)
(0.0342579 1.52928 -4.08809e-19)
(1.01189 -0.00944159 0)
(1.00991 -0.0168005 0)
(1.00375 0.000466885 2.39797e-19)
(1.00534 -0.00508366 -2.87706e-19)
(1.00147 -0.00220396 0)
(-0.00725446 1.78544 0)
(-0.00157485 1.79676 0)
(-0.00318608 1.79232 0)
(-0.00504324 1.79797 0)
(-0.00489984 1.79492 0)
(-0.00569474 1.79743 0)
(1.0248 0.0113458 0)
(1.02211 -0.000487867 -9.06745e-22)
(0.761381 1.21993 5.35943e-19)
(1.00199 0.00107643 -2.39987e-19)
(1.0039 0.00523014 2.8424e-19)
(1.00126 0.00203798 0)
(1.01097 0.0107097 2.34062e-19)
(1.00753 0.0114526 -2.89198e-19)
(1.00369 0.0149027 0)
(-0.00287548 1.79486 0)
(0.002202 1.78948 1.66257e-20)
(0.00194632 1.78997 -1.21488e-20)
(1.17417 0.259047 -7.59078e-20)
(1.11064 0.0813694 0)
(0.0635996 3.07921 -5.41192e-19)
(0.0716651 2.84975 -4.38704e-20)
(0.154433 3.20308 8.07656e-19)
(0.145503 3.2314 -3.78299e-21)
(0.146586 3.25595 0)
(0.0231478 3.13935 1.17098e-19)
(0.0849334 3.16498 5.28912e-19)
(0.0778661 3.1935 -2.26546e-19)
(0.0284883 3.12747 0)
(0.705388 0.346015 0)
(0.607893 0.39925 0)
(1.08012 0.67221 -2.59694e-19)
(1.06803 0.81169 4.01402e-19)
(1.12684 0.551948 0)
(1.1651 0.50785 0)
(1.01511 0.0128119 -4.41811e-19)
(1.01085 0.0188972 5.49794e-19)
(1.00886 -0.0181225 0)
(1.00841 -0.0136603 0)
(1.00689 0.000794591 0)
(1.01234 0.00365299 0)
(1.00483 0.00258608 0)
(1.01361 0.00769247 0)
(1.00649 0.00536359 0)
(1.00531 0.00382645 0)
(-0.00878397 1.74889 0)
(-0.00581029 1.76331 0)
(-0.0275671 1.73226 0)
(-0.0267504 1.70497 0)
(0.0328214 1.84733 0)
(0.065101 1.84533 -3.49136e-19)
(0.0114954 1.84555 0)
(0.00405625 1.83174 1.62383e-19)
(-0.00606665 1.81577 -1.73794e-19)
(-0.0234527 1.78715 0)
(-0.0217537 1.78782 0)
(-0.0193606 1.78704 0)
(-0.0115256 1.78495 0)
(-0.00592456 1.8024 -4.95138e-20)
(-0.00823481 1.80297 5.95631e-20)
(0.00331553 1.80931 7.86586e-20)
(-0.00430567 1.80408 0)
(-0.00701186 1.80514 -9.89593e-20)
(-0.00588366 1.80276 -5.68195e-20)
(-0.00467016 1.80298 4.09838e-20)
(-0.00956526 1.79991 -8.14494e-20)
(-0.00666972 1.80506 -9.64452e-20)
(1.00945 0.0165709 4.20401e-19)
(1.00829 0.00407858 -5.32406e-19)
(1.00264 0.0198333 -4.42532e-19)
(0.987935 0.0165997 5.64344e-19)
(1.03805 0.0168652 0)
(1.04024 0.00905192 0)
(1.05997 0.0333873 0)
(1.04477 0.0159575 0)
(1.05987 0.0118921 0)
(1.09796 0.0642095 0)
(1.07522 0.0449197 0)
(1.09676 0.0308495 0)
(0.00293027 1.77848 -1.74506e-21)
(-0.0033434 1.77368 0)
(0.000162836 1.77471 0)
(-0.00655079 1.79706 1.68697e-20)
(-0.00565498 1.79622 -8.24766e-22)
(-0.0114915 1.77805 1.73149e-20)
(-0.00766848 1.78509 -1.76984e-20)
(-0.00814446 1.79432 0)
(-0.00648332 1.79546 0)
(-0.00695999 1.79595 0)
(-0.00855764 1.79562 0)
(-0.00890297 1.79697 0)
(0.123386 1.43367 8.06626e-19)
(0.272108 1.37902 3.2853e-19)
(0.413529 1.86423 -2.03984e-19)
(0.255382 1.79502 5.41415e-19)
(-0.0707958 2.28294 9.96764e-20)
(1.01185 -0.0225675 0)
(1.01444 -0.0184158 0)
(1.00974 -0.0260827 0)
(1.00944 -0.00233934 0)
(1.00629 -0.00336202 0)
(1.00567 -0.00479075 0)
(1.00926 -0.00659001 0)
(1.01093 -0.0127967 0)
(1.0239 0.000816058 4.17596e-19)
(1.01982 0.00413135 -5.32105e-19)
(1.02268 0.00118484 -4.08824e-19)
(1.01907 0.00284949 5.02588e-19)
(0.756442 1.23028 0)
(0.623058 1.28053 6.51851e-19)
(0.850932 1.16246 3.84431e-19)
(0.894168 1.1077 -5.11773e-19)
(1.14355 2.56416 -3.8326e-19)
(0.820278 0.119545 2.83575e-19)
(1.11186 0.0897799 0)
(1.15717 0.174076 6.82216e-20)
(1.14517 0.152013 3.15243e-21)
(0.963161 0.1369 0)
(0.171949 2.97813 8.30247e-20)
(0.137042 2.87947 -6.799e-19)
(0.0528713 2.33398 5.0379e-19)
(0.124627 0.164687 -2.04951e-19)
(0.33659 3.43778 -4.542e-19)
(0.200023 3.33313 0)
(0.239472 3.38273 5.91528e-19)
(0.257568 3.05853 -6.27434e-19)
(0.359957 3.21568 0)
(0.00754929 3.12031 2.76768e-20)
(0.0195279 3.12937 -3.52865e-19)
(0.0168833 3.12502 5.19385e-19)
(0.0399784 3.14024 0)
(0.038748 3.15295 0)
(1.18012 2.58298 0)
(0.508738 0.827498 -2.15577e-19)
(1.00971 0.98052 -2.11297e-19)
(0.961293 1.03283 0)
(0.834507 0.920276 6.09044e-20)
(1.03701 0.857211 3.31623e-20)
(0.408406 0.494111 -5.36522e-19)
(0.733727 0.339575 -2.39896e-20)
(0.740558 0.290326 2.19098e-19)
(0.606662 0.438712 1.74783e-20)
(0.564014 0.431042 -7.18255e-19)
(0.701515 0.372029 0)
(0.677685 0.429731 3.61726e-19)
(0.690087 0.429881 0)
(0.651447 0.412828 0)
(0.668136 0.36044 0)
(0.732086 0.608772 1.26458e-19)
(1.16014 0.264924 4.05256e-20)
(1.15921 0.393788 0)
(1.18451 0.364743 0)
(0.787509 0.221955 3.25145e-19)
(0.785959 0.539096 -1.79833e-19)
(0.685881 0.506221 2.91807e-19)
(0.873209 0.407016 -2.76072e-19)
(1.01826 0.00849134 2.86606e-19)
(1.01485 0.0176138 -2.96071e-19)
(1.01382 0.0184059 0)
(1.01983 0.0124751 0)
(1.01033 0.000696155 -2.62709e-19)
(1.01046 0.0053771 2.62398e-19)
(1.027 0.00370312 0)
(1.02651 -0.000135601 0)
(1.01444 0.00724487 0)
(1.01802 0.0133894 0)
(1.02917 0.00224016 0)
(1.02339 0.00231788 0)
(-0.00951292 1.77316 0)
(-0.00646591 1.77512 0)
(-0.0545933 1.74977 6.25354e-20)
(0.00483095 1.58089 1.71058e-19)
(-0.0334851 1.69041 3.44914e-19)
(-0.0189656 1.62697 -5.5995e-19)
(-0.0890162 1.73686 0)
(-0.0718441 1.8506 -1.02016e-19)
(-0.0467969 1.84536 0)
(-0.0262049 2.23744 -1.38796e-19)
(0.0845601 2.08261 5.09382e-19)
(-0.107598 1.87189 9.17879e-20)
(-0.122712 1.64853 1.02845e-19)
(-0.114961 1.71374 -8.21794e-20)
(-0.179769 1.65565 2.13508e-19)
(-0.105932 1.94357 0)
(-0.117917 1.9819 -1.02638e-19)
(-0.0176411 1.8104 -4.54288e-20)
(-0.0131853 1.81741 0)
(-0.0160713 1.80453 1.9004e-19)
(-0.0190504 1.80741 0)
(-0.00398932 1.82828 -1.79279e-19)
(-0.00663128 1.82347 0)
(-0.0122017 1.79384 -3.9087e-20)
(-0.00291256 1.79965 0)
(-0.00629966 1.79753 0)
(-0.0129554 1.79307 4.37439e-20)
(0.00625672 1.80834 9.31418e-22)
(-0.000597879 1.81619 2.1119e-19)
(0.0105899 1.81085 1.37127e-21)
(-0.0128898 1.79126 3.33041e-20)
(-0.012535 1.79272 2.0177e-20)
(-0.0205592 1.79094 0)
(-0.0171205 1.7928 0)
(-0.00647015 1.80088 1.09553e-19)
(-0.00220678 1.79578 7.01236e-20)
(-0.00272469 1.79783 -9.86812e-20)
(-0.0126201 1.80576 0)
(-0.0101008 1.78677 -6.29746e-20)
(-0.00945795 1.79541 2.70939e-20)
(-0.0098237 1.79499 -8.37858e-21)
(-0.0114038 1.79115 -4.13872e-20)
(-0.00644701 1.799 -1.41721e-20)
(-0.00734993 1.80176 6.70053e-20)
(1.01843 0.00514976 -2.72008e-19)
(1.0135 0.00961172 2.83515e-19)
(1.01217 0.00472625 0)
(0.993974 0.0471817 3.94851e-19)
(0.986627 0.0333287 -4.73544e-19)
(0.962281 0.0295844 5.43568e-19)
(0.99497 0.0887131 -5.26949e-20)
(1.02585 0.00966598 0)
(1.03157 0.0099099 2.36362e-19)
(1.03199 0.00609049 -2.34506e-19)
(1.03321 0.0405566 -1.30568e-20)
(1.02939 0.0254931 1.15426e-19)
(1.01706 0.0432344 0)
(1.0094 0.038635 -4.29715e-20)
(1.00974 0.024089 0)
(1.01486 0.0173025 0)
(1.025 0.0058912 0)
(1.02085 0.0029558 0)
(1.01454 0.0240569 8.9142e-20)
(1.02049 0.0150853 -2.01425e-19)
(1.01653 0.0341618 -9.14403e-20)
(1.01511 0.0331422 -1.04928e-19)
(1.01324 0.041281 1.84239e-19)
(1.04879 0.0405324 0)
(1.03766 0.084499 0)
(-0.0104075 1.78656 -2.5102e-20)
(-0.00829392 1.77823 -2.07848e-21)
(-0.00847323 1.77997 0)
(-0.00374863 1.7899 2.50584e-20)
(-0.00380384 1.78553 3.6206e-21)
(-0.00208587 1.78855 -4.13725e-21)
(-0.00536283 1.80255 4.97715e-20)
(-0.00709587 1.79933 -3.05835e-21)
(-0.00657048 1.79828 1.44975e-20)
(-0.00495751 1.79973 -2.58922e-20)
(-0.00473776 1.80017 3.04868e-20)
(-0.0115768 1.78482 6.30166e-22)
(-0.0130372 1.77927 2.60577e-20)
(-0.0149352 1.37097 -4.11646e-19)
(-0.157222 1.68359 -4.16553e-19)
(0.614184 1.24788 -6.28033e-19)
(0.407456 1.28565 -3.15378e-19)
(0.509786 1.32764 0)
(0.431337 1.93722 2.16052e-19)
(0.604688 1.77124 3.09502e-19)
(0.290059 1.79425 8.11021e-20)
(0.263338 1.99523 -5.78977e-19)
(0.279327 2.11334 5.70785e-19)
(0.392626 1.84053 0)
(0.344345 1.78492 -4.80499e-19)
(0.100126 1.83457 9.1951e-19)
(0.19951 1.81293 -6.60558e-20)
(0.132036 1.8052 -1.22982e-18)
(0.904685 2.44684 -1.53164e-19)
(0.785266 2.21363 0)
(1.01229 -0.00778753 9.6155e-21)
(1.01286 -0.0157961 -7.88259e-21)
(1.01409 -0.0157577 -1.40551e-19)
(1.02739 -0.0154813 1.40697e-19)
(1.02609 -0.0102828 0)
(0.733737 1.11971 0)
(0.75602 1.09095 0)
(0.762011 1.06942 0)
(0.70311 1.12603 0)
(1.16168 2.59115 5.17875e-20)
(1.05161 2.31066 0)
(1.06464 2.27895 -2.54898e-21)
(0.76049 2.68482 0)
(1.0168 2.69277 2.07472e-19)
(1.04391 2.63119 -1.36184e-19)
(0.831448 0.157555 0)
(0.801992 0.162197 8.19019e-20)
(0.884246 0.124188 4.17036e-19)
(0.848218 0.108812 -1.66005e-19)
(0.851617 0.067967 -5.05597e-19)
(1.01011 0.20757 -2.53432e-19)
(0.927961 0.253615 -1.77423e-20)
(0.89899 0.248788 3.73419e-19)
(0.957995 0.174609 2.80954e-19)
(0.912152 0.159088 -5.23555e-19)
(0.891496 0.162147 6.75226e-20)
(0.931844 0.211912 -1.31711e-19)
(0.903457 0.178988 0)
(0.969475 0.157957 2.51713e-19)
(0.998311 0.165305 0)
(0.990945 0.179767 0)
(1.04407 0.100599 8.07552e-20)
(1.01409 0.156368 -1.24782e-20)
(1.00595 0.215889 -4.42841e-20)
(1.04947 0.191827 0)
(1.00559 0.0257091 2.10329e-19)
(1.00641 0.0374861 2.5247e-19)
(1.00968 0.0309481 -2.0788e-19)
(1.00685 0.0424745 -1.69448e-19)
(0.99813 0.0513024 -2.80199e-19)
(0.958992 0.132504 0)
(0.989578 0.0899585 0)
(0.962189 0.0409368 -1.9641e-19)
(0.92177 0.0519004 8.24451e-20)
(1.00011 0.0811726 2.40798e-19)
(1.00786 0.0992071 -2.48754e-19)
(1.01921 0.138982 2.2761e-19)
(1.00711 0.126128 0)
(1.0179 0.0801016 0)
(1.0077 0.0652378 -1.02472e-19)
(1.00883 0.0705311 -1.93219e-19)
(0.734907 1.22306 -3.65269e-20)
(0.669867 1.48111 4.47728e-20)
(1.10291 2.71794 -4.15852e-22)
(1.1856 3.0817 -6.59824e-20)
(1.22542 2.68991 4.31511e-19)
(1.25172 2.68028 -2.95125e-19)
(1.18209 2.30868 -7.68125e-21)
(1.17304 2.97064 1.35831e-19)
(1.20103 2.92286 -1.00119e-19)
(1.18132 3.2366 -2.55714e-19)
(1.34691 2.95098 3.53792e-19)
(1.3377 2.87335 0)
(0.491632 0.842516 -1.40543e-20)
(0.186321 1.309 3.48908e-19)
(0.519855 0.544012 3.53255e-19)
(0.356433 0.333142 3.98759e-19)
(0.563747 0.451228 3.99315e-19)
(0.540828 0.503761 -6.32388e-19)
(0.540254 0.521796 5.1807e-19)
(0.520102 0.473867 -2.10551e-19)
(0.493782 0.426865 4.86548e-19)
(0.790032 0.254757 -1.80583e-19)
(0.761473 0.285936 0)
(0.765503 0.254875 1.25561e-20)
(0.670817 0.512027 1.8597e-19)
(0.656258 0.480202 -6.8491e-19)
(0.595469 0.500213 2.01985e-20)
(0.618834 0.467126 0)
(0.61518 0.730916 1.46452e-19)
(0.783683 0.756798 4.89658e-20)
(0.722659 0.814121 -6.62796e-20)
(0.825098 0.791423 -1.53731e-20)
(0.883333 0.824334 1.55516e-20)
(0.891386 0.834318 -1.58996e-20)
(0.774908 0.62734 -2.1489e-19)
(0.857149 0.711188 1.42872e-20)
(0.931297 0.703318 0)
(0.914628 0.66327 -1.47398e-20)
(0.954915 0.289841 5.99448e-20)
(1.06511 0.261204 8.51551e-21)
(0.9977 0.234675 1.03806e-19)
(0.931815 0.329575 -1.37399e-19)
(0.980092 0.40809 0)
(1.04203 0.389515 0)
(0.849383 0.337925 2.29587e-21)
(0.851711 0.275054 0)
(0.851404 0.247128 1.95135e-19)
(0.875685 0.255717 -3.55822e-21)
(0.86602 0.41065 7.56225e-19)
(0.8293 0.473527 1.89368e-19)
(0.823488 0.436528 -2.4442e-19)
(0.756385 0.433126 2.6245e-19)
(0.745353 0.432951 1.77793e-19)
(0.728717 0.423517 -1.74457e-19)
(1.02317 0.0104143 2.28623e-19)
(1.03185 0.000696483 0)
(1.03301 -0.00363106 1.50538e-19)
(1.02161 0.00158058 -3.41075e-19)
(1.03402 0.00360867 1.61544e-19)
(1.03126 0.00489514 -3.49771e-19)
(1.02843 0.00166788 0)
(1.02417 0.004038 -7.25931e-20)
(1.02968 0.00484291 1.82649e-19)
(1.02072 0.0110286 -9.18621e-20)
(1.02234 0.0103311 6.69317e-20)
(-0.0036653 1.786 0)
(-0.0086016 1.79549 0)
(-0.00197109 1.78059 0)
(-0.000280989 1.78148 0)
(-0.0307895 1.78219 -5.09271e-21)
(-0.0304635 1.76522 -9.10581e-22)
(-0.0517545 1.83195 -3.22888e-20)
(-0.0637009 1.77161 -5.35611e-20)
(-0.00679 1.79905 -5.79822e-20)
(-0.0154558 1.79706 4.19052e-20)
(-0.0206997 1.78833 -1.11867e-20)
(-0.0144837 1.79961 6.49695e-21)
(-0.00957559 1.79672 5.52916e-22)
(-0.0068339 1.79728 -4.99665e-21)
(-0.0135377 1.8112 -2.11465e-19)
(-0.0040306 1.82532 0)
(-0.0139326 1.81657 1.19142e-19)
(-0.0248768 1.82224 7.82788e-20)
(-0.0123409 1.9402 -8.36878e-20)
(0.0924339 1.89495 0)
(0.081967 1.92595 -5.98916e-19)
(0.094615 2.01075 4.07874e-19)
(0.00588721 1.88697 -2.32157e-19)
(-0.00521731 1.84401 1.30609e-19)
(0.00690474 1.85415 0)
(-0.00631877 1.80203 -1.38249e-19)
(-0.00348832 1.80339 -1.83288e-19)
(-0.0032939 1.80303 0)
(-0.00273149 1.81029 -5.36614e-21)
(-0.0123359 1.81065 7.21711e-20)
(-0.0212752 1.7901 5.46423e-21)
(-0.0225187 1.7898 -9.69514e-20)
(-0.0220865 1.7846 2.18861e-20)
(-0.0195733 1.78384 3.86755e-20)
(-0.0154924 1.79464 0)
(-0.0186793 1.78416 0)
(-0.0121807 1.79559 2.93241e-20)
(-0.0114828 1.78433 -9.54224e-21)
(-0.0177538 1.78422 0)
(-0.0169011 1.79492 2.34294e-20)
(-0.0127527 1.79637 -4.41436e-20)
(1.02165 0.0151173 0)
(1.02381 0.0136085 -2.15923e-20)
(1.02006 0.0147778 -1.60687e-19)
(1.02068 0.0193969 0)
(1.02124 0.0214245 0)
(1.02357 0.00742839 -4.85536e-21)
(1.02392 0.00787165 2.68772e-19)
(1.02082 0.00806162 3.26759e-19)
(1.02024 0.00660714 0)
(1.01795 0.00712315 0)
(1.0192 0.0131036 1.6396e-19)
(1.01759 0.0112202 0)
(1.0187 0.0109909 0)
(-0.0120848 1.78716 0)
(-0.0129598 1.77785 2.36705e-21)
(-0.0133827 1.77957 1.41241e-20)
(-0.0115148 1.78398 0)
(-0.0127265 1.78023 1.89077e-20)
(-0.0106949 1.78358 -9.27127e-21)
(-0.00889948 1.78398 0)
(0.170755 2.42989 0)
(-0.233597 1.78919 8.79012e-19)
(-0.108091 2.19515 0)
(0.0641437 1.37183 -1.25929e-18)
(0.288532 1.07702 0)
(0.126764 1.28833 5.77468e-19)
(1.082 2.81803 4.31799e-21)
(0.942685 2.54901 1.89536e-19)
(0.834592 2.2582 -1.40968e-19)
(0.805194 2.31618 1.45634e-19)
(0.892714 2.66931 0)
(0.95948 2.6089 0)
(0.863635 2.41298 0)
(0.900459 2.27598 -4.51021e-19)
(0.381794 2.70073 1.31627e-20)
(0.714553 2.73531 1.38505e-20)
(0.738088 2.67703 -1.02954e-20)
(0.562884 2.03132 0)
(0.724674 2.18933 0)
(0.69706 1.98722 -2.87919e-19)
(0.558011 2.61446 0)
(0.651028 1.10619 0)
(0.458003 0.928103 -6.55136e-20)
(0.529233 0.949787 -5.16731e-21)
(0.545052 1.08372 0)
(0.470408 1.09931 1.01306e-19)
(0.770031 0.862387 1.731e-20)
(0.79764 0.981984 0)
(0.76489 0.921061 -7.07767e-20)
(0.630351 1.06068 0)
(0.632485 0.932861 0)
(1.15896 2.72684 -2.42944e-21)
(1.13022 2.78795 8.50793e-21)
(1.01574 2.26214 -5.71162e-20)
(1.04694 2.29095 3.30312e-20)
(1.13677 2.72646 0)
(1.14291 2.69255 -3.89801e-20)
(1.06199 2.46012 -1.37909e-19)
(0.920325 2.16942 -2.54518e-20)
(0.835632 1.54306 0)
(0.810489 1.14662 3.20553e-20)
(0.753249 1.10269 0)
(0.847896 0.194728 0)
(0.817924 0.174486 0)
(0.776226 0.185721 0)
(0.851337 0.206365 -3.06303e-19)
(0.804267 0.2162 1.88969e-19)
(0.923028 0.0502707 -1.63642e-19)
(0.926316 0.0929516 0)
(0.896174 0.0998909 7.84976e-20)
(0.883063 0.0607303 3.11131e-19)
(0.886588 0.0553637 -1.91188e-19)
(1.13224 3.36455 -9.57231e-19)
(1.17771 3.28463 0)
(1.13862 3.39663 -1.93424e-18)
(0.629383 3.56295 1.64844e-18)
(0.843326 3.14244 4.17391e-19)
(0.48573 0.854634 1.95937e-19)
(0.377513 0.890059 0)
(0.34182 0.552887 -7.71881e-20)
(0.400045 0.678538 3.48772e-19)
(0.512612 0.532947 -1.10046e-19)
(0.495015 0.554618 1.21292e-19)
(0.602001 0.526935 2.59645e-19)
(0.620463 0.549229 0)
(0.594896 0.611317 0)
(0.544439 0.548864 0)
(0.916932 0.576528 -4.87176e-20)
(0.832537 0.515574 -1.83072e-19)
(0.865009 0.559349 8.48547e-20)
(0.89135 0.4921 -1.353e-19)
(1.00819 0.464547 0)
(1.00079 0.543105 -6.17914e-21)
(0.787644 0.380938 -3.93312e-19)
(0.79794 0.362157 -4.53682e-19)
(0.770063 0.392072 3.07932e-19)
(0.775725 0.355596 -3.50614e-19)
(0.834194 0.292423 -2.43534e-19)
(0.808619 0.300255 3.07076e-19)
(1.03241 0.00574302 -1.64177e-19)
(1.0314 0.00744006 3.40665e-19)
(1.02488 0.0131705 2.16062e-19)
(1.02574 0.0142489 -2.54808e-19)
(1.02053 0.0159631 0)
(1.02461 0.0103216 -4.23444e-19)
(-0.01457 1.80659 2.67228e-20)
(-0.0191472 1.80513 0)
(-0.0212835 1.80307 2.24612e-19)
(-0.020113 1.81883 -2.09112e-19)
(-0.0409831 1.82241 5.99374e-20)
(-0.033762 1.81364 0)
(-0.0121188 1.78711 0)
(-0.0148289 1.7833 -1.07014e-20)
(-0.0140713 1.78016 9.17431e-21)
(-0.0131215 1.7802 2.18994e-21)
(-0.0116668 1.78538 -1.92411e-20)
(-0.0112002 1.78706 1.20491e-20)
(0.787117 1.63201 9.97512e-19)
(0.612992 1.75799 -1.05848e-18)
(0.230355 1.39909 9.12453e-19)
(0.283681 1.95294 -5.94031e-20)
(0.732428 1.06278 0)
(0.473194 1.05259 6.52384e-19)
(0.513731 1.07224 -6.39913e-19)
(0.384456 0.960345 -8.9356e-19)
(0.710777 1.06566 0)
(0.765398 1.07144 0)
(0.254382 2.66246 -1.99436e-20)
(0.388945 2.46805 7.98176e-19)
(0.502099 2.54622 -5.18847e-19)
(0.327063 2.38928 -1.81906e-19)
(0.109986 2.49031 2.58516e-19)
(0.22102 2.27994 -6.94737e-19)
(0.918418 2.43407 8.29901e-20)
(0.971443 2.3885 0)
(0.822074 2.15034 -2.05537e-19)
(1.07575 2.73904 0)
(1.09075 2.74926 0)
(0.589052 2.33631 2.23406e-19)
(1.00889 3.18575 4.6011e-19)
(0.879348 3.07181 -4.26156e-19)
(0.328097 0.984921 0)
(0.326093 0.833994 -1.28583e-19)
(0.439016 0.779305 -6.57815e-20)
(0.362818 2.11713 0)
(0.493357 2.8285 -2.91188e-19)
(0.413569 2.59892 0)
(0.647995 0.653839 -3.01641e-19)
(0.696516 0.672968 3.85189e-19)
(0.732149 0.62304 -3.75879e-19)
(0.609604 0.629394 -4.50429e-20)
(0.657925 0.587861 -1.85463e-19)
(0.962474 2.8174 -3.49637e-19)
(1.01068 2.86566 2.50916e-19)
(0.578109 2.1817 1.23217e-19)
(0.596483 1.80498 -1.23967e-19)
(0.648871 1.96 -4.55917e-21)
(0.953183 2.50702 -1.12143e-19)
(0.956724 2.48382 -5.77696e-20)
(0.595308 1.91218 -8.33272e-22)
(0.404957 1.43732 -1.00954e-20)
)
;

boundaryField
{
    wall-4
    {
        type            noSlip;
    }
    velocity-inlet-5
    {
        type            fixedValue;
        value           uniform (1 0 0);
    }
    velocity-inlet-6
    {
        type            fixedValue;
        value           uniform (0 3 0);
    }
    pressure-outlet-7
    {
        type            zeroGradient;
    }
    wall-8
    {
        type            noSlip;
    }
    frontAndBackPlanes
    {
        type            empty;
    }
}


// ************************************************************************* //
