/*--------------------------------*- C++ -*----------------------------------*\
  =========                 |
  \\      /  F ield         | OpenFOAM: The Open Source CFD Toolbox
   \\    /   O peration     | Website:  https://openfoam.org
    \\  /    A nd           | Version:  13
     \\/     M anipulation  |
\*---------------------------------------------------------------------------*/
FoamFile
{
    format      ascii;
    class       volScalarField;
    location    "70";
    object      p;
}
// * * * * * * * * * * * * * * * * * * * * * * * * * * * * * * * * * * * * * //

dimensions      [0 2 -2 0 0 0 0];

internalField   nonuniform List<scalar> 
918
(
0.557166
1.18109
0.000711423
0.556617
-0.00952561
1.1481
-0.511515
0.657824
0.537368
-0.107606
-0.0523174
0.539757
1.00867
0.774148
-1.12398
-0.0113694
0.651602
-0.381681
0.536484
-0.0604176
0.68725
0.543905
0.54693
0.537508
0.597768
0.748963
0.889513
0.0245445
0.0124214
0.00554161
-0.0144994
-0.0360615
-0.0308096
1.03176
1.08282
1.10551
0.505107
0.333641
-0.376899
-0.449895
-0.43709
-0.545119
0.656651
0.656093
-0.213234
0.660735
0.662032
0.524386
0.536737
0.537649
0.538666
0.537653
0.539032
0.403786
-0.108002
-0.139289
-0.0884709
-0.0821901
0.0519346
-0.0535279
-0.0561106
-0.0506327
-0.0498506
0.454202
0.533955
0.530407
0.543945
0.55332
1.12064
1.09258
1.11872
1.03228
1.04883
0.986683
0.959302
0.7953
0.816843
0.758395
0.746589
-1.55485
-2.505
-0.534884
-0.284685
-0.0153753
-0.00938563
-0.00337914
0.648793
0.650176
0.651035
0.652992
1.07939
-0.379247
-0.479837
0.536626
0.535437
0.543753
0.544454
0.540474
0.539564
-0.0515228
-0.0482092
-0.0512211
-0.0563851
-0.0546975
0.672975
0.674202
0.538035
0.535038
0.560995
0.581262
0.571331
0.277469
0.6085
0.624338
0.580996
0.743397
0.735788
0.745385
0.863104
0.826129
0.926782
0.950043
0.0179146
-0.00140748
-0.0159064
-0.0195357
-0.0183368
0.500934
0.493468
0.521004
0.508547
0.511057
0.250441
0.117159
0.418573
0.443368
-0.296102
-0.362944
-0.42958
-0.46029
-0.568801
0.612407
0.655617
0.654262
-0.223144
-0.151363
-0.284882
-0.0782756
-0.141335
0.51464
0.521662
0.516656
0.532221
0.526685
0.528649
0.541009
0.538079
0.539639
0.465907
0.589406
0.330021
0.294564
-0.242742
-0.154655
-0.24225
-0.0719192
-0.0696746
0.066105
0.0917892
0.0386558
0.0267926
-0.0653452
-0.059195
-0.0619241
-0.0480429
-0.0473664
0.446934
0.435698
0.466904
0.474475
0.520299
0.521807
0.526315
0.524128
0.910207
0.932504
0.940017
0.913878
-3.49319
-6.27251
0.0395834
0.175817
-0.00664883
-0.0109981
0.00443793
-0.0105679
-0.00336241
-0.00449505
-0.00882254
-0.0100114
-0.00457787
-0.00362446
0.643472
0.644442
1.00166
1.00863
0.977181
0.930091
0.524849
0.526919
0.532414
0.528298
-0.0470155
-0.0470833
-0.0467173
0.665151
0.670488
0.668003
0.238891
0.14897
0.328631
0.357832
0.636828
0.625425
0.635028
0.640865
0.676309
0.957411
0.975552
0.973895
0.982223
1.02633
1.0428
1.00801
0.480326
0.490338
0.485269
0.524043
0.521834
0.522722
0.519042
0.520009
0.518216
-0.0331822
-0.412783
0.490652
0.507458
0.492949
0.495255
0.692514
0.771101
0.652555
0.653947
0.65356
-0.00891506
-0.0674254
0.249696
0.215564
0.386358
0.42285
0.401782
0.881271
0.841847
0.891862
0.865313
0.826718
0.85255
-0.364327
-1.86244
-0.982332
0.524106
0.33916
0.425777
0.0086134
-0.00816327
-0.00358115
1.00133
1.07358
0.645179
0.820024
0.822649
0.71374
0.744331
0.799097
0.724706
0.759515
0.794472
0.776383
0.568343
0.503742
0.519739
0.840148
0.895842
0.118659
0.0567709
0.012976
0.110772
0.168325
0.142285
1.03356
0.949543
1.0197
0.534799
0.535522
-0.00471051
-0.0177877
0.539772
0.539827
-0.0168912
-0.0042136
0.409313
-0.831581
0.0975066
0.528358
0.518241
0.535385
-0.0931483
0.355371
-0.0521122
0.0476353
-0.0088977
0.529941
0.465348
0.424377
-0.000863354
-0.0203376
-0.0513204
-0.213176
0.532469
0.530773
0.534853
0.535793
0.536475
-0.0191441
-0.0144959
-0.0104034
-0.0481217
-0.0411261
-0.0535628
0.499268
0.518711
-0.170867
0.534999
0.537135
0.536953
0.530219
0.535848
0.534101
-0.0117109
-0.0174745
-0.018736
0.219003
0.351391
0.648226
0.734392
0.620486
0.396774
0.162306
0.551954
0.615062
0.521043
0.674233
0.65115
0.657586
0.16302
0.0126629
0.171865
0.113625
0.52622
0.524942
0.516493
0.513451
0.530252
0.528367
0.532925
0.529949
0.532899
0.534279
-0.049415
-0.0760655
-0.0851772
-0.152183
0.31007
0.571098
0.254572
0.283972
0.141711
-0.0466265
-0.04826
-0.0500289
-0.0588004
0.000724934
-0.024598
0.0423361
0.0424869
0.0143244
-0.0112724
-0.00897095
-0.0199442
-0.0143433
0.523201
0.523262
0.527659
0.536375
0.475023
0.47881
0.443605
0.464374
0.449616
0.388241
0.423614
0.398805
-0.00876664
0.000895323
-0.00578511
-0.0182122
-0.0141762
-0.0342322
-0.0308414
-0.0262813
-0.0222118
-0.0290708
-0.0458043
-0.0481252
-0.171267
-0.287206
0.988021
0.90896
0.136802
0.521613
0.528073
0.524832
0.529764
0.532893
0.533689
0.531395
0.527942
0.518937
0.520358
0.51723
0.518312
-0.102153
-0.24372
-0.0720726
-0.146818
0.145485
0.628122
0.363288
0.298552
0.293917
0.522811
0.91659
0.699367
0.668158
0.666911
-0.343664
0.0449102
-0.28031
0.334718
0.161903
0.647979
0.697131
0.7192
0.666867
0.619931
-0.100499
0.555899
-0.0744784
-0.0221008
0.179579
0.0551869
0.659731
0.639063
0.646446
0.651108
0.664381
0.642277
0.624994
0.624946
0.645853
0.649745
0.482638
0.249668
0.200231
0.161774
0.64254
0.51631
0.566118
0.489619
0.521526
0.524049
0.522701
0.504108
0.511707
0.507219
0.513799
0.517443
0.525972
0.526452
0.521708
0.523837
-0.0565102
-0.0630174
-0.0252996
-0.135459
-0.128287
-0.190414
-0.0592804
0.0740236
0.0355669
0.236914
0.341018
0.0517006
-0.0569937
-0.0294872
0.0121972
0.179397
0.207854
0.0738723
0.161796
0.153061
0.134007
0.237038
0.240343
-0.0297088
-0.0313004
-0.0361818
-0.0382375
0.0185972
0.0901044
0.0992805
-0.00757097
-0.0132128
-0.0448752
-0.0448144
-0.0225051
-0.0277917
-0.0226951
0.00442421
-0.0533153
-0.0208745
-0.00695104
-0.00496524
-0.00601353
-0.0113948
0.518186
0.519782
0.520154
0.527567
0.540154
0.554752
0.520999
0.497269
0.488042
0.491059
0.463944
0.474238
0.470061
0.483641
0.504796
0.51352
0.511845
0.514687
0.49688
0.498661
0.485198
0.488848
0.463938
0.444532
0.43258
-0.0432822
-0.00534081
-0.0129472
-0.0390117
-0.0101791
-0.0218247
-0.0110167
0.0074268
-0.00889084
-0.00987124
-0.0196159
-0.0266648
-0.0264204
-0.0732573
0.0134434
-0.184706
-0.220143
-0.293232
0.890256
1.01447
0.809585
0.582563
0.602869
0.846203
0.930661
0.542745
0.735105
0.758245
0.587166
0.854404
0.526463
0.526058
0.523659
0.523138
0.524358
-0.00721833
0.0991603
0.0970972
0.160666
0.277198
0.388817
0.319749
0.194462
0.324479
0.326953
0.621103
0.63331
0.588359
0.612411
0.612764
0.424905
0.500565
0.552195
0.513387
0.565199
0.586788
0.540857
0.573782
0.523265
0.478827
0.475006
0.424532
0.444204
0.419782
0.402904
0.516024
0.493246
0.504028
0.494447
0.515248
0.54327
0.539959
0.56178
0.576935
0.497847
0.45273
0.462117
0.492299
0.453772
0.469363
0.485397
0.23295
0.13504
0.217938
-0.0669913
0.0036028
-0.00888775
-0.0576072
-0.00619038
0.277991
-0.412779
-0.389517
-1.01639
0.504195
0.954043
0.590848
0.566705
0.665383
0.650914
0.657161
0.674184
0.67236
0.631163
0.640285
0.645099
0.595904
0.616625
0.636172
0.632173
0.524457
0.381785
0.381167
0.328858
0.198961
0.238899
0.434844
0.359141
0.284239
0.284349
0.456288
0.342786
0.412841
0.446227
0.377477
0.332159
0.534838
0.600861
0.594501
0.567786
0.478528
0.490598
0.515124
0.548558
0.572303
0.605045
0.513217
0.519163
0.520394
0.517862
0.515132
0.518235
0.518527
0.521099
0.52168
0.524702
0.523771
-0.052854
-0.0384002
-0.0511943
-0.0633543
-0.0184918
-0.0206803
0.0228703
0.0112472
-0.0156591
-0.011583
-0.033258
-0.0372819
-0.0338719
-0.025957
0.102454
0.115237
0.100549
0.0607187
0.250375
0.380324
0.454727
0.329872
0.223694
0.248237
0.266629
-0.0123428
0.0132221
0.000476285
0.0402273
0.0320676
-0.0391672
-0.0429536
-0.0389982
-0.0311767
-0.0229018
-0.0382913
-0.0437656
-0.0348377
-0.0392929
-0.041957
-0.0455778
0.499542
0.493001
0.494575
0.488494
0.487225
0.501545
0.505876
0.507818
0.513321
0.515756
0.505659
0.511094
0.515096
-0.0123553
-0.0355336
-0.0389573
-0.0299914
-0.0320324
-0.0293968
-0.0309533
0.123319
0.0542051
0.0579761
0.0108261
-0.121413
-0.0634479
0.491826
0.490633
0.480002
0.721027
0.570263
0.49113
0.588237
0.693883
0.276027
0.47274
0.307871
0.888227
0.784879
0.931178
0.542114
0.245859
0.410125
0.45255
0.266219
0.342061
0.324276
0.213359
0.244064
0.28244
0.38127
0.265989
0.242832
-0.000695429
0.190117
0.301992
0.283844
0.408355
0.468961
0.266951
0.186673
0.141656
0.605707
0.625298
0.638284
0.611008
0.632561
0.581152
0.57343
0.588564
0.596555
0.590878
-0.744724
-0.451107
-1.39794
-0.720822
-0.265292
0.534779
0.506965
0.769561
0.645582
0.680349
0.665026
0.624149
0.593984
0.61868
0.641064
0.339876
0.450419
0.425637
0.431401
0.334161
0.264371
0.562701
0.559742
0.592986
0.616264
0.587931
0.618185
0.511032
0.510758
0.510217
0.50645
0.504711
0.507074
0.0587722
0.0263322
0.0674141
0.0501105
0.0276186
0.0151803
-0.011015
-0.0209752
-0.0281233
-0.027687
-0.0133557
-0.00926226
0.171907
0.109221
0.029729
0.0585573
-0.00217356
-0.0705323
-0.0897082
0.0157411
0.111837
0.10203
0.405173
0.654681
0.474727
0.642149
0.484715
0.540497
0.468464
0.45979
0.48471
0.37993
0.46031
0.250802
-0.257449
-0.166606
0.794927
0.805601
0.581337
0.406584
0.174269
0.351488
0.540925
0.470714
0.506093
0.575168
0.562199
0.030111
0.0875451
0.375059
0.601832
0.241181
0.232251
0.225614
0.410196
0.328238
)
;

boundaryField
{
    wall-4
    {
        type            zeroGradient;
    }
    velocity-inlet-5
    {
        type            zeroGradient;
    }
    velocity-inlet-6
    {
        type            zeroGradient;
    }
    pressure-outlet-7
    {
        type            fixedValue;
        value           uniform 0;
    }
    wall-8
    {
        type            zeroGradient;
    }
    frontAndBackPlanes
    {
        type            empty;
    }
}


// ************************************************************************* //
