/*--------------------------------*- C++ -*----------------------------------*\
  =========                 |
  \\      /  F ield         | OpenFOAM: The Open Source CFD Toolbox
   \\    /   O peration     | Website:  https://openfoam.org
    \\  /    A nd           | Version:  13
     \\/     M anipulation  |
\*---------------------------------------------------------------------------*/
FoamFile
{
    format      ascii;
    class       surfaceScalarField;
    location    "70";
    object      phi;
}
// * * * * * * * * * * * * * * * * * * * * * * * * * * * * * * * * * * * * * //

dimensions      [0 3 -1 0 0 0 0];

internalField   nonuniform List<scalar> 
1300
(
3.75095
5.62643
-3.32368
3.75095
-7.73183
5.62643
-4.39069
4.39069
-0.364692
0.364692
1.87639
1.87457
-2.68679
2.68679
-2.09082
2.09082
-2.52363
2.52363
-5.24643
5.24643
-5.06933
5.06933
4.65405
-4.65405
-6.31308
6.31308
-0.94005
0.94005
-3.68412
3.68412
3.16961
-3.16961
-2.0658
2.0658
0.0362657
-0.0362657
-0.553473
4.30443
3.19748
3.19748
-2.01469
2.01469
-4.8684
4.8684
6.21797
-6.21797
5.30432
-5.30432
-1.98064
-2.45209
1.78693
-11.5054
-5.94491
-5.94491
-8.44037
8.44037
-2.81394
2.81249
2.94627
-2.94627
-1.773
1.773
-4.3521
-0.0385857
-4.3521
4.36121
0.0294788
4.36121
-0.454144
0.0894516
-0.454144
3.99491
-3.99491
0.276486
0.0882068
0.276486
3.06536
-3.06536
-1.87712
3.7535
1.87384
-1.8719
6.17632
-1.87906
3.75362
-6.01473
6.01473
-2.93283
0.246038
-2.93283
2.47321
0.213577
2.47321
-6.85088
6.85088
-2.12114
0.030323
-2.12114
2.06349
0.0273261
2.06349
2.8813
-2.8813
-2.63115
0.107524
-2.63115
2.39258
0.131043
2.39258
0.353511
5.27292
-5.97994
8.79243
-5.27292
0.0264914
5.20829
0.0381349
5.20829
-5.10608
0.0367515
-5.10608
5.01276
0.0565652
5.01276
4.73947
-0.0854118
4.73947
-4.77259
0.118533
-4.77259
-3.386
-4.05272
-6.46478
0.151708
-6.46478
-1.03394
0.0938894
-1.03394
0.8235
0.11655
0.8235
-3.68538
3.68538
-4.10424
0.420117
-4.10424
3.12397
0.0456374
3.12397
1.86849
1.88246
5.61944
-5.61944
2.44984
-2.03603
-0.0297657
-2.03603
-2.13069
-3.17362
2.13069
-0.0648956
-0.190035
0.226301
-0.190035
3.15944
0.038043
3.15944
2.23545
0.157132
-2.23545
0.220758
3.27609
-3.27609
1.33945
0.675249
1.33945
-5.56389
5.56389
4.95642
0.0563445
-4.95642
0.088017
6.15676
0.0612098
6.15676
-6.19956
-0.0184116
-6.19956
2.53092
-4.98301
-2.62061
6.12965
0.183431
-6.12965
0.18474
2.91819
0.0280761
2.91819
-2.91977
2.91977
-2.98474
0.0384661
-2.98474
-2.17166
0.398658
-2.17166
1.47453
0.298471
1.47453
-4.25315
-0.0989529
-4.25315
-4.2513
0.147066
4.2513
0.109906
1.12938
-1.12938
-0.586031
0.131887
-0.586031
-4.11836
-0.134789
4.11836
-0.123449
-3.88483
-0.110079
-3.88483
-3.02455
0.0398089
3.02455
0.0408113
3.11289
0.0465509
-3.11289
0.0475292
-1.87082
3.75328
-1.88014
3.75398
-5.6347
-0.38003
-5.6347
6.32579
-0.311061
6.32579
3.32567
0.358452
-3.32567
0.39284
2.30488
0.168332
2.30488
-6.81259
-0.038287
-6.81259
6.83622
0.0146579
6.83622
2.18899
0.115889
-2.18899
0.0678512
2.04477
0.018719
2.04477
2.90122
-0.0199272
2.90122
-2.87546
-0.00583666
-2.87546
2.79351
-2.79351
2.71852
0.0749959
-2.71852
0.0873662
-11.133
11.1146
-0.0351513
-11.0979
5.17314
5.17314
4.16661
0.572858
4.16661
-4.99117
0.218582
-4.99117
2.68054
-5.30114
3.06593
-6.45193
4.66553
-16.171
4.30436
-8.35707
6.70397
-6.70397
6.59358
0.110395
-6.59358
0.128791
-1.15314
0.119199
-1.15314
-3.08326
-0.602113
-3.08326
4.32753
-0.642157
4.32753
-3.02812
3.02812
-3.07742
0.049308
3.07742
0.0465452
2.02994
0.0148378
-2.02994
-0.00609672
0.223939
0.052547
-0.223939
0.0339033
3.48894
-0.212848
3.48894
-3.078
-0.198094
-3.078
-1.25022
0.0970808
1.25022
0.089226
-5.81329
0.249407
-5.81329
-11.1908
0.0929669
-11.1527
-6.10659
-6.10659
2.33377
11.1262
-2.89347
0.0180153
2.89347
0.0247208
2.97518
0.0529395
-2.97518
0.0554078
-2.86003
0.0665207
2.86003
0.0597355
-2.54639
0.374734
-2.54639
-1.07278
1.07278
-1.23842
0.165643
1.23842
0.236106
1.40131
-0.271933
1.40131
0.709866
0.113634
-0.709866
0.123835
-3.78562
-0.0992168
-3.78562
6.561
-0.235207
6.561
-2.96319
-0.114809
2.96319
-0.0619656
-0.0333372
11.1479
-5.1398
0.033724
5.1398
-11.2092
11.2429
-3.21699
0.6706
3.21699
0.949615
5.28472
0.279164
-5.28472
0.293555
6.78709
0.0491331
-6.78709
0.0831178
-2.59073
-0.492536
-2.59073
-5.05289
-0.581812
5.05289
-0.725355
-11.4741
-0.205581
11.6797
-11.4175
6.01888
0.137887
-6.01888
11.3808
-1.03039
-0.0989863
1.03039
0.0423861
1.72887
-0.327558
1.72887
3.68461
-0.195674
-3.68461
-0.101004
-6.71544
-0.0971471
6.71544
-0.154448
-2.1459
-0.444824
2.1459
-0.417032
-4.26712
4.30516
1.90921
-2.38566
-2.59735
-5.55929
1.85185
1.90143
4.30169
-10.1491
-6.02185
-9.96437
7.26207
-6.96852
-9.2427
9.15728
7.88533
-7.99541
-5.78484
5.83138
6.48289
-6.44208
1.87881
1.87469
8.02257
-7.77653
-15.5955
15.2155
7.53367
-7.50335
15.7451
-15.7833
-17.8271
17.8762
-5.70449
5.81201
-6.74003
6.73419
-6.97521
6.91325
-2.83846
-3.61347
13.1048
-12.9531
8.57069
-8.60046
-8.61545
9.03556
3.3826
0.922566
3.42915
-1.88215
3.76096
-1.87147
3.78068
2.7151
-5.55357
2.58604
-5.18339
4.35046
4.22023
-4.28556
-1.27372
-5.92473
5.95281
-5.81323
5.87297
9.13055
-9.16913
-1.88517
3.75986
-1.86881
3.77024
-3.42502
-2.35982
3.37938
0.922307
8.06574
5.03907
-8.24917
-1.7152
-8.03833
7.84265
-8.22984
8.03174
-0.434343
5.81842
-5.38408
4.43406
-1.56314
7.38156
5.69893
5.91751
5.86589
-5.58672
1.10263
-6.48671
-6.39869
-2.27502
2.4069
2.18494
-2.09673
6.1366
1.74873
6.01315
-5.75899
-2.23641
-5.85821
3.82064
2.01074
3.86995
4.07842
2.40447
4.11823
3.03045
-3.03595
0.00550154
-3.05663
6.08708
0.723905
-5.41645
-4.49414
4.97623
3.04634
5.18981
-5.55527
-2.22126
-5.16243
-9.53334
-6.0622
-10.1151
10.0762
5.13934
9.7651
-11.9457
11.7913
4.79932
2.73435
4.82665
-4.93849
-2.56486
-4.87063
11.6372
-2.63905
-8.99811
-10.3059
-7.52121
10.2912
5.45382
10.9493
6.92696
11.0324
4.4211
7.21606
-9.87491
2.35371
-3.8677
-1.83678
-3.78034
3.67007
2.14194
3.80111
-4.21745
-2.52258
-4.19944
-4.29565
-2.67956
4.31558
2.41861
-4.41694
-3.8129
4.53175
2.3815
4.03582
-10.0577
4.32125
-7.93472
-9.18732
-3.76578
-9.05853
3.5148
2.61031
-6.12511
-2.03877
8.49588
-4.27565
7.22215
-5.18016
-3.42029
-5.18626
-6.87968
-1.73576
-6.73262
-8.87555
8.38302
-9.17096
8.5288
12.5133
-5.64285
-6.87044
-3.96844
-2.47363
3.92091
-0.491768
-3.71049
3.71599
0.05047
3.83115
4.75372
4.26195
-3.88408
-1.92915
-3.82867
3.82392
2.04905
3.89044
6.83536
2.29519
6.86484
-6.60617
-2.56297
-6.70512
9.03807
-8.63941
2.83491
-2.73783
5.39638
2.63536
-5.18353
-2.85479
6.21178
-3.21839
-2.99339
-12.1976
10.5279
1.66969
-4.81601
-0.381954
-0.41822
-5.48859
-3.7541
5.37006
0.54745
11.0753
7.32124
-5.51221
5.76161
6.16745
6.2238
-0.17489
5.8062
-5.1356
5.25598
-2.59463
-2.66135
5.46807
-5.60286
-1.23705
-5.51651
4.27946
0.410291
1.4916
-1.2653
-1.79333
-0.481689
-1.66949
1.28805
0.896887
1.3406
0.947686
1.45922
-2.96067
0.548065
2.41261
-2.01298
-1.54867
-3.81652
-1.14585
4.96237
5.7361
2.10655
-5.6351
-0.223114
2.53332
-2.41677
-0.773598
-3.04292
2.25221
-3.02581
-3.67283
-2.07367
5.7465
-3.36967
-0.459004
3.31673
0.553221
-3.82718
-2.09755
3.78871
0.329518
-3.12828
6.19105
-3.06277
-5.05743
2.52759
3.55948
4.53834
-4.78951
2.44763
2.34187
-1.23002
4.24677
0.943035
4.4151
-6.934
4.71273
5.803
3.23256
-6.16145
0.999026
-5.93497
8.5495
-7.37222
-1.17728
4.16967
4.37983
7.06173
5.45156
-5.67282
12.7346
-1.20234
-6.16988
7.13731
-3.90475
4.84647
-8.75122
-10.298
4.12814
-9.12981
10.9021
-1.77231
-3.61981
-8.32594
12.7496
-1.20396
-11.5457
8.56114
-4.27752
-4.37825
8.65577
-6.91657
6.94311
-1.99351
-4.9496
-10.0932
-5.69017
10.1903
1.60098
-9.9187
12.2724
-2.70264
4.11437
0.712279
4.13309
3.30079
-5.48596
2.18518
3.61578
-5.6093
2.07931
-7.56527
-6.72416
12.0582
-5.33406
-10.4899
-9.50661
-0.983324
2.5356
9.7368
-9.46256
7.42235
2.04021
3.30005
0.59039
-3.37505
-0.405287
0.238826
4.51981
-4.75864
4.03994
4.19707
3.27232
1.24749
3.84542
2.10739
-3.87014
-0.329294
-4.16384
1.48428
-1.74522
-3.69416
5.17843
-4.06767
0.373509
-2.74594
-3.49767
6.24361
-4.58272
3.03556
3.1555
5.0846
-4.9132
1.41553
-2.39271
-2.52049
2.65214
-4.39736
1.99252
3.18592
4.37402
0.561122
5.87169
6.18652
-8.48201
0.547284
11.2256
-9.51039
2.46171
8.57069
-9.88406
0.377443
-8.68109
0.996537
-5.27218
-5.12857
5.19009
-6.92585
-3.56113
6.21128
0.653563
-6.32118
-0.411432
-6.0327
-2.84285
-6.47752
-3.04185
-6.1291
-8.71467
-1.6518
-7.06287
6.73122
-6.67786
-3.43729
7.40321
1.12559
-7.40846
7.30947
-7.48671
7.15915
0.0953956
3.6206
4.35734
1.88371
-2.39057
4.27428
-5.11945
7.41464
-8.71403
3.59458
4.19687
-6.75984
-4.51715
5.02148
4.01659
5.31995
8.88184
-10.3486
1.46675
-10.6515
11.9845
-1.33297
-16.4108
5.75923
-7.52891
2.43786
0.397052
2.55706
0.544139
2.49841
-3.04255
-2.19369
-2.10447
-2.43767
-3.46607
5.90374
1.094
-3.52861
2.43462
-3.56717
4.66117
-0.213457
-3.31516
5.27342
-2.77501
5.67047
-3.78063
1.88984
3.43676
5.75283
-2.31606
4.39516
-1.7598
1.9257
-4.24176
-1.54037
-2.9608
5.10274
-3.28281
3.65632
-0.344098
4.00042
-4.0481
0.829711
-0.775779
3.42129
3.64205
4.31582
-3.06833
2.91933
-4.67912
-1.32243
-4.118
-0.932088
-0.258781
-3.70295
3.96173
5.97979
-6.23857
-5.23308
9.52549
-4.29241
7.69156
-5.38047
-2.31109
-4.25176
-4.38765
3.87703
1.92917
9.62074
0.209194
-5.58967
-4.92641
-3.97679
3.10571
2.15027
-1.754
3.42369
2.17222
-0.68062
0.428237
0.912364
1.78349
-1.35525
0.31903
1.46446
-0.946267
1.72484
0.808482
-1.83847
0.168977
-1.30972
3.56193
1.10289
-1.99978
0.644523
0.977209
-3.57184
5.05055
-2.68128
-2.36927
6.02776
1.13843
-3.81971
4.37808
-3.96779
2.38697
-3.53282
-1.43274
-5.40053
-3.65181
-2.52278
4.95739
-3.38096
5.48751
1.28457
-5.2644
6.54896
-3.72706
1.65338
-3.05814
3.86662
-0.934114
-2.12402
2.90329
2.84321
-3.07179
0.0288722
-0.1685
2.41043
-2.57893
-0.615381
-2.62837
-4.57348
4.903
-2.10527
4.5529
2.16901
-1.917
6.4699
1.80884
-3.72584
-3.24859
-3.70759
-1.38397
3.15437
-0.586017
-4.28462
-5.53561
4.16873
0.246374
-7.06193
7.87619
-0.814256
-4.01559
-0.697141
4.86681
-6.08179
0.472493
-4.00248
3.87371
4.81675
5.06312
-11.3273
-0.218342
-6.18798
1.12354
-7.31152
5.50337
-3.53887
7.66702
-10.3213
6.88398
-9.19568
6.48974
-0.821778
6.24317
-4.058
2.75493
-8.44511
-6.84412
5.52755
-2.7932
6.23983
-3.15992
9.39975
-5.86256
5.314
4.08575
-1.02635
-4.15991
-5.30202
4.27567
0.011982
4.14507
4.98038
-2.87299
4.65109
2.26885
-4.66156
-2.12851
-6.49507
1.83351
-3.33957
-1.92101
3.75452
3.16359
3.75398
1.23403
-3.34869
7.18987
-8.1732
-1.85582
-3.27276
5.28338
-1.00771
3.4091
-6.68185
-1.86309
4.7944
-0.782985
-4.01142
0.848448
-4.40958
1.675
-6.08458
5.25085
-5.66228
2.22181
-9.75072
-5.18665
-5.14426
-2.25858
-5.22813
-7.56864
5.31006
-1.80941
5.50006
-8.50362
7.72064
-3.48088
8.79093
-5.42739
-1.05014
5.84442
1.31473
10.1057
0.218892
-4.73605
-1.91705
3.85037
-1.93332
1.18867
-3.48405
0.366315
2.49044
3.53732
-6.7699
0.010064
-4.72598
-3.91658
7.93317
5.60892
11.5887
1.24012
9.11408
-1.18092
10.3542
4.13904
4.37514
-2.98948
4.45623
0.972243
4.56682
-0.925444
2.81529
1.63161
1.7255
0.691263
2.30381
1.33824
3.13352
0.0909719
-2.01349
4.62076
-8.59755
-0.968907
-8.02469
1.13259
5.70774
-4.57515
2.94998
-0.799714
1.01666
-0.101437
-1.24877
1.3502
-2.76279
-1.92939
-0.464929
-1.69304
2.33756
1.86889
-1.87263
-0.89016
0.358427
-4.01023
3.17439
-3.14552
-0.302315
6.24665
-2.82206
0.243134
-1.16868
-2.38523
-2.86692
2.69794
6.17601
0.293885
3.11324
5.19688
3.09933
0.226334
3.88212
-5.65443
-3.68315
-5.87277
-0.3694
4.49741
1.75776
7.97904
5.84351
4.83581
-1.84605
-10.0192
6.51664
-2.06041
5.18367
-1.17225
-4.91233
5.04608
2.36856
-5.69964
0.0373573
-4.87497
-6.93538
-0.513118
8.23376
-9.59255
8.54241
5.69956
1.36332
-4.4046
-0.739666
4.23895
0.136189
10.4904
-1.12845
-6.72026
7.84872
-4.57929
3.61038
0.747927
2.67576
2.09813
1.29842
-5.42185
-9.997
-2.05493
-1.5169
-4.4242
0.538175
-2.40706
6.22174
-2.61135
3.91065
5.23736
6.25402
-2.13108
-4.10749
6.42349
-2.51285
3.74117
)
;

boundaryField
{
    wall-4
    {
        type            calculated;
        value           uniform 0;
    }
    velocity-inlet-5
    {
        type            calculated;
        value           uniform -3.75095;
    }
    velocity-inlet-6
    {
        type            calculated;
        value           uniform -5.62643;
    }
    pressure-outlet-7
    {
        type            calculated;
        value           nonuniform List<scalar> 8(3.32368 7.73183 4.43273 9.71851 7.43872 5.15153 5.74647 8.96988);
    }
    wall-8
    {
        type            calculated;
        value           uniform 0;
    }
    frontAndBackPlanes
    {
        type            empty;
    }
}


// ************************************************************************* //
