/*--------------------------------*- C++ -*----------------------------------*\
  =========                 |
  \\      /  F ield         | OpenFOAM: The Open Source CFD Toolbox
   \\    /   O peration     | Website:  https://openfoam.org
    \\  /    A nd           | Version:  13
     \\/     M anipulation  |
\*---------------------------------------------------------------------------*/
FoamFile
{
    format      ascii;
    class       volVectorField;
    location    "70";
    object      U;
}
// * * * * * * * * * * * * * * * * * * * * * * * * * * * * * * * * * * * * * //

dimensions      [0 1 -1 0 0 0 0];

internalField   nonuniform List<vector> 
918
(
(0.98516 -0.00050751 0)
(0.00501526 2.96625 0)
(0.00570394 0.886171 0)
(0.979704 0.00214552 0)
(-0.0146971 2.06094 3.30139e-20)
(-0.00704986 2.9488 -2.45736e-18)
(0.820068 1.16401 4.49944e-19)
(0.106266 0.0672707 -1.46625e-20)
(0.999909 -0.000276391 0)
(0.0668798 0.7336 0)
(0.00953236 0.498461 0)
(0.732661 -0.000617096 0)
(0.011132 2.93036 0)
(0.00256941 2.79532 0)
(-0.017888 3.1485 7.80595e-19)
(-0.0186198 1.91917 9.75874e-21)
(0.283512 0.052496 1.01796e-18)
(0.188747 1.14317 3.16644e-19)
(0.962721 0.00501614 0)
(0.00755655 0.471545 0)
(-0.0163006 0.0757653 -6.89597e-19)
(1.00197 -0.00497502 0)
(1.00023 -0.00978432 0)
(0.975739 -0.00643883 0)
(0.598718 0.0280375 0)
(0.0145371 2.64161 0)
(-0.0148832 2.91001 9.03155e-19)
(0.0102565 0.933803 0)
(-0.0172433 1.18142 0)
(0.010879 0.916487 0)
(-0.0174309 2.59136 0)
(-0.00352784 2.11201 -2.63662e-20)
(-0.0103383 1.89749 0)
(-0.0205958 2.98761 -8.82953e-23)
(-0.0166825 3.00529 1.90966e-18)
(0.00209878 3.00017 0)
(0.871416 -0.00965802 0)
(0.402573 0.932893 1.80504e-19)
(0.805567 1.17812 -5.13943e-19)
(0.956954 1.02396 5.58595e-19)
(0.673905 1.26993 -1.04254e-19)
(0.674731 1.24396 5.99947e-19)
(0.142619 0.121715 1.43041e-20)
(0.134739 0.0538972 0)
(1.1615 0.563665 0)
(0.116644 0.0973325 6.49322e-20)
(0.0784955 0.0532557 -6.73787e-20)
(0.919915 -0.00745858 0)
(1.00027 0.000161287 0)
(0.999909 0.000338542 0)
(1.00363 -0.007759 0)
(1.00096 -0.000918985 0)
(1.00017 3.72979e-05 0)
(0.0731412 1.82605 -7.71848e-19)
(0.0327176 0.946988 0)
(0.0991961 0.813827 0)
(0.0141855 0.895428 0)
(0.040614 0.650668 0)
(0.00709098 2.01515 0)
(-0.00391577 0.790022 0)
(0.010947 0.509822 0)
(-0.00541996 0.78401 0)
(0.00987594 0.487706 0)
(0.841892 -0.0156754 0)
(0.841581 0.0285149 0)
(0.760798 -0.003186 0)
(0.800971 0.0302999 0)
(0.701816 0.0118027 0)
(0.0146819 3.00041 9.10725e-19)
(0.0114845 3.0081 0)
(0.00610041 3.00274 0)
(0.013546 2.99738 1.03291e-23)
(0.00795451 2.95847 -1.35356e-18)
(0.0145051 2.982 0)
(0.0108989 2.90354 0)
(0.0241492 2.93073 2.06859e-24)
(0.00473522 2.82527 0)
(0.0305497 2.91669 0)
(-0.00470995 2.7456 0)
(0.304968 3.54118 0)
(-0.131576 3.62179 0)
(0.13757 3.23854 -7.26414e-19)
(-0.0137367 2.97707 0)
(-0.0226619 1.9838 0)
(-0.00787731 2.1685 -9.62497e-21)
(-0.0126186 1.92692 3.63119e-21)
(0.342769 0.141626 -3.53564e-19)
(0.314696 0.0303585 -3.43678e-19)
(0.297151 0.146784 -1.05818e-18)
(0.245658 0.0599987 -6.875e-19)
(0.229341 0.983677 0)
(0.272192 1.29354 -3.68148e-19)
(0.365797 1.22761 6.14026e-19)
(0.987432 0.00857418 0)
(0.941852 0.00582491 0)
(1.0003 0.000581118 0)
(1.00286 0.00930964 0)
(1.00301 0.00847218 -2.74499e-18)
(0.991907 0.00969542 2.07291e-18)
(-0.0100869 0.781434 0)
(0.0094182 0.479804 0)
(-0.0466154 1.00679 0)
(-0.026291 0.825264 0)
(0.00517212 0.473004 0)
(-0.0419621 0.103065 2.13683e-19)
(0.058856 0.0641061 0)
(0.993554 -0.00836998 0)
(0.954469 -0.00653257 0)
(0.74418 0.0287205 0)
(0.680395 0.0244581 0)
(0.661177 0.021554 0)
(0.971633 -0.0072621 0)
(0.591742 0.0730774 0)
(0.452715 -0.00826739 1.54117e-18)
(-0.0372162 2.86159 6.65307e-19)
(0.0409172 2.91008 0)
(0.0537008 2.8862 0)
(-0.00453146 2.70088 0)
(-0.0131027 2.9852 8.54596e-19)
(-0.0178318 2.89503 0)
(-0.015413 2.98804 -2.65106e-18)
(-0.0132595 2.92518 9.07902e-19)
(-0.0269508 1.34486 0)
(-0.0028768 1.37363 0)
(-0.00825287 2.13285 5.17328e-22)
(-0.00746284 2.09437 0)
(-0.0209709 1.90626 0)
(0.938658 -0.0073702 0)
(0.857594 -0.00997942 0)
(0.863308 0.00530813 0)
(0.949637 -0.0077992 0)
(0.884103 -0.00819586 0)
(0.513959 1.12577 -2.27914e-19)
(0.563123 1.17674 0)
(0.367218 0.877917 3.36639e-20)
(0.309912 0.73661 0)
(0.918394 1.06094 -1.54173e-19)
(1.03693 0.870485 3.13972e-19)
(0.358646 1.35483 0)
(0.526352 1.32558 0)
(0.549112 1.26425 0)
(0.121094 0.184955 -3.02438e-19)
(0.169527 0.125933 0)
(0.176402 0.0781174 1.90855e-19)
(1.00782 0.924966 0)
(1.082 0.778847 0)
(1.10719 0.720461 -2.501e-19)
(1.14091 0.623108 0)
(1.19148 0.406834 5.74346e-20)
(0.957784 -0.00869067 0)
(0.962528 -0.0100266 0)
(0.901781 -0.00798817 0)
(0.984208 -0.00914311 0)
(0.974719 -0.00932699 0)
(0.937145 -0.00637435 0)
(1.00019 0.00234022 0)
(1.0009 0.00141535 0)
(0.999909 0.000855526 0)
(0.0356236 2.07287 4.27766e-19)
(0.118711 1.76892 0)
(0.0181923 2.18665 6.5741e-19)
(0.0461691 1.8804 -5.47982e-19)
(0.106355 1.14891 -2.5928e-19)
(0.0491121 1.02824 0)
(0.14298 0.979812 0)
(0.00636677 0.850585 0)
(0.0183166 0.58467 0)
(-0.000973458 2.24213 -8.13397e-22)
(0.0161515 2.01922 0)
(-0.00189622 2.24472 -2.85077e-20)
(0.00865939 2.02477 4.38191e-20)
(0.000341299 0.824431 0)
(-0.00291002 0.804425 0)
(0.0125943 0.536426 0)
(-0.00916376 0.780997 0)
(0.00559223 0.479743 0)
(0.938628 0.00983832 0)
(0.850528 -0.0145929 0)
(0.927766 0.000468995 0)
(0.842738 -0.0128691 0)
(0.811676 -0.00291685 0)
(0.897945 0.0234568 0)
(0.873893 0.0267026 0)
(0.786489 -0.00502495 0)
(0.00556853 3.06473 -8.48294e-21)
(0.0166842 3.05777 0)
(0.0146409 2.96901 0)
(0.00863218 2.87618 0)
(0.92037 3.95345 0)
(1.23358 3.28713 9.25831e-19)
(0.0688614 3.06947 0)
(-0.0294897 2.90249 0)
(-0.00971814 1.39648 0)
(-0.0263479 1.69605 0)
(-0.0152059 1.53152 0)
(-0.0293494 2.55237 -1.21708e-20)
(-0.0136206 2.24538 0)
(-0.0193294 2.39144 0)
(0.000370543 1.95242 8.09936e-22)
(-0.00411529 2.241 -8.15043e-21)
(-0.00604546 2.20323 -3.85108e-21)
(-0.00684813 1.9388 0)
(0.395988 0.12406 5.40254e-19)
(0.363221 0.0190436 -5.30157e-19)
(0.258726 1.58517 0)
(0.277639 0.756789 -3.15668e-19)
(0.176968 1.67241 -1.0479e-18)
(0.225908 1.22012 1.05019e-18)
(0.901982 0.00634901 0)
(0.967381 0.0111394 0)
(0.974532 0.010817 0)
(0.923276 0.00640558 0)
(-0.00885044 0.778035 0)
(-0.0100215 0.776524 0)
(0.00507358 0.475758 0)
(0.106944 0.0804948 6.00823e-19)
(0.0975113 0.0664025 -7.11495e-19)
(0.0616925 0.0499398 0)
(1.10004 0.0865849 2.70265e-20)
(1.08211 0.0397031 0)
(1.01389 0.040166 0)
(0.907767 -0.00532766 0)
(0.449226 0.104261 0)
(0.509049 0.0872462 -2.46271e-18)
(0.407471 0.012568 9.20956e-19)
(0.00864614 2.98043 7.14506e-19)
(-0.0331758 2.86488 4.57749e-20)
(0.00363812 3.05025 -1.79661e-20)
(0.0202196 3.04335 6.39297e-19)
(-0.014998 2.99658 2.98225e-20)
(-0.0129629 2.94949 -1.19977e-22)
(-0.0172672 3.01191 -5.52076e-19)
(0.0149106 3.02366 3.99716e-19)
(0.00741387 3.03687 -6.33157e-19)
(0.934134 -0.0011702 0)
(0.939563 -0.00316689 0)
(0.846131 -0.00945547 0)
(0.956498 0.0119448 0)
(0.942552 0.0133816 0)
(0.881574 0.00575664 0)
(0.916021 0.0185753 0)
(0.925503 0.0155062 0)
(0.838418 0.00113331 0)
(0.716347 1.40276 3.95302e-20)
(0.749616 1.51138 0)
(0.181259 0.315024 7.06174e-20)
(0.22883 0.66908 5.68382e-19)
(0.262407 0.720368 -3.32131e-19)
(0.262903 0.520753 6.60933e-19)
(0.346258 0.811477 1.5916e-18)
(0.140703 0.230294 3.75716e-19)
(0.252959 0.148479 7.27343e-19)
(0.209966 0.143309 1.88592e-19)
(0.212246 0.070047 3.57095e-19)
(1.18049 0.464855 6.50736e-20)
(1.19587 0.257472 6.02816e-20)
(0.0103507 2.23524 2.52977e-19)
(0.0403925 1.94859 0)
(0.97108 0.0294624 0)
(0.943625 0.0140075 0)
(0.869445 -0.0178325 0)
(0.0113252 3.07437 0)
(0.0196528 2.944 1.16869e-18)
(0.0164198 2.95633 0)
(0.00637707 2.85062 -1.15949e-18)
(0.00622977 3.09074 2.83426e-19)
(0.00721251 3.08252 0)
(0.782363 1.8128 -1.58576e-19)
(1.24142 2.48821 4.02696e-19)
(0.764346 1.9521 -1.22787e-18)
(0.0197377 2.98056 -6.15081e-19)
(0.0350862 2.99936 0)
(-0.0344019 2.87689 0)
(-0.00404613 2.22429 -1.30722e-20)
(-0.00346809 2.24538 1.25876e-20)
(0.00241468 1.98698 -7.23418e-21)
(0.278215 1.39452 1.02459e-18)
(0.239071 0.551381 -7.02543e-19)
(0.0637994 1.99771 7.62089e-19)
(0.135224 1.88406 -9.09744e-19)
(0.180097 1.51161 9.49866e-20)
(0.00157269 3.11903 -1.76412e-18)
(0.0148319 3.11841 1.89906e-18)
(-0.00907216 2.98117 7.84124e-19)
(-0.00398064 2.97745 -7.39886e-19)
(-0.020957 2.88097 -7.98612e-19)
(0.00860097 3.10014 -2.10745e-18)
(0.00233601 3.10559 2.06606e-18)
(0.282384 0.695584 0)
(0.24859 0.684463 -1.18161e-18)
(0.0959881 0.225212 5.24575e-19)
(0.357885 0.938603 1.1128e-18)
(0.195826 0.27633 -1.71571e-18)
(1.1871 0.175475 6.25508e-20)
(1.19627 0.312188 0)
(1.1755 0.123079 -5.75698e-21)
(0.00156763 2.25378 -1.46429e-21)
(0.00504437 2.24516 0)
(0.0248016 1.98446 0)
(0.340042 1.30342 -3.67879e-19)
(0.374897 1.15042 -7.99906e-19)
(0.2105 0.378342 1.42628e-18)
(1.00588 -0.0108267 0)
(1.00767 -0.00763305 5.06375e-19)
(-0.0241365 1.3258 0)
(-0.0385395 1.32556 0)
(1.00221 0.00351483 1.81177e-21)
(1.00366 0.00947125 1.03394e-18)
(-0.0203639 2.53671 1.5429e-20)
(-0.0246892 2.57883 0)
(0.0341364 3.1769 4.063e-19)
(0.390424 3.48347 0)
(1.17622 0.664667 -5.66748e-20)
(1.01285 0.0131474 -2.13363e-21)
(1.02135 -0.0102792 0)
(1.0017 0.000130709 7.82103e-23)
(0.113136 1.37081 0)
(0.143448 2.56781 0)
(0.0280979 1.31329 0)
(0.000290487 2.61902 2.76263e-20)
(-0.0209082 2.57614 3.03108e-21)
(0.998654 0.0302598 2.34803e-21)
(1.06321 0.00473564 0)
(1.0978 0.0252572 0)
(-0.0281294 1.7387 0)
(-0.0182015 2.57818 0)
(-0.0057564 1.31349 0)
(0.311286 1.48213 -1.68217e-19)
(1.01131 -0.00961287 0)
(1.0094 -0.0149143 0)
(1.00237 0.000754338 6.47134e-19)
(1.00547 -0.00479857 -7.60615e-19)
(1.00118 -0.000967325 0)
(-0.0141559 1.46435 0)
(-0.0067543 1.37593 0)
(-0.00661597 1.42148 0)
(-0.00968227 1.30107 0)
(-0.0194065 1.28818 0)
(-0.0104741 1.27122 0)
(1.03507 -0.00600999 0)
(1.01952 0.0154945 -8.82253e-22)
(0.822086 1.27403 2.61139e-19)
(1.00224 0.00032079 -6.44706e-19)
(1.00406 0.00526325 7.54747e-19)
(1.00118 0.00207629 0)
(1.01272 0.0103665 6.41594e-19)
(1.00798 0.00831579 -7.77389e-19)
(1.00856 0.0146984 0)
(-0.0235285 2.6061 0)
(-0.0257807 2.58608 -2.05064e-20)
(-0.0231328 2.59981 1.44596e-20)
(1.23835 0.268577 5.79398e-19)
(1.16288 0.0873418 0)
(0.0399952 3.07783 -9.09459e-19)
(0.0649929 2.85636 -6.61105e-20)
(0.138216 3.19194 1.39244e-18)
(0.133245 3.21981 -1.96189e-19)
(0.132474 3.23056 0)
(0.0197588 3.1374 2.34641e-19)
(0.0744479 3.15985 8.9682e-19)
(0.0671525 3.18512 -4.42302e-19)
(0.0222056 3.12986 0)
(0.576039 0.282547 0)
(0.512526 0.302961 0)
(1.14786 0.700769 1.28334e-19)
(1.14132 0.822208 -1.11495e-19)
(1.20416 0.587634 0)
(1.23173 0.521944 0)
(1.01603 0.0133833 -1.19595e-18)
(1.01498 0.0142775 1.50131e-18)
(1.0254 -0.00979327 0)
(1.02346 -0.0118418 0)
(1.00642 0.002644 0)
(1.01041 0.00375029 0)
(1.00458 0.00186833 0)
(1.00978 0.00625778 0)
(1.00781 0.00596801 0)
(1.00451 0.00472387 0)
(0.101964 1.36929 0)
(0.100095 1.33198 0)
(0.131356 1.40508 0)
(0.150315 1.41049 0)
(0.145278 2.59297 0)
(0.184979 2.66328 -4.23069e-19)
(0.10142 2.64805 0)
(0.0853077 2.65099 1.97924e-19)
(0.0388582 2.67364 -1.48352e-19)
(0.0153493 1.32453 0)
(0.0220592 1.24659 0)
(0.0196775 1.33486 0)
(0.0402335 1.27159 0)
(0.00414432 1.98261 4.10477e-21)
(-0.0198561 2.60388 -2.00888e-20)
(-0.00802422 2.6603 1.25795e-20)
(-0.0176956 2.67963 0)
(-0.0226501 2.60963 -2.90231e-21)
(-0.0224861 2.60461 1.39564e-20)
(0.0130453 1.98091 1.66329e-22)
(-0.00714128 2.39135 2.69506e-20)
(-0.0129222 2.4139 -1.42671e-20)
(1.01189 0.0393627 1.21119e-18)
(1.00497 0.0192842 -1.50743e-18)
(1.00427 0.0466086 -1.23417e-18)
(0.977194 0.0381909 1.553e-18)
(1.06443 0.00856339 0)
(1.04952 -0.00818219 0)
(1.09475 0.0354506 0)
(1.0746 0.0131276 0)
(1.07242 0.000643188 0)
(1.14071 0.0838431 0)
(1.11226 0.0449988 0)
(1.11619 0.0328048 0)
(-0.0250902 2.42959 1.60475e-21)
(-0.0131152 2.01328 0)
(-0.015338 2.21513 0)
(-0.0201532 2.5987 -1.15692e-20)
(-0.0171953 2.60848 2.05056e-22)
(0.00328161 1.57614 -3.73272e-20)
(-0.00585923 1.50415 3.80394e-20)
(-0.0157434 1.39336 0)
(-0.0191206 1.39988 0)
(-0.0243061 1.39438 0)
(-0.00420389 1.31476 0)
(0.00828288 1.23806 0)
(0.386615 1.49955 2.73832e-19)
(0.42989 1.50026 1.45175e-19)
(0.597451 2.44378 -2.40311e-19)
(0.398035 2.54077 7.07075e-19)
(0.349052 2.05211 7.1419e-20)
(1.02108 -0.00809697 0)
(1.01552 -0.00973754 0)
(1.01493 -0.0155 0)
(1.0074 -0.00106311 0)
(1.00493 -0.000905676 0)
(1.00779 -0.00467769 0)
(1.00928 -0.00359733 0)
(1.01423 -0.00435834 0)
(1.02025 0.0163901 1.17213e-18)
(1.0176 0.0154236 -1.49602e-18)
(1.02056 0.0185322 -1.18177e-18)
(1.01819 0.0168626 1.48034e-18)
(0.785382 1.32505 0)
(0.721434 1.37554 2.47144e-19)
(0.897814 1.22492 9.86029e-20)
(0.943764 1.17023 -1.31215e-19)
(1.15439 2.59882 2.80256e-19)
(0.766151 0.122673 5.9977e-19)
(1.16402 0.109784 0)
(1.21329 0.195537 -4.66357e-19)
(1.20054 0.156026 -1.98652e-20)
(1.00637 0.157916 0)
(0.128184 2.95835 5.30155e-19)
(0.104306 2.86414 -1.15236e-18)
(0.0112853 2.37501 7.68999e-19)
(0.0993324 -0.161572 -3.23576e-19)
(0.335334 3.41373 -2.158e-19)
(0.190372 3.30852 0)
(0.234435 3.34898 2.81049e-19)
(0.238903 3.03084 -1.77409e-18)
(0.332469 3.18915 0)
(0.00654682 3.12101 4.57981e-20)
(0.0158676 3.12985 -5.40581e-19)
(0.0146343 3.12593 7.95632e-19)
(0.0349363 3.13988 0)
(0.0333756 3.15023 0)
(1.20974 2.59625 0)
(0.547167 0.802178 -5.27744e-19)
(1.06755 0.994929 -9.72324e-21)
(1.00248 1.07936 0)
(0.855734 0.974482 -1.09314e-19)
(1.09372 0.896041 2.78605e-20)
(0.305868 0.327692 -8.43645e-19)
(0.653442 0.32536 -1.6981e-20)
(0.54573 0.221375 4.05729e-19)
(0.537447 0.336362 2.95278e-20)
(0.430541 0.272499 -1.18607e-18)
(0.610589 0.327026 0)
(0.713912 0.425857 6.66026e-19)
(0.712057 0.426376 0)
(0.576788 0.341973 0)
(0.497919 0.246086 0)
(0.829324 0.626249 4.08716e-19)
(1.23963 0.291014 -4.87385e-19)
(1.23993 0.43008 0)
(1.2482 0.370394 0)
(0.6804 0.195763 6.20379e-19)
(0.875226 0.555401 -3.73045e-19)
(0.773758 0.530677 6.65253e-19)
(0.963329 0.448034 -7.34192e-19)
(1.01906 0.0150071 8.0201e-19)
(1.01752 0.0143714 -8.08119e-19)
(1.01592 0.0153119 0)
(1.03655 -0.00555232 0)
(1.02994 -0.00834252 -7.57399e-19)
(1.02799 -0.0119384 7.49868e-19)
(1.02488 0.0106486 0)
(1.02331 0.014485 0)
(1.01141 0.00417842 0)
(1.01418 0.00917225 0)
(1.01515 0.00420762 0)
(1.01426 0.0029132 0)
(0.0729036 1.35317 0)
(0.0807424 1.29883 0)
(0.147971 1.38536 7.0306e-21)
(0.281618 1.48068 8.93233e-20)
(0.176719 1.45161 1.87791e-19)
(0.209781 1.45698 -3.06292e-19)
(0.176429 1.41072 0)
(0.135579 1.60004 -6.99516e-20)
(0.119559 1.57864 0)
(0.345123 2.00163 -1.03846e-19)
(0.341624 2.33777 6.14023e-19)
(0.194802 1.46446 6.09864e-20)
(0.268545 1.39666 2.31687e-20)
(0.202383 1.38981 -1.86943e-20)
(0.278344 1.33947 -1.03239e-19)
(0.242255 1.57908 0)
(0.268201 1.61609 1.1232e-19)
(0.0311924 2.25751 -2.88947e-20)
(0.0437446 2.66287 0)
(0.0668517 2.394 1.35733e-19)
(0.0633588 2.41469 0)
(0.0696432 2.66462 -2.19337e-19)
(0.0493322 2.69316 0)
(0.0279566 1.44373 3.45156e-20)
(0.0363539 1.49297 0)
(0.030797 1.40994 0)
(0.0258362 1.416 -3.89481e-20)
(0.000916833 2.64658 -1.6904e-20)
(0.029875 2.69204 1.66538e-19)
(0.0107302 2.71729 1.16772e-21)
(0.0044991 1.83783 -4.5808e-21)
(-0.00132274 1.69213 -3.92448e-21)
(0.0106682 1.30274 0)
(0.0198794 1.22008 0)
(0.0465142 1.59521 -2.77435e-20)
(0.0348554 1.47382 -3.41101e-20)
(0.0385561 1.53651 4.24143e-20)
(0.0410299 1.61881 0)
(-0.0292207 2.26838 9.90952e-20)
(-0.0301961 2.54563 -4.16042e-20)
(-0.0159939 2.44347 4.3231e-21)
(-0.00258058 1.85348 5.54892e-21)
(-0.0250135 2.49532 2.67052e-21)
(-0.0200107 2.43919 -1.28575e-21)
(1.01843 0.0218555 -8.02347e-19)
(1.01529 0.0279006 8.06467e-19)
(1.01289 0.0167159 0)
(1.01052 0.0710748 1.12764e-18)
(0.991912 0.0603665 -1.26104e-18)
(0.951041 0.0572275 1.40942e-18)
(1.0142 0.112048 -1.50413e-19)
(1.043 -0.00553371 0)
(1.05142 -0.00113448 7.22278e-19)
(1.03927 -0.00972177 -7.23755e-19)
(1.07205 0.0430781 -4.29465e-20)
(1.06512 0.0242561 3.70425e-19)
(1.06321 0.0571263 0)
(1.05423 0.0504543 -1.33209e-19)
(1.03218 0.0425673 0)
(1.02608 0.0394348 0)
(1.02794 0.013804 0)
(1.02387 0.0164248 0)
(1.04043 0.0334798 2.74374e-19)
(1.0388 0.0274205 -6.06719e-19)
(1.05141 0.0346955 -2.90769e-19)
(1.04843 0.034933 -3.20334e-19)
(1.07182 0.0654244 6.25083e-19)
(1.09725 0.0533062 0)
(1.10646 0.0975808 0)
(-0.024593 2.2735 5.59401e-20)
(-0.0236932 2.01811 1.20982e-21)
(-0.0196339 2.02561 0)
(-0.0269089 2.44223 -5.56861e-20)
(-0.0222989 2.39894 -2.73958e-21)
(-0.032351 2.46999 6.02091e-21)
(-0.0200951 2.6172 -1.2422e-20)
(-0.0227557 2.55919 1.54754e-22)
(-0.020987 2.51097 -3.49481e-21)
(-0.0153377 2.61132 1.05815e-20)
(-0.0201237 2.61322 -1.14002e-20)
(-0.00577836 1.49944 -6.2848e-22)
(0.00388054 1.62434 -3.55521e-20)
(0.371518 1.44821 -1.15813e-19)
(0.371338 1.38149 3.66648e-20)
(0.661952 1.42593 -2.3909e-19)
(0.528909 1.49293 -1.42724e-19)
(0.587248 1.45853 0)
(0.593175 2.4209 2.06891e-19)
(0.661644 2.41649 3.37516e-19)
(0.411005 2.51019 8.79318e-20)
(0.402157 2.53456 -6.08676e-19)
(0.509876 2.47564 6.13631e-19)
(0.553144 2.45759 0)
(0.487859 2.51515 -5.59097e-19)
(0.248114 2.58721 1.1426e-18)
(0.354572 2.55939 -7.73215e-20)
(0.283754 2.6489 -1.58525e-18)
(0.948088 2.3741 7.27615e-19)
(0.838192 2.37941 0)
(1.01108 0.000534663 2.62537e-20)
(1.01536 -0.00535759 -2.1295e-20)
(1.01768 -0.00346075 -3.88933e-19)
(1.01505 -0.00082425 3.91052e-19)
(1.01247 0.0012804 0)
(0.648565 1.29089 0)
(0.6724 1.18462 0)
(0.786325 1.10308 0)
(0.665491 1.14823 0)
(1.18444 2.61234 5.97766e-20)
(1.07248 2.3598 0)
(0.833754 2.16281 3.84806e-21)
(0.823501 2.42939 0)
(0.921606 2.52322 -4.22199e-19)
(0.956839 2.4793 2.80834e-19)
(0.796834 0.184292 0)
(0.738048 0.157103 1.62943e-19)
(0.90717 0.152407 9.479e-19)
(0.822729 0.156455 -3.55041e-19)
(0.778253 0.0910002 -1.09554e-18)
(1.08313 0.242485 -8.91422e-19)
(1.00045 0.30586 -1.79912e-20)
(0.928031 0.309587 8.58968e-19)
(1.00713 0.235933 7.21654e-19)
(0.948023 0.200074 -1.25392e-18)
(0.910251 0.204601 1.56833e-19)
(0.946591 0.271975 -3.32882e-19)
(0.925502 0.231913 0)
(0.996339 0.196413 6.18496e-19)
(1.0473 0.195289 0)
(1.04491 0.223779 0)
(1.10781 0.121951 2.8974e-19)
(1.07179 0.182053 -1.50773e-20)
(1.07644 0.242408 -1.57776e-19)
(1.10197 0.208219 0)
(1.02262 0.0468676 6.17743e-19)
(1.03928 0.0603568 7.71899e-19)
(1.03404 0.0459129 -6.13464e-19)
(1.04288 0.0682319 -5.17781e-19)
(1.02011 0.0761841 -7.94704e-19)
(0.985015 0.160285 0)
(0.989567 0.106111 0)
(0.965247 0.0753528 -5.0116e-19)
(0.904792 0.0982583 1.99661e-19)
(1.04035 0.108333 7.16247e-19)
(1.06966 0.125552 -8.35755e-19)
(1.07668 0.157903 7.46381e-19)
(1.03146 0.15208 0)
(1.0752 0.112869 0)
(1.05409 0.0936371 -3.42621e-19)
(1.04348 0.0985538 -5.84544e-19)
(0.57892 1.05392 1.40411e-19)
(0.6037 1.37781 -4.18611e-20)
(1.15432 2.72778 -2.28402e-19)
(1.21985 3.07026 2.30671e-21)
(1.24604 2.71106 -1.25173e-19)
(1.27439 2.69427 -3.10318e-20)
(1.20178 2.33458 -1.11333e-20)
(1.2076 2.97414 -9.46279e-20)
(1.2278 2.93971 2.36076e-19)
(1.20991 3.22308 -1.42276e-19)
(1.36943 2.95393 1.96586e-19)
(1.35797 2.87199 0)
(0.565258 0.811028 -5.04229e-20)
(0.107684 1.22244 5.69703e-19)
(0.559443 0.349954 5.51939e-19)
(0.39845 0.0963201 5.97226e-19)
(0.476291 0.312476 6.72913e-19)
(0.546484 0.430692 -1.09105e-18)
(0.548267 0.426686 8.93683e-19)
(0.464741 0.307355 -3.39557e-19)
(0.340145 0.235354 7.65452e-19)
(0.706889 0.270463 -3.58433e-19)
(0.665708 0.292148 0)
(0.60083 0.207842 6.34769e-21)
(0.744948 0.508366 3.61657e-19)
(0.725693 0.478692 -1.31442e-18)
(0.624701 0.445116 1.06813e-20)
(0.620752 0.436183 0)
(0.694622 0.717611 3.96216e-19)
(0.857364 0.780136 3.93474e-19)
(0.780939 0.862615 -4.60469e-19)
(0.902536 0.817184 -1.53576e-19)
(0.933604 0.862619 -3.70037e-20)
(0.94065 0.8623 3.78953e-20)
(0.86931 0.661126 -6.76651e-19)
(0.949079 0.714573 1.42598e-19)
(1.00837 0.729421 0)
(0.999366 0.705948 -1.92544e-19)
(1.03031 0.346372 2.11586e-19)
(1.15044 0.307628 2.87013e-19)
(1.07123 0.279961 3.64279e-19)
(1.02019 0.378841 -4.30056e-19)
(1.06845 0.44104 0)
(1.12442 0.422173 0)
(0.922599 0.382493 1.36025e-21)
(0.838782 0.318319 0)
(0.885868 0.315509 4.06402e-19)
(0.910031 0.318175 -8.23359e-21)
(0.958172 0.451592 2.04521e-18)
(0.919477 0.50685 5.25596e-19)
(0.923956 0.473284 -5.6057e-19)
(0.839394 0.461967 6.01662e-19)
(0.824433 0.45546 3.60672e-19)
(0.795288 0.436996 -3.54425e-19)
(1.02743 -0.000169725 6.47918e-19)
(1.02001 0.000119541 0)
(1.01855 0.0010449 4.22488e-19)
(1.02175 -0.00149154 -9.57045e-19)
(1.02239 0.00457493 4.6494e-19)
(1.0203 0.0116157 -9.73581e-19)
(1.02119 0.0109705 0)
(1.0204 0.0111802 -2.02918e-19)
(1.01593 0.00788555 5.09113e-19)
(1.01657 0.010682 -2.54031e-19)
(1.01727 0.010027 1.87066e-19)
(0.0331929 1.32946 0)
(0.0387928 1.38406 0)
(0.0518218 1.33015 0)
(0.0575686 1.27757 0)
(0.0748035 1.40217 -4.9416e-20)
(0.0848346 1.36754 2.23253e-20)
(0.112392 1.54665 -1.50085e-20)
(0.105848 1.38933 -4.02367e-21)
(0.0400112 1.47923 2.00548e-20)
(0.0436655 1.47332 -1.5438e-20)
(0.067449 1.38939 -1.07724e-20)
(0.0607665 1.39052 4.67437e-20)
(0.0523264 1.36743 6.91705e-21)
(0.0446349 1.38948 3.87063e-21)
(0.107791 2.36189 -1.49895e-19)
(0.0962684 2.41032 0)
(0.169565 2.03572 1.08939e-19)
(0.113418 1.70256 4.04959e-20)
(0.234348 2.03373 -8.95958e-20)
(0.199718 2.42448 0)
(0.262291 2.37447 -6.0559e-19)
(0.302142 2.37224 4.27906e-19)
(0.228129 1.99347 -2.49951e-19)
(0.154273 2.15205 1.68912e-19)
(0.141648 2.25936 0)
(0.0187603 1.87793 6.58771e-21)
(0.00077168 2.38606 -3.29345e-20)
(0.00641072 2.1435 0)
(0.0118135 2.44995 -1.3678e-20)
(0.0293363 2.29281 8.49515e-21)
(0.015771 1.42273 -7.44959e-21)
(0.0127835 1.40394 1.24109e-19)
(0.012447 1.41092 -4.12844e-20)
(0.0217692 1.41656 -3.43086e-20)
(0.026058 1.44747 0)
(0.00814618 1.39214 0)
(-5.37572e-05 1.29924 -4.85193e-20)
(0.00448171 1.38412 1.39503e-20)
(0.00841259 1.38355 0)
(0.00612011 1.29098 -3.6256e-20)
(0.0165266 1.21036 7.36181e-20)
(1.04086 0.0121858 0)
(1.04708 0.00842764 -6.77697e-20)
(1.03882 0.0225139 -4.89058e-19)
(1.04865 0.0212521 0)
(1.05255 0.0211121 0)
(1.03645 0.012389 -6.84805e-21)
(1.03106 0.0122224 7.86137e-19)
(1.03166 0.0172794 9.52909e-19)
(1.02554 0.0211891 0)
(1.02236 0.0216665 0)
(1.03531 0.0261437 4.87703e-19)
(1.02598 0.0279957 0)
(1.02372 0.0281352 0)
(-0.0175913 2.02295 0)
(0.000684147 1.65478 -4.37502e-21)
(-0.00388544 1.7617 -3.08363e-20)
(-0.00167181 1.39171 0)
(-0.00643579 1.55685 -1.9686e-20)
(-0.00917183 1.46787 1.21383e-20)
(-0.00651854 1.40572 0)
(0.388633 1.64254 0)
(0.37403 1.30737 -7.20107e-20)
(0.300757 1.34024 0)
(0.426062 1.30641 7.36986e-21)
(0.476768 1.4706 0)
(0.457144 1.41496 2.4794e-20)
(1.03636 2.67454 -1.53827e-20)
(0.968459 2.40275 -9.1447e-19)
(0.921677 2.19129 1.02579e-18)
(0.852224 2.37131 2.42122e-19)
(0.847751 2.48392 0)
(0.917466 2.48001 0)
(0.931437 2.36766 0)
(0.910397 2.35698 -9.45036e-19)
(0.686652 2.44764 -3.94407e-19)
(0.799831 2.43706 -9.77437e-20)
(0.81017 2.4112 7.42485e-20)
(0.695529 2.3896 0)
(0.800801 2.38494 0)
(0.758925 2.39839 -3.68769e-19)
(0.767393 2.47368 0)
(0.632981 1.09386 0)
(0.480268 0.898043 -5.14344e-19)
(0.568693 0.942848 -3.25339e-20)
(0.519079 1.03239 0)
(0.519503 0.974933 7.70114e-19)
(0.801615 0.885581 -1.2965e-19)
(0.810067 1.0214 0)
(0.785282 0.987762 1.8499e-19)
(0.669811 1.03411 0)
(0.671017 0.935314 0)
(1.16334 2.75107 -2.30455e-19)
(1.1408 2.81438 -9.76925e-20)
(0.928701 2.32804 1.01465e-19)
(0.896504 2.30762 -8.36149e-20)
(1.12895 2.72413 0)
(1.08281 2.69357 1.00592e-19)
(1.08883 2.47768 -3.14148e-19)
(0.983434 2.23091 -3.0356e-20)
(0.492019 1.32894 0)
(0.507894 1.05936 -1.23755e-19)
(0.577459 1.16714 0)
(0.852823 0.250259 0)
(0.758014 0.200543 0)
(0.666889 0.156459 0)
(0.843493 0.252526 -6.38466e-19)
(0.730025 0.244108 3.73729e-19)
(0.921954 0.0912279 -4.11548e-19)
(0.925092 0.133328 0)
(0.913556 0.141585 1.77823e-19)
(0.84923 0.119676 7.10881e-19)
(0.813656 0.0804651 -4.45784e-19)
(1.1551 3.34801 -7.16683e-19)
(1.20416 3.26753 0)
(1.15278 3.37702 -1.48642e-18)
(0.641123 3.53861 1.26088e-18)
(0.862404 3.10739 7.06668e-20)
(0.52265 0.796417 6.0641e-19)
(0.423387 0.793869 0)
(0.305985 0.377211 -1.48616e-19)
(0.474342 0.648385 8.56493e-19)
(0.563891 0.353589 -1.94619e-19)
(0.516346 0.463273 2.30448e-19)
(0.675427 0.511322 4.89701e-19)
(0.715863 0.550811 0)
(0.665669 0.572988 0)
(0.631547 0.525101 0)
(1.0097 0.616062 8.78772e-20)
(0.924807 0.556655 -5.11736e-19)
(0.950128 0.587994 3.85356e-19)
(0.980451 0.528116 -3.96375e-19)
(1.08791 0.496124 0)
(1.09642 0.587183 -9.63785e-20)
(0.859492 0.414188 -8.29255e-19)
(0.857474 0.402599 -1.02803e-18)
(0.790324 0.395359 6.33396e-19)
(0.799078 0.383772 -6.43138e-19)
(0.845554 0.340735 -5.19005e-19)
(0.792427 0.33804 6.3468e-19)
(1.02669 0.00616544 -4.93309e-19)
(1.0264 0.00638231 1.00261e-18)
(1.02948 0.000285913 6.27853e-19)
(1.03372 0.00120405 -7.5616e-19)
(1.03385 0.00936107 0)
(1.0301 0.0100689 -1.231e-18)
(0.0628966 1.63899 1.89305e-20)
(0.0526984 1.58955 0)
(0.0902257 1.68776 1.27166e-19)
(0.0966852 1.66866 -1.12719e-19)
(0.0931248 1.5473 2.679e-20)
(0.0927435 1.5484 0)
(0.0125978 1.68909 0)
(-0.0042422 1.49913 8.03397e-21)
(-0.00217482 1.44511 -7.22818e-21)
(-0.00753667 1.55405 5.376e-21)
(0.00271652 1.88517 1.20314e-20)
(-0.00933372 1.93803 -2.16134e-21)
(0.496876 1.3563 -2.76231e-19)
(0.490442 1.35666 3.03554e-19)
(0.453619 1.3019 -3.15905e-20)
(0.436666 1.2834 7.75398e-21)
(0.640895 1.30871 0)
(0.555923 1.39906 1.05042e-19)
(0.571592 1.40623 -1.02264e-19)
(0.467338 1.29232 3.08094e-20)
(0.522426 1.24138 0)
(0.574014 1.20412 0)
(0.653598 2.40724 5.79392e-19)
(0.669196 2.44893 1.25923e-18)
(0.713682 2.45962 -8.67697e-19)
(0.609822 2.43351 -2.01783e-19)
(0.559756 2.52372 2.83542e-19)
(0.50897 2.49856 -7.56445e-19)
(0.978178 2.37428 -5.74102e-19)
(1.01228 2.3864 0)
(0.92582 2.16936 -6.59602e-19)
(1.05382 2.67263 0)
(1.05612 2.65923 0)
(0.597702 2.25558 -1.29299e-19)
(1.03611 3.15308 1.26587e-19)
(0.907272 3.02348 -2.95368e-20)
(0.262681 0.842991 0)
(0.288576 0.685383 -3.17617e-19)
(0.459098 0.645536 -3.19865e-19)
(0.377634 1.99964 0)
(0.461608 2.77832 -4.91929e-20)
(0.415036 2.54094 0)
(0.718453 0.668016 -8.36822e-19)
(0.803681 0.687104 1.11938e-18)
(0.823351 0.627573 -1.10585e-18)
(0.695099 0.63097 -1.07176e-19)
(0.750385 0.589198 -4.38958e-19)
(1.00012 2.75169 -9.62748e-20)
(1.04135 2.81321 -1.66844e-19)
(0.631003 2.11842 7.02344e-19)
(0.583254 1.68727 -5.00245e-19)
(0.693134 1.88726 -4.08782e-19)
(0.986448 2.4356 -1.12873e-19)
(0.993592 2.42848 2.97678e-19)
(0.648538 1.82014 2.84094e-20)
(0.440098 1.30803 1.45025e-19)
)
;

boundaryField
{
    wall-4
    {
        type            noSlip;
    }
    velocity-inlet-5
    {
        type            fixedValue;
        value           uniform (1 0 0);
    }
    velocity-inlet-6
    {
        type            fixedValue;
        value           uniform (0 3 0);
    }
    pressure-outlet-7
    {
        type            zeroGradient;
    }
    wall-8
    {
        type            noSlip;
    }
    frontAndBackPlanes
    {
        type            empty;
    }
}


// ************************************************************************* //
