/*--------------------------------*- C++ -*----------------------------------*\
  =========                 |
  \\      /  F ield         | OpenFOAM: The Open Source CFD Toolbox
   \\    /   O peration     | Website:  https://openfoam.org
    \\  /    A nd           | Version:  13
     \\/     M anipulation  |
\*---------------------------------------------------------------------------*/
FoamFile
{
    format      ascii;
    class       volScalarField;
    location    "15";
    object      p;
}
// * * * * * * * * * * * * * * * * * * * * * * * * * * * * * * * * * * * * * //

dimensions      [0 2 -2 0 0 0 0];

internalField   nonuniform List<scalar> 
918
(
0.207599
0.885863
0.0139645
0.206934
0.000701185
0.852995
-0.858072
0.391666
0.187545
-0.226616
0.0198094
0.179272
0.713545
0.480445
-1.48897
0.0141145
0.34599
-0.729076
0.186218
0.00831977
0.460972
0.194379
0.197361
0.187952
0.245325
0.473319
0.593899
0.00618638
-0.0041514
0.000934454
0.0044221
-0.00185821
0.00390969
0.736617
0.78772
0.810366
0.157663
-0.0187725
-0.707248
-0.786979
-0.768295
-0.920966
0.380908
0.384751
-0.510991
0.393022
0.408296
0.175083
0.186889
0.187903
0.189113
0.187901
0.189382
0.251798
-0.282671
-0.347757
-0.146755
-0.106777
0.0697175
0.0220472
0.0144336
0.0255976
0.023586
0.116708
0.176133
0.173643
0.184783
0.193242
0.825408
0.797289
0.823415
0.737229
0.753682
0.691485
0.663911
0.500757
0.521849
0.465526
0.455676
-1.93152
-2.90249
-0.888312
-0.629692
0.00247364
0.0210594
0.0258
0.328697
0.335856
0.33779
0.350549
0.74013
-0.721734
-0.850159
0.18617
0.185131
0.194121
0.19479
0.190826
0.189955
0.0150811
0.0210415
-0.000501456
0.00666585
0.00612312
0.441131
0.43832
0.188466
0.185288
0.201273
0.224172
0.213754
-0.040282
0.259765
0.284528
0.274264
0.453927
0.452047
0.459425
0.567445
0.529844
0.63131
0.654722
0.00839961
0.0020836
0.0110592
0.00896251
0.0119323
0.152928
0.147424
0.168931
0.159736
0.161578
-0.0968923
-0.22964
0.0578085
0.0752455
-0.611041
-0.684312
-0.787807
-0.799913
-0.905081
0.176126
0.366349
0.370372
-0.52461
-0.440506
-0.59181
-0.36542
-0.438699
0.165328
0.172895
0.167676
0.182396
0.176932
0.17876
0.191289
0.188348
0.189867
0.267553
0.352114
0.191133
0.188106
-0.596441
-0.425321
-0.554407
-0.0612291
-0.0417453
0.0786983
0.0889827
0.0609722
0.0576334
-0.0149311
0.00865475
-0.00558497
0.0246911
0.0249214
0.110668
0.102
0.125303
0.131882
0.167593
0.168449
0.170489
0.170594
0.614605
0.637027
0.644529
0.618313
-3.91096
-6.73241
-0.296133
-0.15237
0.00206426
0.00333897
0.00118097
0.00352574
0.00435909
0.00183889
0.0350931
0.0341093
0.0291908
0.0331624
0.313952
0.320292
0.714776
0.719375
0.66468
0.665406
0.174494
0.176685
0.181854
0.177554
0.0248979
0.0223156
0.0257627
0.407077
0.424756
0.42587
-0.0737969
-0.162478
0.00754155
0.0345407
0.302012
0.286787
0.305175
0.338408
0.375405
0.662108
0.680441
0.678756
0.687163
0.731207
0.747611
0.712925
0.136342
0.144843
0.140279
0.174102
0.170291
0.171592
0.16733
0.169162
0.166725
-0.382434
-0.769376
0.127622
0.130257
0.107414
0.111652
0.264907
0.338948
0.34643
0.354914
0.359791
-0.299489
-0.36753
0.160782
0.148547
0.0590477
0.0901344
0.0736068
0.585779
0.546432
0.596269
0.569849
0.531392
0.557244
-0.721352
-2.25163
-1.35367
0.21405
0.0178854
0.109962
0.052926
0.037363
0.0459593
0.652238
0.715145
0.410979
0.560878
0.538527
0.417884
0.450424
0.5025
0.425822
0.461676
0.49934
0.482412
0.136839
0.132754
0.112953
0.407394
0.471976
-0.188144
-0.23547
-0.295039
0.096154
0.126064
0.119889
0.682016
0.544899
0.639901
0.185402
0.185993
0.0130599
0.0238518
0.190052
0.190264
0.00769246
0.0096904
0.0891627
-1.20242
-0.194168
0.178459
0.168785
0.185471
-0.286518
0.311937
0.0158447
0.0815384
0.0572883
0.177837
0.127246
0.0929914
0.00747727
0.0195957
0.0152714
-0.519136
0.183047
0.18124
0.185087
0.186173
0.186983
0.00932156
0.0116316
0.00772977
0.0130496
0.013295
0.0111621
0.152506
0.1656
-0.508987
0.185153
0.187347
0.187191
0.180673
0.185904
0.183891
0.0172433
0.0117193
0.0110308
-0.0885298
0.0273178
0.348173
0.463102
0.293316
0.0691009
-0.173837
0.244694
0.314165
0.209804
0.38005
0.348359
0.377786
-0.136322
-0.283441
-0.126818
-0.18162
0.176001
0.174994
0.167394
0.165333
0.180931
0.179211
0.183247
0.18053
0.182991
0.184211
-0.188789
-0.135425
-0.347184
-0.411719
0.275281
0.414122
0.206183
0.208839
0.129488
0.0204672
0.0231903
0.016337
0.0139582
0.04535
0.0590942
0.0771626
0.0608502
0.0509137
0.0413253
0.0445356
0.0523109
0.0550603
0.172249
0.170303
0.176629
0.18354
0.134956
0.137583
0.109375
0.125262
0.11532
0.0599513
0.0903512
0.0698692
0.00895735
0.00865299
0.00645464
0.0232229
0.0278388
0.0146465
0.0118677
0.0150389
0.0124254
0.0112491
0.0185231
0.0211895
-0.51658
-0.597101
0.655579
0.582855
-0.546483
0.171798
0.178188
0.174846
0.180192
0.183233
0.183796
0.181527
0.178578
0.166535
0.168828
0.164476
0.164721
-0.447997
-0.585003
-0.408145
-0.474649
-0.205764
0.291255
0.0386209
-0.0206289
-0.0244734
0.184599
0.54532
0.359688
0.415593
0.440738
-0.699941
-0.300624
-0.630674
-0.0199524
-0.190103
0.348551
0.402672
0.427324
0.371911
0.319131
-0.460617
0.178507
-0.383649
-0.349617
-0.159851
-0.254434
0.393386
0.332523
0.340044
0.364717
0.387707
0.340128
0.321261
0.320556
0.356226
0.360895
0.152758
-0.0532431
-0.101231
-0.135745
0.316277
0.19564
0.250534
0.168773
0.170784
0.173805
0.172788
0.157252
0.162688
0.157706
0.16442
0.16666
0.176734
0.176121
0.17204
0.174625
-0.0850905
-0.0567574
-0.316053
-0.514742
-0.437459
-0.51241
-0.432445
-0.374984
-0.230598
-0.384313
-0.0255847
-0.562547
-0.599098
-0.526477
-0.642811
-0.480592
-0.513789
0.0798127
0.144008
0.119294
0.147244
0.180383
0.180698
0.0343989
0.0364736
0.0153489
0.0235163
0.0765143
0.0896905
0.100754
0.0388119
0.0396282
0.0249082
0.0242297
0.0290996
0.0150511
0.0230853
0.0380549
0.0218934
0.0239905
0.0279525
0.0314281
0.0364999
0.0394493
0.165036
0.167559
0.166383
0.179541
0.190289
0.204436
0.174532
0.151495
0.144276
0.146532
0.125528
0.132235
0.130248
0.139723
0.157954
0.164339
0.162449
0.164931
0.152171
0.15296
0.140085
0.143941
0.125941
0.108322
0.0977403
0.0182868
0.0120673
0.0151558
0.0161996
0.0115216
0.0133677
0.0391587
0.0315599
0.035845
0.0314003
0.0347593
0.0186087
0.0183444
-0.507977
-0.515035
-0.540113
-0.558589
-0.631836
0.53245
0.635396
0.468485
0.242232
0.193909
0.473873
0.630949
0.340537
0.382501
0.478298
0.139147
0.408987
0.17703
0.176851
0.174401
0.173946
0.17471
-0.356191
-0.259218
-0.249171
-0.198568
-0.0835054
0.0249916
-0.0397224
-0.138852
-0.00254581
0.027478
0.286466
0.30237
0.246423
0.271558
0.270037
0.0991147
0.174515
0.222662
0.183448
0.224295
0.244508
0.208915
0.236981
0.187173
0.147715
0.147414
0.0962395
0.11151
0.0911614
0.0765863
0.167969
0.147833
0.157304
0.149293
0.168894
0.197272
0.190787
0.214241
0.229735
0.157364
0.118305
0.127775
0.155853
0.116844
0.128961
0.142726
-0.171471
-0.270317
-0.190321
-0.457467
-0.357069
-0.373693
-0.416412
-0.399225
-0.120016
-0.803093
-0.764421
-1.4
0.114634
0.579684
0.345858
0.311429
0.383312
0.357724
0.357457
0.39224
0.40114
0.307973
0.324652
0.327502
0.282739
0.307996
0.334719
0.333701
0.155995
0.0457479
0.0335888
0.00192912
-0.12292
-0.0925983
0.118388
0.0412542
-0.033881
-0.027565
0.134909
0.0319201
0.0901434
0.127549
0.0614421
0.0193775
0.207052
0.277489
0.268158
0.239519
0.161487
0.175212
0.197912
0.229599
0.25743
0.296414
0.165793
0.168579
0.17064
0.169334
0.164769
0.167938
0.168102
0.17016
0.170778
0.173656
0.17288
0.00868799
0.005868
-0.0288292
-0.00723993
-0.128289
-0.163593
-0.20646
-0.201444
0.0104751
-0.0105333
-0.0841076
-0.0437302
-0.0232723
-0.0082162
0.0329037
0.0462709
-0.0651669
-0.0998077
-0.221744
0.0502422
0.0947546
-0.0511259
-0.21696
-0.106925
-0.0278061
0.0459484
0.0670373
0.060442
0.0628274
0.0607621
0.0314515
0.0276461
0.0273278
0.0329308
0.0325196
0.0250327
0.0229302
0.0247686
0.0252004
0.0245804
0.0238519
0.151749
0.146495
0.149066
0.143874
0.14277
0.154434
0.15777
0.159352
0.163981
0.165646
0.157318
0.161399
0.164765
0.0276046
0.0223913
0.0244674
0.0240693
0.0232275
0.0208195
0.0210476
-0.102364
-0.457455
-0.453154
-0.419083
-0.495822
-0.457655
0.142113
0.0808254
0.114935
0.277928
0.173212
0.0570941
0.118448
0.240659
-0.00936972
0.13933
-0.00200122
0.487196
0.360502
0.504878
0.189227
-0.132784
0.0114538
0.0596412
-0.132572
-0.0562757
-0.0269346
-0.141172
-0.108084
-0.0800561
0.0150963
-0.108725
-0.146801
-0.378038
-0.194041
-0.0677578
-0.0852117
0.0354966
0.0870755
-0.0941015
-0.19892
-0.233268
0.273598
0.294949
0.311478
0.283474
0.304441
0.233206
0.222949
0.24073
0.251123
0.245933
-1.13439
-0.844641
-1.7899
-1.10593
-0.650073
0.147231
0.102046
0.379455
0.281935
0.357944
0.341673
0.30836
0.274487
0.279117
0.314916
0.0289546
0.135999
0.112281
0.115038
0.0218564
-0.0405064
0.241853
0.235202
0.276391
0.300316
0.268122
0.301808
0.161345
0.161023
0.16401
0.160827
0.157128
0.15907
0.0185583
0.0240655
-0.0505131
-0.081046
-0.0948189
-0.0437714
0.0311969
0.0291836
0.025815
0.0258599
0.0296203
0.0320106
-0.152318
-0.206202
-0.353262
-0.229715
-0.35513
-0.441375
-0.450051
-0.375749
-0.254226
-0.263722
0.0136973
0.268878
0.124289
0.215729
-0.0458015
0.0315243
0.115507
0.0906969
0.120224
0.0188638
0.109893
-0.159343
-0.654098
-0.56284
0.39311
0.420045
0.210162
0.0212907
-0.200785
-0.0100692
0.188842
0.132681
0.172778
0.23735
0.235128
-0.368441
-0.298379
-0.0661511
0.155807
-0.166322
-0.170327
-0.191341
0.00025975
-0.0638413
)
;

boundaryField
{
    wall-4
    {
        type            zeroGradient;
    }
    velocity-inlet-5
    {
        type            zeroGradient;
    }
    velocity-inlet-6
    {
        type            zeroGradient;
    }
    pressure-outlet-7
    {
        type            fixedValue;
        value           uniform 0;
    }
    wall-8
    {
        type            zeroGradient;
    }
    frontAndBackPlanes
    {
        type            empty;
    }
}


// ************************************************************************* //
