/*--------------------------------*- C++ -*----------------------------------*\
  =========                 |
  \\      /  F ield         | OpenFOAM: The Open Source CFD Toolbox
   \\    /   O peration     | Website:  https://openfoam.org
    \\  /    A nd           | Version:  13
     \\/     M anipulation  |
\*---------------------------------------------------------------------------*/
FoamFile
{
    format      ascii;
    class       surfaceScalarField;
    location    "15";
    object      phi;
}
// * * * * * * * * * * * * * * * * * * * * * * * * * * * * * * * * * * * * * //

dimensions      [0 3 -1 0 0 0 0];

internalField   nonuniform List<scalar> 
1300
(
3.75095
5.62643
-6.14593
3.75095
-5.98006
5.62643
-4.51649
4.51649
-1.4167
1.4167
1.87686
1.87409
-3.74896
3.74896
-4.61981
4.61981
-2.77739
2.77739
-5.24635
5.24635
-5.06853
5.06853
4.68297
-4.68297
-4.87571
4.87571
-1.84091
1.84091
-3.71887
3.71887
3.1735
-3.1735
-4.95434
4.95434
-0.493344
0.493344
-0.553798
4.30475
3.19716
3.19716
-2.49742
2.49742
-4.85096
4.85096
6.21818
-6.21818
9.34375
-9.34375
-3.19781
-3.39958
1.33044
-8.13619
-4.64961
-4.64961
-8.44043
8.44043
-2.814
2.81243
2.92227
-2.92227
-1.72558
1.72558
-4.50098
-0.0155148
-4.50098
4.48182
0.0346704
4.48182
-1.52729
0.110587
-1.52729
4.08292
-4.08292
1.25048
0.166222
1.25048
3.06739
-3.06739
-1.87722
3.75408
1.87373
-1.87191
6.17666
-1.87904
3.75314
-5.04647
5.04647
-3.48499
-0.263974
-3.48499
4.07108
-0.322119
4.07108
-5.26237
5.26237
-4.5667
-0.0531093
-4.5667
4.67467
-0.0548595
4.67467
2.99829
-2.99829
-2.80854
0.0311508
-2.80854
2.72472
0.0526749
2.72472
0.353612
5.27282
-5.98004
8.79248
-5.27282
0.0264634
5.20842
0.0379316
5.20842
-5.10624
0.037718
-5.10624
5.00999
0.0585364
5.00999
4.77614
-0.0931748
4.77614
-4.79721
0.11424
-4.79721
-3.3248
-3.40702
-4.97755
0.101841
-4.97755
-1.89408
0.0531712
-1.89408
1.79078
0.0501224
1.79078
-3.52496
3.52496
-4.09343
0.37456
-4.09343
3.12906
0.0444435
3.12906
1.86859
1.88236
5.61955
-5.61955
2.44605
-4.89262
-0.0617269
-4.89262
-5.02247
-4.32128
5.02247
-0.0681233
-0.805111
0.311766
-0.805111
3.15861
0.0385437
3.15861
2.65381
0.0709042
-2.65381
0.156389
3.40701
-3.40701
1.8506
0.646826
1.8506
-5.57117
5.57117
4.94919
0.0608039
-4.94919
0.098225
6.1575
0.0606877
6.1575
-6.19959
-0.0185935
-6.19959
3.37553
-6.77511
-3.40858
4.76838
0.107328
-4.76838
0.118768
2.9094
0.0128727
2.9094
-2.90199
2.90199
-2.96921
0.0469416
-2.96921
-2.15851
0.432935
-2.15851
1.38827
0.33731
1.38827
-4.38685
-0.11412
-4.38685
-4.38081
0.287374
4.38081
0.101014
0.875737
-0.875737
-1.63612
0.108827
-1.63612
-4.22912
-0.157732
4.22912
-0.146201
-3.96563
-0.117287
-3.96563
-3.02266
0.0534454
3.02266
0.0447338
3.1126
0.046008
-3.1126
0.0452105
-1.87098
3.75333
-1.87998
3.75371
-4.82836
-0.218113
-4.82836
5.18529
-0.138814
5.18529
3.46171
0.257166
-3.46171
-0.0232819
4.32566
-0.25458
4.32566
-5.31165
0.049279
-5.31165
5.20405
0.058328
5.20405
4.47362
-0.14796
-4.47362
-0.0930752
4.74128
-0.0666122
4.74128
3.04885
-0.0505683
3.04885
-2.96029
-0.0379923
-2.96029
2.83128
-2.83128
2.82898
0.00229466
-2.82898
0.0204399
-11.1326
11.114
-0.0349261
-11.0977
5.1735
5.1735
4.20312
0.573029
4.20312
-5.00931
0.212097
-5.00931
3.32575
-6.73433
3.40133
-6.72613
3.39763
-11.5338
3.34357
-6.75059
5.13031
-5.13031
5.06535
0.0649602
-5.06535
0.0878029
-1.90251
0.00843159
-1.90251
-2.93118
-0.593778
-2.93118
3.97006
-0.445103
3.97006
-3.02863
3.02863
-3.08247
0.0538317
3.08247
0.0465919
4.8164
-0.0751209
-4.8164
-0.0762192
1.04772
0.202764
-1.04772
0.242606
3.59899
-0.191982
3.59899
-3.23307
-0.173939
-3.23307
-1.86412
-0.0383848
1.86412
-0.0135271
-5.81728
0.246114
-5.81728
-11.1908
0.0930605
-11.1528
-6.10653
-6.10653
2.3339
11.1264
-2.92704
-0.0332542
2.92704
-0.0176396
2.96922
0.0594154
-2.96922
0.0672309
-2.85158
0.0202992
2.85158
0.0504117
-2.55749
0.398977
-2.55749
-0.970812
0.970812
-1.14319
0.172379
1.14319
0.245075
1.14039
-0.264657
1.14039
1.72155
0.0692353
-1.72155
0.0854334
-3.86154
-0.104097
-3.86154
5.28617
-0.100884
5.28617
-3.12032
-0.112752
3.12032
-0.0714674
-0.0332742
11.1473
-5.14022
0.033978
5.14022
-11.208
11.242
-3.24295
0.68546
3.24295
0.960167
5.29671
0.274455
-5.29671
0.287407
5.16935
0.0346928
-5.16935
0.0390385
-2.42561
-0.505568
-2.42561
-4.46872
-0.359637
4.46872
-0.498662
-11.475
-0.203493
11.6784
-11.4164
6.02078
0.136721
-6.02078
11.3787
-0.853204
-0.0225325
0.853204
0.117608
1.46342
-0.323029
1.46342
3.76189
-0.162899
-3.76189
-0.0996443
-5.32766
0.0160043
5.32766
-0.0414862
-1.91264
-0.512973
1.91264
-0.449215
-4.26651
4.30506
1.91015
-3.35114
-3.42397
-7.67242
1.85117
1.90216
4.29722
-7.12771
-4.40612
-7.00894
7.27564
-6.98823
-9.30066
9.20749
7.44206
-7.55935
-5.77671
5.8233
6.48008
-6.43535
1.87933
1.87475
7.49576
-7.75974
-13.8358
13.6176
9.93425
-9.98736
11.3844
-11.3351
-12.733
12.7676
-5.75155
5.7827
-6.62145
6.58346
-6.7952
6.72374
-3.28714
-3.43899
9.20444
-9.1026
11.725
-11.7868
-7.24341
7.61797
3.38388
0.921175
3.42989
-1.88137
3.7607
-1.87177
3.78192
3.40773
-6.69487
3.3266
-6.75056
6.08183
5.6432
-6.01371
-1.65871
-5.84798
5.86085
-5.83028
5.88069
8.94262
-8.95813
-1.88548
3.76023
-1.86822
3.77039
-3.42213
-2.35458
3.37769
0.919532
5.63561
3.56883
-5.74294
-1.266
-7.64568
7.48278
-7.94889
7.77495
-0.459096
5.82891
-5.36982
4.39186
-1.55694
7.38586
5.71869
5.93079
5.86863
-5.59417
1.1196
-6.48942
-6.39119
-2.68894
2.79776
2.67267
-2.50645
5.87144
1.57062
5.72524
-5.45616
-2.10319
-5.56025
3.81448
2.00883
3.86831
4.04435
2.43574
4.09779
3.02901
-3.03676
0.00774957
-3.05881
6.08782
0.72347
-5.41339
-4.49386
5.56242
1.93334
5.2403
-4.69279
-3.06695
-4.71607
-8.91959
-4.91616
-9.27923
8.21154
5.40609
8.07273
-8.9011
8.85961
6.68425
3.25
6.62939
-6.36514
-3.62222
-6.45822
10.5774
-2.28916
-8.28829
-7.26745
-5.4655
7.20913
4.17526
7.71027
5.05737
7.74931
3.45367
7.12378
-7.62893
2.16342
-3.84917
-1.90238
-3.82873
3.74302
2.03968
3.7957
-4.12782
-2.49363
-4.16107
-4.19762
-2.59758
4.24819
2.33527
-4.30872
-3.64017
4.42148
2.30226
3.11321
-7.51933
3.63738
-7.07637
-6.42493
-2.67767
-6.33712
4.16698
2.60681
-6.77379
-2.52789
10.9372
-5.29396
9.27846
-7.25676
-4.53
-7.33298
-6.44445
-0.798966
-6.15707
-8.92338
8.41781
-9.10338
8.65828
14.137
-7.09113
-7.04585
-3.97038
-2.46497
3.92517
-0.495283
-3.71082
3.71856
0.0498855
3.8318
4.75298
4.2577
-3.88596
-1.94432
-3.81873
3.85617
2.02452
3.87647
6.68065
2.26197
6.71532
-6.43918
-2.51896
-6.5533
9.09973
-8.66679
2.92534
-2.96372
5.19279
2.58216
-5.00081
-2.64487
6.01538
-3.03879
-2.97659
-12.2415
10.5944
1.64713
-4.85563
-0.463762
0.0295822
-5.51327
-3.78739
5.39903
0.531758
11.1261
7.33872
-5.51467
5.76078
6.16378
6.22458
-0.166609
5.85772
-5.17226
5.20139
-2.22932
-2.97207
5.26634
-5.42407
-1.28695
-5.25543
3.96847
0.301164
1.89512
-1.58336
-2.092
-0.596934
-2.00657
1.61404
1.05862
1.81681
0.965636
1.83213
-2.98037
0.563732
2.41664
-2.01473
-1.94271
-3.5739
-0.899418
4.47332
5.46933
2.01345
-5.36969
-0.190565
2.73555
-2.68543
-0.835595
-2.73831
1.96887
-2.80447
-3.50498
-1.76385
5.26882
-3.37039
-0.448332
3.31098
0.55733
-3.77674
-2.07124
3.7298
0.367996
-3.13838
6.2515
-3.11313
-5.08269
2.53251
3.55531
4.54134
-4.7947
2.43813
2.35656
-1.23939
5.17609
0.0642178
4.92151
-6.29216
3.22521
4.67807
2.9399
-4.93524
0.219172
-6.07299
10.948
-7.85309
-3.0949
7.22404
3.72395
7.7176
6.41938
-6.15428
13.8719
0.183922
-8.03701
5.88906
-2.94917
5.30774
-8.25691
-11.7271
3.69012
-8.76639
9.26552
-0.49913
-2.4382
-6.4629
11.2046
-1.50894
-9.69565
6.56379
-5.70775
-5.02734
10.7351
-7.99691
8.64955
-3.12667
-5.52288
-7.31443
-4.02068
7.29843
1.56119
-9.91772
12.0811
-2.79394
5.85599
0.773396
5.78938
4.53613
-6.01839
1.48226
3.46077
-6.58745
3.90493
-9.92332
-4.97582
9.68607
-4.71024
-7.65349
-6.87678
-0.776717
2.01049
10.0706
-7.06787
5.39963
1.66824
3.34876
0.527705
-3.35106
-0.477678
0.353261
4.45194
-4.8052
4.14896
4.21986
3.37952
1.07242
3.80689
2.05396
-3.78925
-0.371825
-4.04093
1.44334
-1.70566
-3.56736
5.0107
-3.99091
0.423552
-2.66062
-3.5086
6.16922
-4.56299
3.09148
3.16002
5.116
-4.87643
1.36782
-2.41137
-2.46505
2.62309
-4.32875
1.91574
3.09496
4.218
0.57783
4.93977
4.74629
-7.54658
0.470213
8.31512
-7.04912
1.74153
6.00779
-7.14115
0.264376
-6.07275
1.08321
-6.37717
-5.69059
5.49202
-6.29098
-2.76489
5.97897
0.736348
-6.07998
-0.077089
-5.95106
-2.97231
-6.46403
-2.98006
-6.12332
-9.13433
-1.70071
-7.43363
6.7171
-6.5634
-2.71582
7.06207
1.59621
-7.2532
7.23066
-7.34978
7.02675
0.0949368
3.62363
4.35263
1.88767
-2.38424
4.2719
-4.98419
7.24617
-8.42568
3.44149
4.01113
-6.53009
-4.41455
4.99109
4.10864
5.3284
8.83332
-10.7322
1.89888
-10.8525
12.1534
-1.3009
-16.5673
5.71483
-7.73402
2.68044
0.244899
2.68887
0.674484
2.38657
-3.06105
-2.28924
-2.30276
-2.26521
-3.27848
5.54369
1.1362
-3.32715
2.19095
-3.40676
4.54296
-0.121627
-3.20552
5.18589
-2.79932
5.43079
-3.52839
1.9024
3.21606
5.47074
-2.25468
4.18304
-1.60088
1.74031
-3.99499
-1.53817
-2.98293
5.02261
-3.18629
3.60984
-0.217407
3.82725
-4.00729
0.968502
-0.627764
3.5921
3.74849
4.09951
-3.0271
2.87207
-4.47295
-1.12292
-3.89512
-0.800155
-0.364842
-3.6911
4.05594
6.0853
-6.45015
-5.34827
9.66201
-4.31374
7.75836
-5.43582
-2.32255
-4.28503
-4.38177
3.88605
1.97167
9.73003
0.201502
-5.63732
-4.97076
-4.01059
3.19808
2.00331
-2.07469
3.72182
2.04511
-0.149988
0.636212
1.1806
1.89827
-1.26206
0.160154
1.73811
-1.4232
2.02405
0.711507
-2.09328
0.0867121
-1.41086
3.37973
1.00578
-2.0644
0.802343
1.12895
-3.35828
4.66596
-2.31702
-2.34894
5.79491
1.19767
-3.51469
4.05776
-3.75659
2.28145
-3.18087
-1.23325
-4.98984
-3.41922
-2.43431
4.62526
-3.10938
5.12283
1.12028
-4.93227
6.05255
-3.46697
1.70312
-3.035
3.74651
-1.07599
-1.95901
2.66911
2.59971
-2.78932
0.0510167
-0.120209
2.25362
-2.37383
-0.550842
-2.56557
-4.54413
4.91212
-2.16351
4.60164
2.10839
-1.92421
6.52585
1.81726
-3.74147
-3.26544
-3.71377
-1.3849
3.15644
-1.23876
-5.21946
-6.76163
5.36742
-0.445913
-7.31973
9.82584
-2.50612
-5.38639
2.16118
5.06286
-7.97475
1.38731
-4.06982
5.75602
5.82024
5.37433
-10.9089
1.21322
-5.50277
2.92855
-8.43132
6.6525
-4.75002
8.44014
-10.7181
8.00224
-9.12185
5.34524
-3.08608
5.60001
-4.11776
2.68828
-6.70895
-5.14777
6.97212
-3.72212
7.74552
-4.21903
11.9645
-7.01296
7.01658
4.94797
-1.46908
-5.8639
-6.86694
5.39786
0.149642
5.93902
4.94823
-2.89426
4.5764
2.24598
-4.65735
-2.08277
-6.51937
1.86202
-3.35934
-1.89568
3.7577
3.22032
3.74802
1.29265
-3.27034
6.80774
-7.58446
-2.0975
-3.59309
6.78887
-1.39101
4.11831
-7.71139
-2.25887
4.80971
-0.146173
-4.66354
2.28142
-5.04631
1.03738
-6.08369
5.2536
-5.33069
2.16768
-9.9017
-5.08552
-4.96791
-2.25869
-5.0911
-7.58974
5.33105
-1.87491
5.35575
-8.60657
8.4604
-3.54684
8.87789
-5.33429
-1.12974
5.78351
1.24324
10.1211
0.178225
-4.59277
-1.8386
3.89665
-2.05805
1.35948
-3.51287
0.383783
2.50014
3.29478
-6.46861
-0.0614814
-4.65425
-3.88542
7.99406
5.77659
11.8619
1.12969
9.24257
-1.24851
10.3723
4.07989
4.32497
-2.87931
4.7782
1.17662
4.61811
-0.852082
2.75448
1.83679
1.88996
0.795474
2.28937
1.45912
3.25787
0.196819
-2.10594
4.65826
-8.66885
-0.979064
-8.09582
1.11167
5.73193
-4.62026
3.1152
-1.11189
1.05715
0.256283
-1.82052
1.56424
-2.71578
-1.97051
-0.232398
-1.51215
2.31449
1.86758
-2.0821
-0.633688
0.258522
-3.67774
2.92234
-2.87133
-0.271618
5.78093
-2.72456
0.350724
-1.02144
-2.21485
-2.81178
2.72507
6.25449
0.271358
3.14136
5.18348
3.11224
0.21798
6.35125
-6.85038
-3.57207
-5.63716
1.01533
6.07819
2.14787
7.92277
7.09584
5.70484
-2.00656
-9.59101
6.85601
-2.07781
5.55511
-0.89157
-5.19212
4.89668
2.34949
-5.63303
0.302337
-4.88979
-6.9676
-0.223241
8.68364
-9.89789
8.76815
5.79584
1.63779
-4.30051
-0.667401
4.12813
0.19684
10.5691
-1.12214
-6.89264
8.01478
-4.60979
3.63073
0.945651
2.77617
2.50989
1.398
-5.49464
-10.1149
-1.76308
-1.5952
-4.11201
0.361307
-2.22889
6.28383
-2.65311
3.96128
5.36167
6.41882
-2.19458
-4.25556
6.50833
-2.54704
3.87178
)
;

boundaryField
{
    wall-4
    {
        type            calculated;
        value           uniform 0;
    }
    velocity-inlet-5
    {
        type            calculated;
        value           uniform -3.75095;
    }
    velocity-inlet-6
    {
        type            calculated;
        value           uniform -5.62643;
    }
    pressure-outlet-7
    {
        type            calculated;
        value           nonuniform List<scalar> 8(6.14593 5.98006 6.59739 6.80575 6.73182 6.78411 6.72708 6.7412);
    }
    wall-8
    {
        type            calculated;
        value           uniform 0;
    }
    frontAndBackPlanes
    {
        type            empty;
    }
}


// ************************************************************************* //
