/*--------------------------------*- C++ -*----------------------------------*\
  =========                 |
  \\      /  F ield         | OpenFOAM: The Open Source CFD Toolbox
   \\    /   O peration     | Website:  https://openfoam.org
    \\  /    A nd           | Version:  13
     \\/     M anipulation  |
\*---------------------------------------------------------------------------*/
FoamFile
{
    format      ascii;
    class       volScalarField;
    location    "0.002";
    object      mag(U);
}
// * * * * * * * * * * * * * * * * * * * * * * * * * * * * * * * * * * * * * //

dimensions      [0 1 -1 0 0 0 0];

internalField   nonuniform List<scalar> 
1000
(
4.31784e-13
1.31286e-14
1.28368e-13
2.26103e-13
1.3041e-12
4.52206e-14
1.25451e-13
3.86563e-13
9.08789e-13
3.66141e-13
6.3163e-13
4.18655e-13
3.06333e-13
4.30325e-13
1.20491e-12
3.18003e-13
5.64528e-13
1.02111e-12
1.23992e-13
1.70671e-13
1.51708e-13
5.45565e-13
2.04222e-13
8.81073e-13
1.04299e-12
1.13781e-13
4.63876e-13
5.54317e-13
1.1203e-12
9.77349e-14
3.61765e-13
5.74739e-13
8.56274e-13
4.30325e-13
2.80076e-13
5.38271e-13
1.27347e-12
1.39163e-12
6.72474e-13
2.61113e-13
8.6065e-13
5.64528e-13
8.67944e-13
1.23992e-13
1.70671e-13
1.51708e-13
5.45565e-13
2.04222e-13
8.81073e-13
1.04299e-12
1.13781e-13
4.63876e-13
5.54317e-13
1.1203e-12
9.77349e-14
3.61765e-13
5.74739e-13
8.56274e-13
4.30325e-13
2.80076e-13
5.38271e-13
1.28076e-12
1.40767e-12
6.09749e-13
2.61113e-13
9.08789e-13
5.82033e-13
9.33587e-14
1.2866e-12
6.66639e-13
4.37619e-15
7.01649e-13
1.89635e-13
3.29673e-13
8.32935e-13
5.48482e-13
2.18809e-13
3.96774e-13
4.14279e-13
1.17428e-12
7.61457e-13
2.85911e-13
1.45873e-14
1.37266e-12
7.96466e-13
1.5127e-12
1.36099e-12
1.90364e-12
4.93051e-13
1.16844e-12
4.4783e-13
1.61044e-12
3.5593e-13
6.41841e-14
9.62762e-13
1.03862e-12
7.0019e-13
5.25143e-14
1.37121e-13
9.65679e-13
9.20458e-13
6.03914e-13
4.68252e-13
7.61457e-13
5.73281e-13
2.08744e-12
1.05904e-12
2.06556e-12
8.51898e-13
1.58272e-12
3.25297e-13
2.17642e-12
1.61335e-12
6.03914e-13
5.00344e-13
2.20268e-13
4.3616e-13
7.17695e-13
2.26103e-13
1.82195e-12
5.92244e-13
9.72973e-13
1.95616e-12
2.08452e-12
2.05681e-13
1.12468e-12
7.61457e-13
7.87714e-14
3.42801e-13
1.22533e-13
8.34393e-13
3.20921e-13
6.36006e-13
1.55501e-12
1.02111e-12
7.41035e-13
4.06986e-13
1.54334e-12
7.59998e-13
1.46456e-12
2.94663e-13
5.80574e-13
9.19e-14
1.42955e-13
3.9094e-13
1.88176e-12
1.64107e-12
1.91677e-12
1.53167e-13
1.23409e-12
3.63224e-13
1.31723e-12
7.78962e-13
6.76851e-13
8.21265e-13
8.50439e-13
2.05681e-13
1.45873e-13
2.05389e-12
9.90477e-13
8.91284e-13
6.09749e-13
7.78962e-13
6.68098e-13
1.45435e-12
1.0284e-12
1.58272e-12
1.44852e-12
8.46063e-14
7.87714e-14
8.69403e-13
8.05219e-13
2.06702e-12
1.60023e-12
3.03416e-13
1.24576e-12
1.75485e-12
1.11301e-12
7.95008e-13
7.58539e-13
7.20612e-13
3.57389e-13
1.98387e-13
1.59439e-12
1.4281e-12
2.55278e-13
9.0733e-13
2.43608e-13
4.15738e-13
1.27493e-12
2.48276e-12
7.77503e-13
1.27639e-12
3.01957e-13
6.52052e-13
1.82487e-12
1.02111e-12
3.42801e-13
4.39078e-13
4.46371e-13
8.54816e-13
1.47332e-12
7.20612e-13
6.71016e-14
1.42226e-12
1.96199e-12
1.38288e-12
1.49957e-12
2.34855e-13
1.02111e-14
1.57543e-12
3.77811e-13
1.04737e-12
1.18449e-12
7.1186e-13
5.83492e-14
5.33895e-13
2.15746e-12
1.20929e-12
5.60152e-13
1.64836e-13
1.07508e-12
1.50249e-13
1.76652e-12
1.46165e-12
1.66295e-13
3.06333e-13
3.64682e-14
1.69213e-13
4.98886e-13
2.77159e-14
9.54009e-13
1.84383e-12
2.02763e-13
2.24644e-13
1.50541e-12
5.48482e-13
3.61765e-13
2.58195e-13
2.59216e-12
6.18501e-13
7.1186e-13
1.01819e-12
3.82187e-13
8.05219e-13
1.22096e-12
1.66003e-12
8.47522e-13
1.9474e-12
5.67446e-13
3.64682e-14
5.30978e-13
7.57081e-13
1.55355e-12
7.26447e-13
1.06779e-12
1.41643e-12
2.9904e-13
9.6422e-13
1.85696e-12
1.88176e-12
1.79715e-12
1.3114e-12
1.37121e-13
3.06333e-14
7.0019e-14
6.28712e-13
3.61765e-13
1.85259e-13
1.25159e-12
1.54188e-12
3.03416e-13
5.79116e-13
6.92897e-13
1.01965e-12
1.22533e-13
4.37619e-14
1.396e-12
2.08598e-13
1.66587e-12
1.51562e-12
1.21366e-12
1.55209e-12
9.86101e-13
4.85757e-13
4.20114e-13
1.26618e-12
9.93395e-13
7.2353e-13
3.676e-13
2.17351e-13
1.16552e-12
2.6899e-12
1.55938e-12
1.98241e-12
3.7927e-14
3.01957e-13
1.33911e-12
6.47676e-13
1.64253e-12
1.98971e-12
2.17059e-12
4.66793e-14
2.36314e-13
5.57235e-13
1.63378e-13
1.49957e-12
1.06487e-12
2.08598e-13
2.53819e-13
5.70363e-13
3.42801e-13
4.66793e-14
1.0109e-12
2.27562e-13
8.12512e-13
9.26293e-13
1.23992e-13
7.73127e-14
2.15163e-12
2.97581e-13
9.14623e-13
9.68596e-13
5.71822e-13
1.76798e-12
3.57389e-13
1.19616e-12
1.26034e-12
7.45411e-13
2.36314e-13
1.32599e-12
1.37996e-12
1.68192e-12
7.06025e-13
3.50095e-13
2.2727e-12
3.70517e-13
1.03862e-12
5.42647e-13
1.75048e-13
3.82187e-13
1.26764e-12
1.11301e-12
1.04007e-12
1.16698e-14
1.55063e-12
1.18157e-13
6.85603e-14
6.25795e-13
5.0472e-13
9.04412e-13
2.39232e-13
7.51246e-13
1.08092e-12
3.19462e-13
9.04412e-13
8.73779e-13
2.04368e-12
1.82341e-12
1.07362e-12
2.01305e-13
1.42518e-12
5.514e-13
1.24576e-12
6.71016e-14
1.52583e-12
1.57397e-12
9.72973e-13
1.00652e-13
2.26103e-13
3.25297e-13
1.50687e-12
5.87868e-13
1.18741e-12
2.23186e-13
3.58847e-13
1.40038e-12
1.50249e-12
1.04737e-12
5.77657e-13
1.08092e-12
1.62211e-12
1.6046e-14
1.1947e-12
1.27785e-12
4.55999e-12
1.60635e-11
4.90337e-11
1.38948e-10
3.86626e-10
1.05365e-09
2.84249e-09
7.55693e-09
1.98216e-08
5.12817e-08
1.30835e-07
3.29072e-07
8.15706e-07
1.99211e-06
4.79159e-06
1.1347e-05
2.64452e-05
6.06324e-05
0.000136698
0.000302914
0.00065941
0.0014094
0.00295593
0.00607934
0.0122519
0.0241759
0.0466651
0.088016
0.162005
0.290536
0.50662
0.85658
1.39846
2.188
3.25351
4.60044
6.23124
8.14035
10.3105
12.7171
15.332
18.1269
21.0754
24.1539
27.3423
30.6236
33.9837
37.411
40.8957
44.43
48.0071
51.6216
55.2689
58.9451
62.6467
66.3711
70.1159
73.8787
77.658
81.452
85.2592
89.0786
92.9088
96.7489
100.598
104.455
108.319
112.19
116.067
119.949
123.835
127.726
131.619
135.516
139.415
143.316
147.218
151.12
155.023
158.925
162.827
166.727
170.625
174.52
178.413
182.301
186.185
190.064
193.936
197.802
201.661
205.511
209.352
213.182
217.001
220.807
224.599
228.375
232.133
235.872
239.589
243.28
246.945
250.578
254.175
257.733
261.247
264.71
268.115
271.456
274.724
277.909
281
283.984
286.848
289.577
292.153
294.556
296.767
298.785
299.762
299.765
299.711
299.588
299.39
299.108
298.741
298.291
297.772
297.199
296.588
295.957
295.334
294.758
294.243
293.79
293.465
293.305
293.25
293.249
293.28
293.327
293.376
293.404
293.41
293.412
293.419
293.432
293.451
293.471
293.488
293.502
293.516
293.523
293.526
293.535
293.549
293.562
293.572
293.585
293.603
293.629
293.666
293.71
293.765
293.839
293.939
294.055
294.177
294.293
294.389
294.44
294.409
294.268
294.014
293.687
293.383
293.217
293.232
293.353
293.463
293.518
293.521
293.518
293.535
293.554
293.559
293.543
293.52
293.513
293.514
293.51
293.5
293.489
293.471
293.441
293.409
293.38
293.346
293.305
293.244
293.148
293.038
292.936
292.835
292.717
292.559
292.384
292.218
292.045
291.798
291.459
291.109
290.763
290.38
289.889
289.148
288.169
287.033
285.63
283.637
280.502
275.919
269.521
259.54
241.322
200.629
112.511
26.0411
4.05133
0.60611
0.0890365
0.0130043
0.00189942
0.000277523
4.05444e-05
5.92356e-06
8.65351e-07
1.26404e-07
1.84608e-08
2.69346e-09
3.91222e-10
5.46631e-11
5.76491e-12
2.06848e-12
3.32153e-12
2.31063e-12
3.07063e-12
3.13627e-12
1.93865e-12
3.08668e-12
1.2866e-12
1.71109e-12
1.55647e-12
3.32591e-13
9.90479e-13
6.8998e-13
3.65704e-12
1.41497e-13
1.57543e-12
2.92038e-12
9.10249e-13
1.84238e-12
1.26034e-12
2.47401e-12
1.78403e-12
2.67386e-12
7.1332e-13
6.0975e-13
2.72491e-12
1.43102e-12
3.95316e-13
1.02257e-12
1.12322e-13
3.47178e-12
7.97926e-13
1.87885e-12
9.02955e-13
1.92261e-12
1.39601e-12
1.40038e-13
7.73128e-14
5.32437e-13
1.51854e-12
2.32376e-12
1.63378e-13
1.87009e-12
5.35355e-13
1.58127e-12
1.37996e-12
1.37121e-12
6.53512e-13
6.02456e-13
4.41996e-13
2.34126e-12
1.44414e-13
8.44606e-13
1.31578e-12
9.26295e-13
5.19308e-13
3.69059e-13
1.22679e-12
6.25796e-13
8.41688e-13
2.59654e-12
1.43539e-12
1.4704e-12
8.78156e-13
5.58694e-13
5.07639e-13
2.36752e-12
1.04737e-12
4.21136e-12
9.94855e-13
6.72475e-13
2.66073e-12
1.48645e-12
1.95762e-12
2.49589e-12
3.02979e-12
7.78963e-13
3.15086e-13
1.0109e-12
1.59002e-13
1.98388e-13
9.35047e-13
1.73297e-12
7.87715e-14
1.04737e-12
3.58848e-13
4.78464e-13
9.02955e-13
3.47178e-13
8.83991e-13
2.50902e-13
1.15677e-12
1.90656e-12
1.68046e-12
7.45412e-13
5.6307e-13
3.56076e-12
2.0714e-12
3.17274e-12
1.50541e-12
1.49812e-12
1.5623e-12
2.21581e-12
1.89635e-14
8.75239e-13
6.56429e-14
9.23377e-13
1.09113e-12
6.92898e-13
8.88368e-13
1.10864e-13
3.58848e-13
3.88023e-13
1.40476e-12
3.16545e-13
7.46871e-13
1.19178e-12
1.17574e-12
1.03716e-12
1.48791e-13
2.02326e-12
1.30994e-12
6.38924e-13
1.04591e-12
9.78809e-13
1.72568e-12
8.9712e-13
1.69796e-12
1.05029e-12
2.14725e-12
4.3762e-14
2.47693e-12
2.26012e-27
4.36161e-13
6.30313e-27
1.01528e-12
1.28514e-12
1.70672e-13
3.26756e-13
1.38871e-12
4.78464e-13
9.8902e-13
1.73589e-13
2.61113e-13
1.49374e-12
4.56583e-13
9.17542e-13
1.16699e-12
8.13972e-13
7.39577e-13
2.02764e-13
1.35224e-12
4.28867e-13
1.39746e-12
1.41643e-12
1.07946e-13
7.20613e-13
1.35516e-12
1.27056e-12
6.22878e-13
6.03915e-13
5.83493e-13
1.64837e-13
1.37704e-12
2.12975e-13
4.90134e-13
1.68775e-12
1.6615e-12
7.00191e-14
1.7534e-12
1.13781e-12
3.54472e-13
1.22096e-12
2.88829e-13
3.3405e-13
2.74242e-13
1.84821e-12
1.45727e-12
5.23685e-13
1.74318e-12
4.40537e-13
5.39731e-14
8.48982e-13
1.91094e-12
5.55777e-13
1.15094e-12
8.78156e-13
1.36537e-12
2.47984e-14
2.47984e-14
2.59753e-34
1.22533e-13
1.41497e-13
1.95324e-12
1.96929e-13
9.33588e-13
1.53459e-12
6.75393e-13
8.67945e-13
2.45942e-12
4.2595e-13
1.4208e-12
8.53358e-13
1.6542e-12
2.71908e-12
5.7474e-13
1.76507e-12
4.52207e-13
1.43247e-12
3.09251e-13
1.66879e-12
1.02111e-14
1.19178e-12
2.47984e-14
2.47984e-14
2.59753e-34
1.22533e-13
1.41497e-13
1.95324e-12
1.96929e-13
9.33588e-13
1.53459e-12
6.75393e-13
8.67945e-13
2.45942e-12
4.2595e-13
1.4208e-12
8.53358e-13
1.6542e-12
2.71908e-12
5.7474e-13
1.76507e-12
4.52207e-13
1.43247e-12
3.09251e-13
1.66879e-12
1.02111e-14
1.19178e-12
2.47984e-14
2.47984e-14
2.59753e-34
1.22533e-13
1.41497e-13
1.95324e-12
1.96929e-13
9.33588e-13
1.53459e-12
6.75393e-13
8.67945e-13
2.45942e-12
4.2595e-13
1.4208e-12
8.53358e-13
1.6542e-12
2.71908e-12
5.7474e-13
1.76507e-12
4.52207e-13
1.43247e-12
3.09251e-13
1.66879e-12
1.02111e-14
1.19178e-12
2.47984e-14
2.47984e-14
4.74088e-13
1.50249e-13
6.72475e-13
6.12667e-13
1.92261e-12
1.30119e-12
4.53666e-13
5.00345e-13
1.86134e-12
2.23332e-12
1.00652e-12
3.11293e-12
1.07217e-12
2.37773e-12
3.16545e-13
3.676e-13
2.32376e-12
9.59845e-13
2.5309e-12
2.12245e-12
3.60453e-12
1.72568e-12
1.0532e-12
3.80729e-13
1.45436e-12
1.00069e-12
4.62418e-13
2.8241e-12
1.4952e-12
1.67462e-12
6.54971e-13
3.58848e-13
3.63224e-13
1.4952e-12
1.20783e-12
2.41712e-12
2.00721e-12
1.00652e-13
2.29021e-13
3.82188e-13
1.46165e-12
2.59508e-12
3.52721e-12
2.22165e-12
3.82479e-12
2.14725e-12
3.04437e-12
3.9094e-13
7.95009e-13
1.94741e-12
8.18348e-13
8.67945e-13
2.35439e-12
7.67293e-13
1.7957e-12
4.12821e-13
1.97075e-12
1.43102e-12
2.04222e-13
1.50833e-12
1.93428e-12
5.12015e-13
2.16768e-12
1.59293e-12
2.08453e-12
1.08384e-12
7.51247e-13
1.10864e-13
8.35853e-13
2.91746e-15
2.33835e-12
3.12898e-12
6.11209e-13
2.37773e-13
1.70526e-12
1.44706e-12
3.06917e-12
4.08445e-13
5.49796e-12
4.80214e-12
5.01366e-12
3.73581e-12
5.17558e-12
4.18218e-12
1.80007e-12
4.69128e-12
2.13996e-12
4.09174e-12
4.11071e-12
5.01658e-12
3.62495e-12
2.63155e-12
3.91086e-12
4.45497e-12
4.16176e-12
3.45428e-12
3.16107e-12
4.38495e-12
5.25289e-12
4.44476e-12
4.436e-12
3.95316e-12
5.48629e-12
5.42356e-12
4.82111e-12
3.67163e-12
)
;

boundaryField
{
    sides
    {
        type            calculated;
        value           nonuniform List<scalar> 2(3.67163e-12 4.31784e-13);
    }
    empty
    {
        type            empty;
    }
}


// ************************************************************************* //
