/*--------------------------------*- C++ -*----------------------------------*\
  =========                 |
  \\      /  F ield         | OpenFOAM: The Open Source CFD Toolbox
   \\    /   O peration     | Website:  https://openfoam.org
    \\  /    A nd           | Version:  13
     \\/     M anipulation  |
\*---------------------------------------------------------------------------*/
FoamFile
{
    format      ascii;
    class       surfaceScalarField;
    location    "0.002";
    object      phi;
}
// * * * * * * * * * * * * * * * * * * * * * * * * * * * * * * * * * * * * * //

dimensions      [1 0 -1 0 0 0 0];

internalField   nonuniform List<scalar> 
999
(
9.30811e-13
-2.62901e-13
-7.03437e-13
1.99663e-12
2.82796e-12
3.05533e-13
-4.61853e-13
9.80549e-13
8.81073e-13
8.95284e-13
2.20268e-13
-1.35003e-13
1.27187e-12
3.59535e-12
2.91323e-12
-5.18696e-13
8.02913e-13
1.95399e-12
-6.46594e-13
-5.68434e-14
-7.88702e-13
-1.52056e-12
1.56319e-12
-4.12115e-13
-2.04636e-12
1.22213e-12
2.30926e-12
-1.24345e-12
-2.63611e-12
-8.45546e-13
-2.03215e-12
6.96332e-13
2.38032e-12
1.32871e-12
1.90425e-12
-1.81188e-12
4.61853e-13
3.48166e-12
1.15818e-12
-2.58638e-12
-2.57216e-12
4.90274e-13
1.66978e-12
-6.46594e-13
-5.68434e-14
-7.88702e-13
-1.52056e-12
1.56319e-12
-4.12115e-13
-2.04636e-12
1.22213e-12
2.30926e-12
-1.24345e-12
-2.63611e-12
-8.45546e-13
-2.03215e-12
6.96332e-13
2.38032e-12
1.32871e-12
1.90425e-12
-1.82609e-12
4.83169e-13
3.44613e-12
1.00187e-12
-2.62901e-12
-2.76401e-12
-1.5774e-12
-2.47979e-12
-1.32161e-12
1.4353e-12
1.24345e-12
1.19371e-12
-9.80549e-13
9.166e-13
2.69296e-12
1.62714e-12
1.15818e-12
1.42109e-12
3.67351e-12
3.37508e-12
1.1724e-12
-6.25278e-13
2.71427e-12
1.35714e-12
1.20082e-12
6.12488e-12
6.92069e-12
4.08562e-12
4.00746e-12
2.92744e-12
4.16378e-12
2.28795e-12
-8.3844e-13
1.89004e-12
3.82983e-12
8.52651e-13
-1.54898e-12
4.83169e-13
2.01084e-12
4.07141e-12
5.54223e-13
-2.15294e-12
6.53699e-13
2.57927e-12
5.47118e-12
5.91882e-12
6.83542e-12
5.30775e-12
5.32907e-12
3.45324e-12
5.22959e-12
7.8586e-12
4.28457e-12
2.01084e-12
1.60583e-12
1.15818e-12
-4.40536e-13
-1.92557e-12
-4.39115e-12
-5.21538e-12
-2.57927e-12
-6.58673e-12
-7.65255e-12
-4.69669e-12
-2.81375e-12
-3.46745e-12
-1.47793e-12
7.17648e-13
1.15818e-12
-1.75504e-12
-1.91847e-12
4.12115e-13
-1.46372e-12
-1.37135e-12
7.74492e-13
-2.65032e-12
-3.58824e-12
-4.8388e-12
-4.25615e-12
-2.47269e-12
-5.18696e-13
-1.08713e-12
6.11067e-13
8.81073e-13
4.85301e-12
7.3257e-12
6.68621e-12
4.44089e-12
2.54374e-12
3.26139e-12
-1.65556e-12
-1.1795e-12
1.35003e-13
-2.70717e-12
7.10543e-15
1.5703e-12
-2.41585e-13
-3.41771e-12
-2.42295e-12
2.91323e-13
-3.24007e-12
-2.92744e-12
-1.98952e-13
-1.4353e-12
-5.05906e-12
-5.62039e-12
-5.45697e-12
-3.23297e-12
4.83169e-13
1.67688e-12
3.68061e-12
5.35039e-12
8.06466e-12
3.1477e-12
-1.51346e-12
9.23706e-13
6.12488e-12
3.46745e-12
1.56319e-13
-3.51719e-12
-1.71241e-12
-3.69482e-13
3.09797e-12
6.49436e-12
3.26139e-12
-1.20792e-12
-1.84741e-12
-1.80478e-12
2.12452e-12
6.87095e-12
7.03437e-12
3.82272e-12
3.42482e-12
1.81188e-12
4.87432e-12
1.71951e-12
-2.73559e-12
-1.7053e-12
3.55271e-14
2.7498e-12
-1.49214e-12
-1.29319e-12
1.1724e-12
2.92033e-12
6.31672e-12
7.15517e-12
5.32907e-12
3.87956e-12
3.55271e-13
3.36797e-12
4.07141e-12
2.99138e-12
-3.76588e-13
-3.48166e-12
-1.74083e-12
1.09424e-12
4.99512e-12
2.23821e-12
-1.64135e-12
1.06581e-12
-2.89191e-12
-2.19558e-12
-4.24905e-12
-5.90461e-12
-3.12639e-12
1.56319e-13
1.03029e-12
-5.32907e-13
1.05871e-12
7.38964e-13
2.13163e-12
5.93303e-12
4.46931e-12
-1.13687e-13
-3.13349e-12
-2.12452e-12
2.84217e-13
-8.81073e-13
-6.65068e-12
-5.86198e-12
-2.65032e-12
7.03437e-13
1.01608e-12
-2.03215e-12
-4.24905e-12
-5.6275e-12
-5.19407e-12
-5.32907e-12
-5.27223e-12
-9.80549e-13
-1.13687e-12
6.03961e-13
-1.9682e-12
-1.27898e-12
-9.66338e-13
-4.5759e-12
-3.78719e-12
-2.19558e-12
-5.70566e-12
-7.62412e-12
-7.55307e-12
-5.90461e-12
-2.44427e-12
1.56319e-13
-1.63425e-13
1.15818e-12
2.089e-12
1.23634e-12
2.52953e-12
6.11777e-12
3.43903e-12
1.58451e-12
2.94165e-12
2.94875e-12
2.6148e-12
2.77112e-13
2.72138e-12
3.48166e-12
3.41061e-12
3.83693e-13
-5.8975e-13
-8.45546e-13
-8.45546e-13
7.4607e-13
-1.13687e-13
3.90799e-12
3.9293e-12
7.03437e-13
-9.02389e-13
4.33431e-13
-2.95586e-12
-7.56017e-12
-8.39862e-12
-7.56728e-12
-3.73035e-12
-6.25278e-13
-3.48166e-12
-3.55982e-12
-4.98801e-12
-6.87805e-12
-9.02389e-12
-3.9293e-12
2.70006e-13
-4.1922e-13
-1.89004e-12
2.8777e-12
1.03739e-12
-1.80478e-12
-1.20792e-13
6.11067e-13
1.97531e-12
6.39488e-13
2.33769e-12
2.4869e-12
-1.10134e-12
-3.19744e-12
-2.03215e-12
6.03961e-13
-3.95062e-12
-5.37881e-12
-2.20268e-12
-4.04299e-12
-6.32383e-13
-2.77822e-12
-2.38742e-12
-2.05347e-12
2.4869e-13
3.61666e-12
1.21503e-12
1.87583e-12
6.0183e-12
5.74119e-12
4.51195e-12
2.32347e-12
4.95959e-12
5.55644e-12
2.52953e-12
3.51719e-12
6.25278e-13
3.83693e-13
-1.99663e-12
-1.7053e-13
3.57403e-12
2.76401e-12
-3.75167e-12
-3.04823e-12
-4.9738e-14
-1.41398e-12
-2.01794e-12
-2.40874e-12
-2.79243e-12
-1.64846e-12
5.47118e-13
1.73372e-12
9.52127e-13
3.90799e-12
5.54934e-12
7.60991e-12
6.07514e-12
2.38032e-12
3.22586e-12
4.19931e-12
3.38929e-12
2.91323e-12
-3.21165e-12
1.35003e-13
1.10845e-12
-1.94689e-12
-8.02913e-13
2.77112e-13
3.41771e-12
1.98241e-12
-3.55271e-12
-3.09797e-12
3.12639e-13
3.74456e-12
5.42144e-12
5.6275e-12
2.79954e-12
3.6593e-12
-1.30029e-12
-2.72138e-12
-2.94875e-12
1.35003e-13
1.02744e-11
3.81561e-11
1.19194e-10
3.4634e-10
9.69131e-10
2.66044e-09
7.20959e-09
1.92735e-08
5.08259e-08
1.32219e-07
3.39228e-07
8.58143e-07
2.13978e-06
5.25759e-06
1.27253e-05
3.03291e-05
7.1155e-05
0.00016426
0.000372957
0.000832508
0.00182605
0.00393371
0.00831789
0.0172534
0.0350827
0.0698775
0.136219
0.259638
0.483317
0.877464
1.55102
2.66337
4.42953
7.10298
10.8864
15.7602
21.7053
28.7021
36.6626
45.4676
54.9778
65.0533
75.563
86.3913
97.4395
108.625
119.881
131.151
142.391
153.565
164.644
175.604
186.425
197.093
207.594
217.919
228.06
238.01
247.764
257.318
266.67
275.816
284.755
293.487
302.01
310.325
318.431
326.33
334.022
341.508
348.789
355.866
362.742
369.417
375.894
382.173
388.258
394.15
399.851
405.363
410.689
415.83
420.789
425.569
430.17
434.597
438.85
442.933
446.848
450.597
454.183
457.609
460.875
463.986
466.943
469.749
472.406
474.917
477.284
479.51
481.595
483.544
485.359
487.042
488.592
490.016
491.318
492.497
493.552
494.491
495.323
496.047
496.656
497.158
497.577
497.915
498.155
498.297
498.384
498.441
498.442
498.341
498.25
498.191
498.171
498.151
498.08
497.978
497.938
498.014
498.065
497.912
497.702
497.789
498.297
498.365
497.883
498.188
498.009
497.914
497.911
497.909
497.9
497.743
497.386
497.291
497.323
497.363
497.396
497.388
497.323
497.244
497.259
497.259
496.799
496.645
496.516
496.355
495.978
495.64
495.379
495.137
495.03
494.741
494.069
493.089
491.546
488.945
484.193
476.672
465.55
450.388
430.867
407.436
381.994
357.281
336.384
322.046
314.177
311.358
310.046
309.637
309.152
308.881
309.079
309.58
309.942
310.256
310.234
310.399
310.593
310.709
310.738
310.77
310.845
310.703
310.624
310.655
310.703
310.775
310.891
310.609
310.211
310.212
310.276
310.403
310.19
309.801
309.894
310.112
310.285
308.865
308.25
308.282
308.45
308.855
308.071
305.218
304.691
304.835
305.051
301.887
292.518
287.065
282.609
269.936
238.385
171.132
34.3158
6.44419
0.966609
0.141819
0.020755
0.00303087
0.000442682
6.4679e-05
9.44952e-06
1.38054e-06
2.01674e-07
2.94579e-08
4.30152e-09
6.27119e-10
9.05551e-11
1.21845e-11
6.71907e-13
-1.54809e-12
-1.3638e-12
-1.26521e-12
-1.54587e-12
-1.32072e-12
-1.23679e-12
-1.03562e-12
-8.2645e-13
-7.84262e-13
-5.20473e-13
-2.77112e-13
-1.07914e-13
1.16485e-12
8.77076e-13
3.40172e-13
1.15419e-12
9.13047e-13
7.1676e-13
7.1898e-13
1.04938e-12
9.57456e-13
1.18172e-12
7.73159e-13
3.97904e-13
7.46958e-13
1.06937e-12
5.21361e-13
-2.23377e-13
-2.03393e-13
-1.04139e-12
-6.29274e-13
6.75016e-13
7.52731e-13
-3.04645e-13
-8.9706e-14
2.24709e-13
1.19904e-14
-1.49658e-13
-5.28022e-13
-9.86766e-13
-6.02185e-13
-5.37348e-13
-5.32463e-13
2.25153e-13
6.79901e-13
7.67386e-13
4.72067e-13
2.94431e-13
3.10862e-14
4.31211e-13
6.95444e-13
2.36255e-13
4.86278e-13
6.18172e-13
8.34888e-14
-3.95239e-14
-1.93179e-13
-1.65201e-13
-7.63833e-14
5.14699e-13
2.42473e-13
1.55431e-14
1.64313e-13
-4.14779e-13
-2.66454e-15
6.54143e-13
8.50875e-13
1.26255e-12
1.31894e-12
1.03029e-13
-8.11351e-13
-1.13953e-12
-7.37188e-13
-1.27942e-12
-1.22036e-12
-1.08447e-12
-9.10383e-14
-2.0961e-13
-1.7053e-13
6.35048e-14
-1.45661e-13
1.61648e-13
4.76508e-13
-3.25073e-13
-3.19744e-13
2.17604e-14
-9.59233e-14
-3.28626e-13
-2.75335e-13
-3.28626e-13
-3.6593e-13
2.22933e-13
9.69447e-13
4.70735e-13
7.37188e-14
-8.73968e-13
-4.96492e-13
-2.28706e-13
-4.55636e-13
1.06581e-14
2.22045e-15
1.09246e-12
4.36984e-13
3.03757e-13
1.47882e-13
-1.96287e-13
2.84217e-14
1.17684e-13
-4.20108e-13
-1.83853e-13
1.0747e-13
-6.21725e-15
2.78444e-13
2.36255e-13
1.35003e-13
-1.40332e-13
-5.27134e-13
-5.24025e-14
3.24185e-13
5.02709e-13
9.20153e-13
4.32543e-13
4.66294e-13
4.10783e-13
-1.2701e-13
-1.61204e-13
-2.90434e-13
-6.10179e-13
-7.06102e-13
-6.31051e-13
-5.79981e-13
-6.15508e-13
-9.9476e-14
-1.1191e-13
-2.23821e-13
-6.55476e-13
-2.33591e-13
1.55875e-13
3.44613e-13
2.95763e-13
1.07025e-13
2.55795e-13
-5.77316e-15
-2.30038e-13
-5.71543e-13
1.39444e-13
5.22693e-13
7.10543e-14
-1.15463e-14
1.20792e-13
2.66898e-13
5.19584e-13
3.57048e-13
2.84217e-14
-4.84501e-13
-1.62093e-13
1.2168e-13
4.13003e-14
-1.95399e-13
9.32587e-15
-3.55271e-15
1.5099e-13
-2.53131e-13
-3.09974e-13
1.40332e-13
6.27942e-13
4.44089e-15
-5.20473e-13
-3.71259e-13
-8.21565e-13
-1.58096e-13
3.3662e-13
2.70006e-13
1.73195e-14
7.10543e-15
4.21885e-13
8.43769e-13
5.61329e-13
-3.61489e-13
-3.33067e-13
1.53655e-13
1.94511e-13
-2.24265e-13
-3.81917e-13
-1.43885e-13
-7.10543e-14
-1.0969e-13
-3.29958e-13
-4.44089e-16
-4.44089e-15
2.70894e-14
7.37188e-14
4.94715e-13
4.38316e-13
1.84741e-13
-1.54543e-13
-2.28262e-13
4.17444e-13
7.70051e-13
7.72715e-13
4.42757e-13
1.43441e-13
1.83853e-13
-2.36255e-13
-5.90195e-13
-2.57572e-13
-3.81917e-13
-2.06501e-13
-4.65405e-13
-5.10703e-13
-4.35207e-13
-2.80664e-13
-2.83773e-13
-4.44089e-16
-4.44089e-15
2.70894e-14
7.37188e-14
4.94715e-13
4.38316e-13
1.84741e-13
-1.54543e-13
-2.28262e-13
4.17444e-13
7.70051e-13
7.72715e-13
4.42757e-13
1.43441e-13
1.83853e-13
-2.36255e-13
-5.90195e-13
-2.57572e-13
-3.81917e-13
-2.06501e-13
-4.65405e-13
-5.10703e-13
-4.35207e-13
-2.80664e-13
-2.83773e-13
-4.44089e-16
-4.44089e-15
2.70894e-14
7.37188e-14
4.94715e-13
4.38316e-13
1.84741e-13
-1.54543e-13
-2.28262e-13
4.17444e-13
7.70051e-13
7.72715e-13
4.42757e-13
1.43441e-13
1.83853e-13
-2.36255e-13
-5.90195e-13
-2.57572e-13
-3.81917e-13
-2.06501e-13
-4.65405e-13
-5.10703e-13
-4.35207e-13
-2.80664e-13
-2.83773e-13
-4.44089e-16
-1.08358e-13
-1.89182e-13
1.56319e-13
3.06422e-13
6.27498e-13
1.86962e-13
-2.62013e-13
2.93987e-13
5.20473e-13
-6.92779e-14
-8.89955e-13
-9.91207e-13
-9.48575e-13
-9.4591e-13
-5.56888e-13
2.11386e-13
-5.04929e-13
-9.10383e-13
-8.05578e-13
-1.1191e-12
-1.50369e-12
-1.25233e-12
-7.5584e-13
-3.14415e-13
-5.03153e-13
-1.2701e-13
1.5099e-13
-7.77156e-13
-1.15641e-12
-7.13207e-13
-6.35492e-13
-2.92211e-13
-1.42109e-13
2.58016e-13
7.09655e-13
8.61533e-13
1.13642e-12
4.84057e-13
1.02141e-13
1.55431e-13
5.24025e-13
8.85514e-13
1.62581e-12
1.48415e-12
1.43885e-12
1.4122e-12
1.39178e-12
7.39409e-13
-3.77476e-13
3.59712e-13
2.30926e-13
2.57572e-14
-4.06786e-13
-7.21201e-13
-7.06102e-13
-2.99316e-13
-4.30767e-13
-8.20677e-13
-3.86358e-13
-4.6807e-13
-8.26006e-13
-5.22693e-13
3.49942e-13
9.53015e-13
8.61089e-13
2.95763e-13
-4.82281e-13
-2.39808e-13
2.0961e-13
1.59872e-13
-4.7784e-13
1.46105e-13
1.0818e-12
1.56319e-13
5.49782e-13
8.11351e-13
1.06493e-12
7.88702e-13
1.66001e-12
2.42872e-12
2.57083e-12
2.02505e-12
2.33769e-12
2.42562e-12
1.39e-12
1.6982e-12
1.68576e-12
1.66445e-12
1.88738e-12
2.359e-12
2.2693e-12
1.47837e-12
1.70397e-12
2.03215e-12
2.21645e-12
1.92735e-12
1.60005e-12
1.86962e-12
2.43938e-12
2.46292e-12
2.23377e-12
2.10054e-12
2.29061e-12
2.81286e-12
2.44205e-12
2.21068e-12
)
;

boundaryField
{
    sides
    {
        type            calculated;
        value           nonuniform List<scalar> 2(1.82918e-12 -1.72295e-12);
    }
    empty
    {
        type            empty;
    }
}


// ************************************************************************* //
