/*--------------------------------*- C++ -*----------------------------------*\
  =========                 |
  \\      /  F ield         | OpenFOAM: The Open Source CFD Toolbox
   \\    /   O peration     | Website:  https://openfoam.org
    \\  /    A nd           | Version:  13
     \\/     M anipulation  |
\*---------------------------------------------------------------------------*/
FoamFile
{
    format      ascii;
    class       volVectorField;
    location    "0.002";
    object      U;
}
// * * * * * * * * * * * * * * * * * * * * * * * * * * * * * * * * * * * * * //

dimensions      [0 1 -1 0 0 0 0];

internalField   nonuniform List<vector> 
1000
(
(4.31784e-13 0 0)
(1.31286e-14 0 0)
(-1.28368e-13 0 0)
(-2.26103e-13 0 0)
(1.3041e-12 0 0)
(4.52206e-14 0 0)
(1.25451e-13 0 0)
(-3.86563e-13 0 0)
(9.08789e-13 0 0)
(-3.66141e-13 0 0)
(6.3163e-13 0 0)
(-4.18655e-13 0 0)
(3.06333e-13 0 0)
(4.30325e-13 0 0)
(1.20491e-12 0 0)
(3.18003e-13 0 0)
(-5.64528e-13 0 0)
(1.02111e-12 0 0)
(-1.23992e-13 0 0)
(-1.70671e-13 0 0)
(1.51708e-13 0 0)
(-5.45565e-13 0 0)
(-2.04222e-13 0 0)
(8.81073e-13 0 0)
(-1.04299e-12 0 0)
(1.13781e-13 0 0)
(4.63876e-13 0 0)
(5.54317e-13 0 0)
(-1.1203e-12 0 0)
(-9.77349e-14 0 0)
(-3.61765e-13 0 0)
(-5.74739e-13 0 0)
(8.56274e-13 0 0)
(4.30325e-13 0 0)
(2.80076e-13 0 0)
(5.38271e-13 0 0)
(-1.27347e-12 0 0)
(1.39163e-12 0 0)
(6.72474e-13 0 0)
(-2.61113e-13 0 0)
(-8.6065e-13 0 0)
(-5.64528e-13 0 0)
(8.67944e-13 0 0)
(-1.23992e-13 0 0)
(-1.70671e-13 0 0)
(1.51708e-13 0 0)
(-5.45565e-13 0 0)
(-2.04222e-13 0 0)
(8.81073e-13 0 0)
(-1.04299e-12 0 0)
(1.13781e-13 0 0)
(4.63876e-13 0 0)
(5.54317e-13 0 0)
(-1.1203e-12 0 0)
(-9.77349e-14 0 0)
(-3.61765e-13 0 0)
(-5.74739e-13 0 0)
(8.56274e-13 0 0)
(4.30325e-13 0 0)
(2.80076e-13 0 0)
(5.38271e-13 0 0)
(-1.28076e-12 0 0)
(1.40767e-12 0 0)
(6.09749e-13 0 0)
(-2.61113e-13 0 0)
(-9.08789e-13 0 0)
(-5.82033e-13 0 0)
(-9.33587e-14 0 0)
(-1.2866e-12 0 0)
(6.66639e-13 0 0)
(-4.37619e-15 0 0)
(7.01649e-13 0 0)
(-1.89635e-13 0 0)
(-3.29673e-13 0 0)
(8.32935e-13 0 0)
(5.48482e-13 0 0)
(2.18809e-13 0 0)
(3.96774e-13 0 0)
(4.14279e-13 0 0)
(1.17428e-12 0 0)
(7.61457e-13 0 0)
(-2.85911e-13 0 0)
(1.45873e-14 0 0)
(1.37266e-12 0 0)
(-7.96466e-13 0 0)
(1.5127e-12 0 0)
(1.36099e-12 0 0)
(1.90364e-12 0 0)
(4.93051e-13 0 0)
(1.16844e-12 0 0)
(4.4783e-13 0 0)
(1.61044e-12 0 0)
(-3.5593e-13 0 0)
(-6.41841e-14 0 0)
(9.62762e-13 0 0)
(1.03862e-12 0 0)
(-7.0019e-13 0 0)
(5.25143e-14 0 0)
(1.37121e-13 0 0)
(9.65679e-13 0 0)
(9.20458e-13 0 0)
(-6.03914e-13 0 0)
(-4.68252e-13 0 0)
(7.61457e-13 0 0)
(5.73281e-13 0 0)
(2.08744e-12 0 0)
(1.05904e-12 0 0)
(2.06556e-12 0 0)
(8.51898e-13 0 0)
(1.58272e-12 0 0)
(3.25297e-13 0 0)
(2.17642e-12 0 0)
(1.61335e-12 0 0)
(6.03914e-13 0 0)
(5.00344e-13 0 0)
(2.20268e-13 0 0)
(4.3616e-13 0 0)
(-7.17695e-13 0 0)
(-2.26103e-13 0 0)
(-1.82195e-12 0 0)
(-5.92244e-13 0 0)
(-9.72973e-13 0 0)
(-1.95616e-12 0 0)
(-2.08452e-12 0 0)
(-2.05681e-13 0 0)
(-1.12468e-12 0 0)
(-7.61457e-13 0 0)
(7.87714e-14 0 0)
(3.42801e-13 0 0)
(1.22533e-13 0 0)
(-8.34393e-13 0 0)
(-3.20921e-13 0 0)
(6.36006e-13 0 0)
(-1.55501e-12 0 0)
(1.02111e-12 0 0)
(-7.41035e-13 0 0)
(-4.06986e-13 0 0)
(-1.54334e-12 0 0)
(-7.59998e-13 0 0)
(-1.46456e-12 0 0)
(2.94663e-13 0 0)
(-5.80574e-13 0 0)
(9.19e-14 0 0)
(1.42955e-13 0 0)
(3.9094e-13 0 0)
(1.88176e-12 0 0)
(1.64107e-12 0 0)
(1.91677e-12 0 0)
(1.53167e-13 0 0)
(1.23409e-12 0 0)
(3.63224e-13 0 0)
(-1.31723e-12 0 0)
(7.78962e-13 0 0)
(-6.76851e-13 0 0)
(-8.21265e-13 0 0)
(8.50439e-13 0 0)
(-2.05681e-13 0 0)
(1.45873e-13 0 0)
(-2.05389e-12 0 0)
(9.90477e-13 0 0)
(-8.91284e-13 0 0)
(-6.09749e-13 0 0)
(-7.78962e-13 0 0)
(6.68098e-13 0 0)
(-1.45435e-12 0 0)
(-1.0284e-12 0 0)
(-1.58272e-12 0 0)
(-1.44852e-12 0 0)
(8.46063e-14 0 0)
(7.87714e-14 0 0)
(8.69403e-13 0 0)
(8.05219e-13 0 0)
(2.06702e-12 0 0)
(1.60023e-12 0 0)
(3.03416e-13 0 0)
(-1.24576e-12 0 0)
(1.75485e-12 0 0)
(1.11301e-12 0 0)
(7.95008e-13 0 0)
(-7.58539e-13 0 0)
(-7.20612e-13 0 0)
(-3.57389e-13 0 0)
(1.98387e-13 0 0)
(1.59439e-12 0 0)
(1.4281e-12 0 0)
(2.55278e-13 0 0)
(-9.0733e-13 0 0)
(-2.43608e-13 0 0)
(-4.15738e-13 0 0)
(1.27493e-12 0 0)
(2.48276e-12 0 0)
(7.77503e-13 0 0)
(1.27639e-12 0 0)
(3.01957e-13 0 0)
(6.52052e-13 0 0)
(1.82487e-12 0 0)
(-1.02111e-12 0 0)
(-3.42801e-13 0 0)
(-4.39078e-13 0 0)
(4.46371e-13 0 0)
(8.54816e-13 0 0)
(-1.47332e-12 0 0)
(7.20612e-13 0 0)
(-6.71016e-14 0 0)
(1.42226e-12 0 0)
(1.96199e-12 0 0)
(1.38288e-12 0 0)
(1.49957e-12 0 0)
(2.34855e-13 0 0)
(1.02111e-14 0 0)
(1.57543e-12 0 0)
(3.77811e-13 0 0)
(1.04737e-12 0 0)
(-1.18449e-12 0 0)
(-7.1186e-13 0 0)
(-5.83492e-14 0 0)
(5.33895e-13 0 0)
(2.15746e-12 0 0)
(-1.20929e-12 0 0)
(5.60152e-13 0 0)
(-1.64836e-13 0 0)
(-1.07508e-12 0 0)
(-1.50249e-13 0 0)
(-1.76652e-12 0 0)
(-1.46165e-12 0 0)
(-1.66295e-13 0 0)
(3.06333e-13 0 0)
(3.64682e-14 0 0)
(-1.69213e-13 0 0)
(4.98886e-13 0 0)
(2.77159e-14 0 0)
(9.54009e-13 0 0)
(1.84383e-12 0 0)
(2.02763e-13 0 0)
(-2.24644e-13 0 0)
(-1.50541e-12 0 0)
(5.48482e-13 0 0)
(-3.61765e-13 0 0)
(-2.58195e-13 0 0)
(-2.59216e-12 0 0)
(-6.18501e-13 0 0)
(-7.1186e-13 0 0)
(1.01819e-12 0 0)
(-3.82187e-13 0 0)
(-8.05219e-13 0 0)
(-1.22096e-12 0 0)
(-1.66003e-12 0 0)
(-8.47522e-13 0 0)
(-1.9474e-12 0 0)
(-5.67446e-13 0 0)
(3.64682e-14 0 0)
(-5.30978e-13 0 0)
(7.57081e-13 0 0)
(-1.55355e-12 0 0)
(7.26447e-13 0 0)
(-1.06779e-12 0 0)
(-1.41643e-12 0 0)
(-2.9904e-13 0 0)
(-9.6422e-13 0 0)
(-1.85696e-12 0 0)
(-1.88176e-12 0 0)
(-1.79715e-12 0 0)
(-1.3114e-12 0 0)
(1.37121e-13 0 0)
(-3.06333e-14 0 0)
(-7.0019e-14 0 0)
(6.28712e-13 0 0)
(3.61765e-13 0 0)
(1.85259e-13 0 0)
(1.25159e-12 0 0)
(1.54188e-12 0 0)
(3.03416e-13 0 0)
(5.79116e-13 0 0)
(6.92897e-13 0 0)
(1.01965e-12 0 0)
(1.22533e-13 0 0)
(4.37619e-14 0 0)
(1.396e-12 0 0)
(2.08598e-13 0 0)
(1.66587e-12 0 0)
(-1.51562e-12 0 0)
(1.21366e-12 0 0)
(-1.55209e-12 0 0)
(9.86101e-13 0 0)
(-4.85757e-13 0 0)
(4.20114e-13 0 0)
(1.26618e-12 0 0)
(9.93395e-13 0 0)
(-7.2353e-13 0 0)
(3.676e-13 0 0)
(-2.17351e-13 0 0)
(-1.16552e-12 0 0)
(-2.6899e-12 0 0)
(-1.55938e-12 0 0)
(-1.98241e-12 0 0)
(3.7927e-14 0 0)
(-3.01957e-13 0 0)
(-1.33911e-12 0 0)
(-6.47676e-13 0 0)
(-1.64253e-12 0 0)
(-1.98971e-12 0 0)
(-2.17059e-12 0 0)
(-4.66793e-14 0 0)
(2.36314e-13 0 0)
(-5.57235e-13 0 0)
(-1.63378e-13 0 0)
(1.49957e-12 0 0)
(-1.06487e-12 0 0)
(2.08598e-13 0 0)
(-2.53819e-13 0 0)
(5.70363e-13 0 0)
(3.42801e-13 0 0)
(4.66793e-14 0 0)
(1.0109e-12 0 0)
(2.27562e-13 0 0)
(-8.12512e-13 0 0)
(-9.26293e-13 0 0)
(1.23992e-13 0 0)
(7.73127e-14 0 0)
(-2.15163e-12 0 0)
(-2.97581e-13 0 0)
(-9.14623e-13 0 0)
(-9.68596e-13 0 0)
(5.71822e-13 0 0)
(-1.76798e-12 0 0)
(3.57389e-13 0 0)
(-1.19616e-12 0 0)
(1.26034e-12 0 0)
(7.45411e-13 0 0)
(-2.36314e-13 0 0)
(1.32599e-12 0 0)
(1.37996e-12 0 0)
(1.68192e-12 0 0)
(7.06025e-13 0 0)
(3.50095e-13 0 0)
(2.2727e-12 0 0)
(3.70517e-13 0 0)
(1.03862e-12 0 0)
(5.42647e-13 0 0)
(-1.75048e-13 0 0)
(3.82187e-13 0 0)
(-1.26764e-12 0 0)
(1.11301e-12 0 0)
(1.04007e-12 0 0)
(1.16698e-14 0 0)
(-1.55063e-12 0 0)
(-1.18157e-13 0 0)
(6.85603e-14 0 0)
(-6.25795e-13 0 0)
(-5.0472e-13 0 0)
(-9.04412e-13 0 0)
(-2.39232e-13 0 0)
(-7.51246e-13 0 0)
(1.08092e-12 0 0)
(-3.19462e-13 0 0)
(9.04412e-13 0 0)
(8.73779e-13 0 0)
(2.04368e-12 0 0)
(1.82341e-12 0 0)
(1.07362e-12 0 0)
(2.01305e-13 0 0)
(1.42518e-12 0 0)
(5.514e-13 0 0)
(1.24576e-12 0 0)
(6.71016e-14 0 0)
(-1.52583e-12 0 0)
(1.57397e-12 0 0)
(-9.72973e-13 0 0)
(-1.00652e-13 0 0)
(-2.26103e-13 0 0)
(3.25297e-13 0 0)
(1.50687e-12 0 0)
(-5.87868e-13 0 0)
(-1.18741e-12 0 0)
(-2.23186e-13 0 0)
(3.58847e-13 0 0)
(1.40038e-12 0 0)
(1.50249e-12 0 0)
(1.04737e-12 0 0)
(5.77657e-13 0 0)
(1.08092e-12 0 0)
(-1.62211e-12 0 0)
(1.6046e-14 0 0)
(-1.1947e-12 0 0)
(1.27785e-12 0 0)
(4.55999e-12 0 0)
(1.60635e-11 0 0)
(4.90337e-11 0 0)
(1.38948e-10 0 0)
(3.86626e-10 0 0)
(1.05365e-09 0 0)
(2.84249e-09 0 0)
(7.55693e-09 0 0)
(1.98216e-08 0 0)
(5.12817e-08 0 0)
(1.30835e-07 0 0)
(3.29072e-07 0 0)
(8.15706e-07 0 0)
(1.99211e-06 0 0)
(4.79159e-06 0 0)
(1.1347e-05 0 0)
(2.64452e-05 0 0)
(6.06324e-05 0 0)
(0.000136698 0 0)
(0.000302914 0 0)
(0.00065941 0 0)
(0.0014094 0 0)
(0.00295593 0 0)
(0.00607934 0 0)
(0.0122519 0 0)
(0.0241759 0 0)
(0.0466651 0 0)
(0.088016 0 0)
(0.162005 0 0)
(0.290536 0 0)
(0.50662 0 0)
(0.85658 0 0)
(1.39846 0 0)
(2.188 0 0)
(3.25351 0 0)
(4.60044 0 0)
(6.23124 0 0)
(8.14035 0 0)
(10.3105 0 0)
(12.7171 0 0)
(15.332 0 0)
(18.1269 0 0)
(21.0754 0 0)
(24.1539 0 0)
(27.3423 0 0)
(30.6236 0 0)
(33.9837 0 0)
(37.411 0 0)
(40.8957 0 0)
(44.43 0 0)
(48.0071 0 0)
(51.6216 0 0)
(55.2689 0 0)
(58.9451 0 0)
(62.6467 0 0)
(66.3711 0 0)
(70.1159 0 0)
(73.8787 0 0)
(77.658 0 0)
(81.452 0 0)
(85.2592 0 0)
(89.0786 0 0)
(92.9088 0 0)
(96.7489 0 0)
(100.598 0 0)
(104.455 0 0)
(108.319 0 0)
(112.19 0 0)
(116.067 0 0)
(119.949 0 0)
(123.835 0 0)
(127.726 0 0)
(131.619 0 0)
(135.516 0 0)
(139.415 0 0)
(143.316 0 0)
(147.218 0 0)
(151.12 0 0)
(155.023 0 0)
(158.925 0 0)
(162.827 0 0)
(166.727 0 0)
(170.625 0 0)
(174.52 0 0)
(178.413 0 0)
(182.301 0 0)
(186.185 0 0)
(190.064 0 0)
(193.936 0 0)
(197.802 0 0)
(201.661 0 0)
(205.511 0 0)
(209.352 0 0)
(213.182 0 0)
(217.001 0 0)
(220.807 0 0)
(224.599 0 0)
(228.375 0 0)
(232.133 0 0)
(235.872 0 0)
(239.589 0 0)
(243.28 0 0)
(246.945 0 0)
(250.578 0 0)
(254.175 0 0)
(257.733 0 0)
(261.247 0 0)
(264.71 0 0)
(268.115 0 0)
(271.456 0 0)
(274.724 0 0)
(277.909 0 0)
(281 0 0)
(283.984 0 0)
(286.848 0 0)
(289.577 0 0)
(292.153 0 0)
(294.556 0 0)
(296.767 0 0)
(298.785 0 0)
(299.762 0 0)
(299.765 0 0)
(299.711 0 0)
(299.588 0 0)
(299.39 0 0)
(299.108 0 0)
(298.741 0 0)
(298.291 0 0)
(297.772 0 0)
(297.199 0 0)
(296.588 0 0)
(295.957 0 0)
(295.334 0 0)
(294.758 0 0)
(294.243 0 0)
(293.79 0 0)
(293.465 0 0)
(293.305 0 0)
(293.25 0 0)
(293.249 0 0)
(293.28 0 0)
(293.327 0 0)
(293.376 0 0)
(293.404 0 0)
(293.41 0 0)
(293.412 0 0)
(293.419 0 0)
(293.432 0 0)
(293.451 0 0)
(293.471 0 0)
(293.488 0 0)
(293.502 0 0)
(293.516 0 0)
(293.523 0 0)
(293.526 0 0)
(293.535 0 0)
(293.549 0 0)
(293.562 0 0)
(293.572 0 0)
(293.585 0 0)
(293.603 0 0)
(293.629 0 0)
(293.666 0 0)
(293.71 0 0)
(293.765 0 0)
(293.839 0 0)
(293.939 0 0)
(294.055 0 0)
(294.177 0 0)
(294.293 0 0)
(294.389 0 0)
(294.44 0 0)
(294.409 0 0)
(294.268 0 0)
(294.014 0 0)
(293.687 0 0)
(293.383 0 0)
(293.217 0 0)
(293.232 0 0)
(293.353 0 0)
(293.463 0 0)
(293.518 0 0)
(293.521 0 0)
(293.518 0 0)
(293.535 0 0)
(293.554 0 0)
(293.559 0 0)
(293.543 0 0)
(293.52 0 0)
(293.513 0 0)
(293.514 0 0)
(293.51 0 0)
(293.5 0 0)
(293.489 0 0)
(293.471 0 0)
(293.441 0 0)
(293.409 0 0)
(293.38 0 0)
(293.346 0 0)
(293.305 0 0)
(293.244 0 0)
(293.148 0 0)
(293.038 0 0)
(292.936 0 0)
(292.835 0 0)
(292.717 0 0)
(292.559 0 0)
(292.384 0 0)
(292.218 0 0)
(292.045 0 0)
(291.798 0 0)
(291.459 0 0)
(291.109 0 0)
(290.763 0 0)
(290.38 0 0)
(289.889 0 0)
(289.148 0 0)
(288.169 0 0)
(287.033 0 0)
(285.63 0 0)
(283.637 0 0)
(280.502 0 0)
(275.919 0 0)
(269.521 0 0)
(259.54 0 0)
(241.322 0 0)
(200.629 0 0)
(112.511 0 0)
(26.0411 0 0)
(4.05133 0 0)
(0.60611 0 0)
(0.0890365 0 0)
(0.0130043 0 0)
(0.00189942 0 0)
(0.000277523 0 0)
(4.05444e-05 0 0)
(5.92356e-06 0 0)
(8.65351e-07 0 0)
(1.26404e-07 0 0)
(1.84608e-08 0 0)
(2.69346e-09 0 0)
(3.91222e-10 0 0)
(5.46631e-11 0 0)
(5.76491e-12 0 0)
(-2.06848e-12 0 0)
(-3.32153e-12 0 0)
(-2.31063e-12 0 0)
(-3.07063e-12 0 0)
(-3.13627e-12 0 0)
(-1.93865e-12 0 0)
(-3.08668e-12 0 0)
(-1.2866e-12 0 0)
(-1.71109e-12 0 0)
(-1.55647e-12 0 0)
(-3.32591e-13 0 0)
(-9.90479e-13 0 0)
(6.8998e-13 0 0)
(3.65704e-12 0 0)
(-1.41497e-13 0 0)
(1.57543e-12 0 0)
(2.92038e-12 0 0)
(9.10249e-13 0 0)
(1.84238e-12 0 0)
(1.26034e-12 0 0)
(2.47401e-12 0 0)
(1.78403e-12 0 0)
(2.67386e-12 0 0)
(7.1332e-13 0 0)
(6.0975e-13 0 0)
(2.72491e-12 0 0)
(1.43102e-12 0 0)
(3.95316e-13 0 0)
(-1.02257e-12 0 0)
(-1.12322e-13 0 0)
(-3.47178e-12 0 0)
(7.97926e-13 0 0)
(1.87885e-12 0 0)
(9.02955e-13 0 0)
(-1.92261e-12 0 0)
(1.39601e-12 0 0)
(-1.40038e-13 0 0)
(7.73128e-14 0 0)
(-5.32437e-13 0 0)
(-1.51854e-12 0 0)
(-2.32376e-12 0 0)
(-1.63378e-13 0 0)
(-1.87009e-12 0 0)
(-5.35355e-13 0 0)
(1.58127e-12 0 0)
(1.37996e-12 0 0)
(1.37121e-12 0 0)
(6.53512e-13 0 0)
(6.02456e-13 0 0)
(-4.41996e-13 0 0)
(2.34126e-12 0 0)
(1.44414e-13 0 0)
(8.44606e-13 0 0)
(1.31578e-12 0 0)
(9.26295e-13 0 0)
(-5.19308e-13 0 0)
(3.69059e-13 0 0)
(-1.22679e-12 0 0)
(6.25796e-13 0 0)
(-8.41688e-13 0 0)
(2.59654e-12 0 0)
(-1.43539e-12 0 0)
(1.4704e-12 0 0)
(-8.78156e-13 0 0)
(-5.58694e-13 0 0)
(5.07639e-13 0 0)
(2.36752e-12 0 0)
(1.04737e-12 0 0)
(4.21136e-12 0 0)
(9.94855e-13 0 0)
(-6.72475e-13 0 0)
(-2.66073e-12 0 0)
(-1.48645e-12 0 0)
(-1.95762e-12 0 0)
(-2.49589e-12 0 0)
(-3.02979e-12 0 0)
(-7.78963e-13 0 0)
(3.15086e-13 0 0)
(-1.0109e-12 0 0)
(1.59002e-13 0 0)
(1.98388e-13 0 0)
(-9.35047e-13 0 0)
(1.73297e-12 0 0)
(-7.87715e-14 0 0)
(-1.04737e-12 0 0)
(-3.58848e-13 0 0)
(4.78464e-13 0 0)
(-9.02955e-13 0 0)
(-3.47178e-13 0 0)
(-8.83991e-13 0 0)
(-2.50902e-13 0 0)
(-1.15677e-12 0 0)
(1.90656e-12 0 0)
(1.68046e-12 0 0)
(7.45412e-13 0 0)
(-5.6307e-13 0 0)
(-3.56076e-12 0 0)
(2.0714e-12 0 0)
(-3.17274e-12 0 0)
(1.50541e-12 0 0)
(-1.49812e-12 0 0)
(1.5623e-12 0 0)
(2.21581e-12 0 0)
(-1.89635e-14 0 0)
(8.75239e-13 0 0)
(-6.56429e-14 0 0)
(-9.23377e-13 0 0)
(1.09113e-12 0 0)
(-6.92898e-13 0 0)
(-8.88368e-13 0 0)
(1.10864e-13 0 0)
(3.58848e-13 0 0)
(-3.88023e-13 0 0)
(1.40476e-12 0 0)
(-3.16545e-13 0 0)
(7.46871e-13 0 0)
(-1.19178e-12 0 0)
(-1.17574e-12 0 0)
(1.03716e-12 0 0)
(1.48791e-13 0 0)
(2.02326e-12 0 0)
(1.30994e-12 0 0)
(6.38924e-13 0 0)
(1.04591e-12 0 0)
(9.78809e-13 0 0)
(-1.72568e-12 0 0)
(8.9712e-13 0 0)
(-1.69796e-12 0 0)
(-1.05029e-12 0 0)
(-2.14725e-12 0 0)
(-4.3762e-14 0 0)
(-2.47693e-12 0 0)
(-2.26012e-27 0 0)
(-4.36161e-13 0 0)
(-6.30313e-27 0 0)
(-1.01528e-12 0 0)
(-1.28514e-12 0 0)
(1.70672e-13 0 0)
(3.26756e-13 0 0)
(1.38871e-12 0 0)
(-4.78464e-13 0 0)
(9.8902e-13 0 0)
(-1.73589e-13 0 0)
(2.61113e-13 0 0)
(-1.49374e-12 0 0)
(-4.56583e-13 0 0)
(9.17542e-13 0 0)
(1.16699e-12 0 0)
(-8.13972e-13 0 0)
(7.39577e-13 0 0)
(-2.02764e-13 0 0)
(1.35224e-12 0 0)
(4.28867e-13 0 0)
(1.39746e-12 0 0)
(-1.41643e-12 0 0)
(-1.07946e-13 0 0)
(-7.20613e-13 0 0)
(1.35516e-12 0 0)
(-1.27056e-12 0 0)
(6.22878e-13 0 0)
(-6.03915e-13 0 0)
(5.83493e-13 0 0)
(1.64837e-13 0 0)
(-1.37704e-12 0 0)
(2.12975e-13 0 0)
(4.90134e-13 0 0)
(1.68775e-12 0 0)
(-1.6615e-12 0 0)
(-7.00191e-14 0 0)
(-1.7534e-12 0 0)
(-1.13781e-12 0 0)
(3.54472e-13 0 0)
(1.22096e-12 0 0)
(-2.88829e-13 0 0)
(3.3405e-13 0 0)
(-2.74242e-13 0 0)
(1.84821e-12 0 0)
(1.45727e-12 0 0)
(5.23685e-13 0 0)
(-1.74318e-12 0 0)
(4.40537e-13 0 0)
(5.39731e-14 0 0)
(8.48982e-13 0 0)
(-1.91094e-12 0 0)
(5.55777e-13 0 0)
(-1.15094e-12 0 0)
(8.78156e-13 0 0)
(-1.36537e-12 0 0)
(2.47984e-14 0 0)
(-2.47984e-14 0 0)
(-2.59753e-34 0 0)
(1.22533e-13 0 0)
(1.41497e-13 0 0)
(1.95324e-12 0 0)
(-1.96929e-13 0 0)
(9.33588e-13 0 0)
(-1.53459e-12 0 0)
(6.75393e-13 0 0)
(8.67945e-13 0 0)
(2.45942e-12 0 0)
(4.2595e-13 0 0)
(1.4208e-12 0 0)
(-8.53358e-13 0 0)
(1.6542e-12 0 0)
(-2.71908e-12 0 0)
(5.7474e-13 0 0)
(-1.76507e-12 0 0)
(4.52207e-13 0 0)
(-1.43247e-12 0 0)
(-3.09251e-13 0 0)
(-1.66879e-12 0 0)
(-1.02111e-14 0 0)
(-1.19178e-12 0 0)
(2.47984e-14 0 0)
(-2.47984e-14 0 0)
(-2.59753e-34 0 0)
(1.22533e-13 0 0)
(1.41497e-13 0 0)
(1.95324e-12 0 0)
(-1.96929e-13 0 0)
(9.33588e-13 0 0)
(-1.53459e-12 0 0)
(6.75393e-13 0 0)
(8.67945e-13 0 0)
(2.45942e-12 0 0)
(4.2595e-13 0 0)
(1.4208e-12 0 0)
(-8.53358e-13 0 0)
(1.6542e-12 0 0)
(-2.71908e-12 0 0)
(5.7474e-13 0 0)
(-1.76507e-12 0 0)
(4.52207e-13 0 0)
(-1.43247e-12 0 0)
(-3.09251e-13 0 0)
(-1.66879e-12 0 0)
(-1.02111e-14 0 0)
(-1.19178e-12 0 0)
(2.47984e-14 0 0)
(-2.47984e-14 0 0)
(-2.59753e-34 0 0)
(1.22533e-13 0 0)
(1.41497e-13 0 0)
(1.95324e-12 0 0)
(-1.96929e-13 0 0)
(9.33588e-13 0 0)
(-1.53459e-12 0 0)
(6.75393e-13 0 0)
(8.67945e-13 0 0)
(2.45942e-12 0 0)
(4.2595e-13 0 0)
(1.4208e-12 0 0)
(-8.53358e-13 0 0)
(1.6542e-12 0 0)
(-2.71908e-12 0 0)
(5.7474e-13 0 0)
(-1.76507e-12 0 0)
(4.52207e-13 0 0)
(-1.43247e-12 0 0)
(-3.09251e-13 0 0)
(-1.66879e-12 0 0)
(-1.02111e-14 0 0)
(-1.19178e-12 0 0)
(2.47984e-14 0 0)
(-2.47984e-14 0 0)
(-4.74088e-13 0 0)
(-1.50249e-13 0 0)
(6.72475e-13 0 0)
(6.12667e-13 0 0)
(1.92261e-12 0 0)
(-1.30119e-12 0 0)
(4.53666e-13 0 0)
(5.00345e-13 0 0)
(1.86134e-12 0 0)
(-2.23332e-12 0 0)
(-1.00652e-12 0 0)
(-3.11293e-12 0 0)
(-1.07217e-12 0 0)
(-2.37773e-12 0 0)
(3.16545e-13 0 0)
(3.676e-13 0 0)
(-2.32376e-12 0 0)
(-9.59845e-13 0 0)
(-2.5309e-12 0 0)
(-2.12245e-12 0 0)
(-3.60453e-12 0 0)
(-1.72568e-12 0 0)
(-1.0532e-12 0 0)
(-3.80729e-13 0 0)
(-1.45436e-12 0 0)
(1.00069e-12 0 0)
(-4.62418e-13 0 0)
(-2.8241e-12 0 0)
(-1.4952e-12 0 0)
(-1.67462e-12 0 0)
(-6.54971e-13 0 0)
(-3.58848e-13 0 0)
(-3.63224e-13 0 0)
(1.4952e-12 0 0)
(1.20783e-12 0 0)
(2.41712e-12 0 0)
(2.00721e-12 0 0)
(1.00652e-13 0 0)
(2.29021e-13 0 0)
(3.82188e-13 0 0)
(1.46165e-12 0 0)
(2.59508e-12 0 0)
(3.52721e-12 0 0)
(2.22165e-12 0 0)
(3.82479e-12 0 0)
(2.14725e-12 0 0)
(3.04437e-12 0 0)
(-3.9094e-13 0 0)
(-7.95009e-13 0 0)
(1.94741e-12 0 0)
(-8.18348e-13 0 0)
(8.67945e-13 0 0)
(-2.35439e-12 0 0)
(-7.67293e-13 0 0)
(-1.7957e-12 0 0)
(4.12821e-13 0 0)
(-1.97075e-12 0 0)
(-1.43102e-12 0 0)
(-2.04222e-13 0 0)
(-1.50833e-12 0 0)
(-1.93428e-12 0 0)
(-5.12015e-13 0 0)
(2.16768e-12 0 0)
(1.59293e-12 0 0)
(2.08453e-12 0 0)
(-1.08384e-12 0 0)
(-7.51247e-13 0 0)
(-1.10864e-13 0 0)
(8.35853e-13 0 0)
(-2.91746e-15 0 0)
(-2.33835e-12 0 0)
(3.12898e-12 0 0)
(6.11209e-13 0 0)
(2.37773e-13 0 0)
(1.70526e-12 0 0)
(1.44706e-12 0 0)
(3.06917e-12 0 0)
(4.08445e-13 0 0)
(5.49796e-12 0 0)
(4.80214e-12 0 0)
(5.01366e-12 0 0)
(3.73581e-12 0 0)
(5.17558e-12 0 0)
(4.18218e-12 0 0)
(1.80007e-12 0 0)
(4.69128e-12 0 0)
(2.13996e-12 0 0)
(4.09174e-12 0 0)
(4.11071e-12 0 0)
(5.01658e-12 0 0)
(3.62495e-12 0 0)
(2.63155e-12 0 0)
(3.91086e-12 0 0)
(4.45497e-12 0 0)
(4.16176e-12 0 0)
(3.45428e-12 0 0)
(3.16107e-12 0 0)
(4.38495e-12 0 0)
(5.25289e-12 0 0)
(4.44476e-12 0 0)
(4.436e-12 0 0)
(3.95316e-12 0 0)
(5.48629e-12 0 0)
(5.42356e-12 0 0)
(4.82111e-12 0 0)
(3.67163e-12 0 0)
)
;

boundaryField
{
    sides
    {
        type            zeroGradient;
    }
    empty
    {
        type            empty;
    }
}


// ************************************************************************* //
