/*--------------------------------*- C++ -*----------------------------------*\
  =========                 |
  \\      /  F ield         | OpenFOAM: The Open Source CFD Toolbox
   \\    /   O peration     | Website:  https://openfoam.org
    \\  /    A nd           | Version:  13
     \\/     M anipulation  |
\*---------------------------------------------------------------------------*/
FoamFile
{
    format      ascii;
    class       volScalarField;
    location    "8";
    object      Ma;
}
// * * * * * * * * * * * * * * * * * * * * * * * * * * * * * * * * * * * * * //

dimensions      [];

internalField   nonuniform List<scalar> 
5250
(
2.99999
2.99996
2.99989
2.99967
2.99928
2.99797
2.99548
2.98789
2.9718
2.92762
2.8232
2.55926
1.9818
1.01538
0.421017
0.323598
0.340699
0.337397
0.30466
0.252155
0.202711
0.161624
0.12059
0.0751875
0.0416228
2.99999
2.99996
2.99988
2.99972
2.99919
2.99822
2.99507
2.9889
2.97068
2.93046
2.82311
2.56539
1.99138
1.02784
0.428977
0.324603
0.34218
0.339514
0.307171
0.255548
0.207334
0.167655
0.128862
0.0887441
0.0648661
2.99999
2.99997
2.99988
2.99972
2.99921
2.99827
2.99517
2.98923
2.97129
2.93233
2.82724
2.57581
2.01222
1.05612
0.44706
0.327792
0.346732
0.345878
0.314805
0.265512
0.220221
0.184038
0.150283
0.118726
0.103124
2.99999
2.99997
2.99989
2.99973
2.99926
2.99826
2.99554
2.9892
2.97314
2.93376
2.83508
2.59059
2.04482
1.10087
0.474655
0.332364
0.354032
0.35631
0.327262
0.281325
0.239954
0.208194
0.18017
0.155829
0.144914
3
2.99997
2.9999
2.99972
2.99934
2.99827
2.99589
2.98965
2.97464
2.93724
2.84382
2.61208
2.08852
1.16384
0.511895
0.338415
0.363936
0.37049
0.343951
0.301956
0.264968
0.237974
0.215388
0.196843
0.189081
3
2.99997
2.99991
2.99975
2.99937
2.99842
2.99616
2.99028
2.97675
2.94092
2.85572
2.63799
2.14554
1.24766
0.559336
0.346781
0.377223
0.388936
0.365086
0.327432
0.29496
0.272902
0.255728
0.242618
0.238262
3
2.99997
2.99992
2.99977
2.99942
2.99858
2.99641
2.99145
2.97801
2.94761
2.86689
2.67176
2.21399
1.3561
0.617538
0.360017
0.395588
0.412459
0.391024
0.357789
0.329883
0.312937
0.301715
0.294902
0.295784
3
2.99998
2.99993
2.99979
2.99951
2.99867
2.99699
2.99186
2.98154
2.95143
2.88399
2.70605
2.29564
1.49063
0.687624
0.383855
0.422323
0.442697
0.422992
0.393958
0.370415
0.358835
0.354368
0.356115
0.367367
3
2.99998
2.99994
2.99981
2.99958
2.99881
2.9974
2.99284
2.98389
2.95769
2.89907
2.74491
2.38466
1.65248
0.770472
0.42463
0.461848
0.481133
0.462965
0.437176
0.417785
0.411265
0.414795
0.430286
0.463862
3
2.99998
2.99995
2.99984
2.99962
2.99899
2.99767
2.99384
2.98587
2.96303
2.91239
2.7778
2.46135
1.79442
0.85371
0.465078
0.499416
0.516877
0.505188
0.484467
0.470614
0.469734
0.485876
0.527884
0.628376
3
2.99999
2.99995
2.99987
2.99966
2.99915
2.9979
2.99473
2.98736
2.96789
2.92262
2.80506
2.52271
1.91053
0.957617
0.522668
0.525891
0.540603
0.541442
0.53007
0.524016
0.532385
0.566611
0.645538
0.804178
3
2.99999
2.99996
2.99988
2.99971
2.99924
2.99818
2.99545
2.98878
2.97258
2.93173
2.83124
2.58126
2.02946
1.1
0.600495
0.542616
0.559533
0.570485
0.570533
0.574514
0.59436
0.643561
0.739685
0.896865
3
2.99999
2.99997
2.99991
2.99974
2.99938
2.99842
2.99612
2.99052
2.9762
2.94229
2.85515
2.64191
2.15299
1.27442
0.69298
0.55953
0.577026
0.595822
0.606543
0.620554
0.650563
0.706444
0.798734
0.928202
3
3
2.99997
2.99992
2.99979
2.99948
2.9987
2.99675
2.99217
2.98008
2.95235
2.87962
2.70324
2.28565
1.48444
0.803911
0.589659
0.603402
0.624057
0.641948
0.662413
0.697503
0.753884
0.836025
0.943377
3
3
2.99998
2.99994
2.99982
2.9996
2.99888
2.99754
2.99336
2.98479
2.96074
2.90584
2.76358
2.42941
1.74315
0.934623
0.644466
0.64579
0.661515
0.681275
0.702954
0.737585
0.790594
0.863656
0.955941
3.00001
3
2.99999
2.99995
2.99988
2.99965
2.99919
2.99786
2.99501
2.98729
2.96941
2.92388
2.81255
2.54017
1.95539
1.07266
0.706708
0.686922
0.701283
0.720443
0.74194
0.774454
0.82227
0.886715
0.967378
3.00001
3
2.99999
2.99996
2.9999
2.99973
2.99933
2.99835
2.99585
2.99015
2.97481
2.94
2.84848
2.62868
2.12958
1.26772
0.798785
0.717926
0.731079
0.750838
0.775556
0.807299
0.851005
0.907872
0.977993
3.00001
3
2.99999
2.99997
2.99992
2.99979
2.99948
2.99868
2.99686
2.99193
2.98111
2.95153
2.88343
2.70704
2.30187
1.52137
0.921867
0.753829
0.758719
0.777635
0.804821
0.836207
0.876622
0.927548
0.988708
3.00001
3
3
2.99998
2.99994
2.99985
2.99959
2.99905
2.99749
2.99434
2.98492
2.96548
2.91119
2.78571
2.4772
1.8411
1.07673
0.813025
0.796793
0.810354
0.835493
0.86561
0.901825
0.946891
1.00044
3.00001
3.00001
3
2.99999
2.99996
2.99988
2.99971
2.99926
2.99818
2.99557
2.98893
2.97351
2.93354
2.8384
2.60121
2.08339
1.25227
0.882607
0.832366
0.843313
0.865477
0.894575
0.927048
0.966548
1.01331
3.00001
3.00001
3
2.99999
2.99997
2.99991
2.99978
2.99945
2.99864
2.99669
2.99169
2.98019
2.95002
2.87904
2.69842
2.28601
1.51193
0.999165
0.871005
0.873306
0.891525
0.919867
0.950648
0.985943
1.02713
3.00001
3.00001
3
3
2.99998
2.99994
2.99985
2.99958
2.99907
2.99744
2.99438
2.98497
2.96542
2.91181
2.78685
2.48228
1.85337
1.1578
0.92885
0.908482
0.920341
0.944613
0.97433
1.00591
1.04191
3.00001
3.00001
3
3
2.99999
2.99996
2.99989
2.99972
2.9993
2.99825
2.99583
2.98942
2.97518
2.93701
2.8488
2.62647
2.13983
1.35798
1.00537
0.943902
0.950764
0.970236
0.997231
1.02622
1.05804
3.00001
3.00001
3.00001
3
2.99999
2.99997
2.99993
2.99979
2.99953
2.9987
2.99716
2.99225
2.98267
2.95477
2.89293
2.73183
2.36431
1.65007
1.13103
0.988414
0.981492
0.993459
1.01715
1.04556
1.07497
3.00001
3.00001
3.00001
3
3
2.99998
2.99995
2.99986
2.99967
2.99912
2.99804
2.99471
2.98831
2.96913
2.92862
2.81989
2.57075
2.02523
1.31396
1.05575
1.01696
1.02206
1.04027
1.06554
1.09261
3.00001
3.00001
3.00001
3.00001
3
2.99999
2.99997
2.9999
2.99978
2.99939
2.99864
2.99641
2.99176
2.97894
2.95012
2.87559
2.69798
2.2886
1.55923
1.14977
1.05371
1.0499
1.06165
1.08419
1.11041
3.00001
3.00001
3.00001
3.00001
3
3
2.99998
2.99994
2.99986
2.99959
2.9991
2.99757
2.99452
2.98582
2.96682
2.91697
2.79929
2.51622
1.92612
1.309
1.10757
1.08076
1.08652
1.10433
1.12776
3.00001
3.00001
3.00001
3.00001
3
3
2.99999
2.99996
2.9999
2.99974
2.99938
2.9984
2.99634
2.99044
2.9783
2.944
2.86809
2.6734
2.24377
1.53443
1.19097
1.11652
1.11276
1.12349
1.14276
3.00001
3.00001
3.00001
3.00001
3.00001
3
3
2.99998
2.99994
2.99982
2.99961
2.99893
2.99761
2.99376
2.98559
2.96362
2.91328
2.78565
2.49007
1.88402
1.33579
1.16457
1.14032
1.1443
1.1582
3.00001
3.00001
3.00001
3.00001
3.00001
3
3
2.99999
2.99996
2.99989
2.99975
2.99931
2.99845
2.99599
2.99066
2.97673
2.94423
2.86313
2.66981
2.23309
1.55698
1.24557
1.17578
1.16723
1.17145
3.00001
3.00001
3.00001
3.00001
3.00001
3.00001
3
3
2.99998
2.99993
2.99984
2.99956
2.99903
2.99737
2.99425
2.98463
2.96534
2.91155
2.7898
2.49484
1.90385
1.38557
1.21936
1.18944
1.18252
3.00001
3.00001
3.00001
3.00001
3.00001
3.00001
3
3
2.99999
2.99996
2.99989
2.99975
2.99934
2.99844
2.99618
2.9907
2.97775
2.9451
2.86834
2.68
2.25887
1.60619
1.2977
1.21573
1.18894
3.00001
3.00001
3.00001
3.00001
3.00001
3.00001
3.00001
3
3
2.99998
2.99994
2.99983
2.99962
2.99899
2.99767
2.99415
2.9861
2.96609
2.91799
2.80106
2.52668
1.96621
1.43616
1.24543
1.18573
3.00001
3.00001
3.00001
3.00001
3.00001
3.00001
3.00001
3.00001
3
2.99999
2.99996
2.9999
2.99975
2.99937
2.99855
2.99623
2.99155
2.97792
2.9497
2.87295
2.69898
2.29536
1.65068
1.30346
1.1652
3.00001
3.00001
3.00001
3.00001
3.00001
3.00001
3.00001
3.00001
3
3
2.99998
2.99994
2.99984
2.99963
2.999
2.99782
2.99417
2.98703
2.96663
2.92241
2.80824
2.54881
2.00828
1.40618
1.1031
3.00001
3.00001
3.00001
3.00001
3.00001
3.00001
3.00001
3.00001
3.00001
3
2.99999
2.99996
2.9999
2.99972
2.99937
2.99835
2.99616
2.99043
2.97696
2.94388
2.86284
2.66786
2.23271
1.5141
0.981969
3.00001
3.00001
3.00001
3.00001
3.00001
3.00001
3.00001
3.00001
3.00001
3
2.99999
2.99997
2.99992
2.9998
2.99951
2.99872
2.99707
2.99226
2.98239
2.95425
2.89187
2.72908
2.36007
1.64941
0.8516
3.00001
3.00001
3.00001
3.00001
3.00001
3.00001
3.00001
3.00001
3.00001
3
3
2.99998
2.99993
2.99983
2.99956
2.99892
2.99733
2.99335
2.9839
2.95945
2.90122
2.75217
2.40016
1.68299
0.744593
3.00001
3.00001
3.00001
3.00001
3.00001
3.00001
3.00001
3.00001
3.00001
3
3
2.99998
2.99994
2.99984
2.99959
2.99899
2.9975
2.99373
2.98481
2.9615
2.90585
2.76235
2.41878
1.70031
0.713365
3.00001
3.00001
3.00001
3.00001
3.00001
3.00001
3.00001
3.00001
3.00001
3
3
2.99998
2.99994
2.99986
2.99959
2.99906
2.99752
2.99411
2.98496
2.96324
2.90766
2.7692
2.43076
1.7191
0.719519
3.00001
3.00001
3.00001
3.00001
3.00001
3.00001
3.00001
3.00001
3.00001
3
3
2.99998
2.99995
2.99985
2.99963
2.99901
2.99773
2.99388
2.98595
2.96286
2.91106
2.77242
2.44172
1.73831
0.735188
3.00001
3.00001
3.00001
3.00001
3.00001
3.00001
3.00001
3.00001
3.00001
3
3
2.99998
2.99994
2.99986
2.99961
2.99912
2.99753
2.99456
2.98501
2.9655
2.90982
2.77876
2.44944
1.75586
0.753173
3.00001
3.00001
3.00001
3.00001
3.00001
3.00001
3.00001
3.00001
3.00001
3
3
2.99998
2.99995
2.99986
2.99963
2.99908
2.99772
2.99421
2.98607
2.96434
2.91319
2.77974
2.45838
1.77101
0.770695
3.00001
3.00001
3.00001
3.00001
3.00001
3.00001
3.00001
3.00001
3.00001
3
3
2.99998
2.99995
2.99985
2.99965
2.99904
2.99784
2.99406
2.98657
2.9642
2.91473
2.78169
2.46513
1.78373
0.786626
3.00001
3.00001
3.00001
3.00001
3.00001
3.00001
3.00001
3.00001
3.00001
3
3
2.99998
2.99995
2.99985
2.99965
2.99906
2.9978
2.99428
2.98622
2.96528
2.91431
2.78479
2.4698
1.79448
0.80009
3.00001
3.00001
3.00001
3.00001
3.00001
3.00001
3.00001
3.00001
3.00001
3
3
2.99998
2.99995
2.99985
2.99966
2.99906
2.99782
2.9943
2.98631
2.96547
2.91488
2.78637
2.4741
1.80365
0.810387
3.00001
3.00001
3.00001
3.00001
3.00001
3.00001
3.00001
3.00001
3.00001
3
3
2.99998
2.99995
2.99986
2.99964
2.99909
2.99775
2.99447
2.98603
2.96617
2.91455
2.78839
2.47711
1.81175
0.817741
3.00001
3.00001
3.00001
3.00001
3.00001
3.00001
3.00001
3.00001
3.00001
3
3
2.99998
2.99995
2.99985
2.99966
2.99907
2.99781
2.99436
2.98633
2.96584
2.91552
2.78884
2.48019
1.8194
0.822905
3.00001
3.00001
3.00001
3.00001
3.00001
3.00001
3.00001
3.00001
3.00001
3
3
2.99998
2.99995
2.99985
2.99966
2.99905
2.99788
2.99415
2.98688
2.96499
2.91706
2.78828
2.48285
1.82496
0.825999
3.00001
3.00001
3.00001
3.00001
3.00001
3.00001
3.00001
3.00001
3.00001
3
3
2.99998
2.99995
2.99986
2.99963
2.99912
2.99769
2.99464
2.98582
2.96692
2.91456
2.79128
2.48232
1.82814
0.82746
0.988054
0.804566
0.295388
0.249982
0.304838
0.402584
0.437602
0.465159
0.5029
0.543724
0.579478
0.610659
0.640829
0.67168
0.703259
0.727718
0.739386
0.742938
0.740112
0.727031
0.701305
0.665596
0.623266
0.578069
0.532704
0.488224
0.445461
0.404871
0.366249
0.329529
0.294261
0.260105
0.226823
0.193646
0.161522
0.130387
0.100342
0.0712297
0.0433629
0.0206531
0.0229606
0.0475326
0.0722796
0.0971212
0.121236
0.14372
0.165386
0.187675
0.210169
0.231797
0.252773
0.273102
0.293013
0.312417
0.331489
0.350129
0.368452
0.386384
0.404091
0.421389
0.438532
0.455324
0.471939
0.488284
0.504439
0.520407
0.536134
0.551781
0.567173
0.582487
0.597641
0.612651
0.627571
0.642346
0.657003
0.671559
0.685956
0.700256
0.714393
0.728406
0.742264
0.755996
0.769533
0.783017
0.796196
0.809446
0.822264
0.835243
0.847727
0.860353
0.872504
0.884656
0.896372
0.90789
0.918883
0.929396
0.938963
0.947405
0.953734
0.958195
0.972235
0.85937
0.602479
0.43283
0.305658
0.165878
0.0515627
0.146818
0.231817
0.29627
0.339744
0.372662
0.40657
0.441419
0.475928
0.504742
0.519141
0.521242
0.51494
0.498676
0.469036
0.430155
0.385815
0.340326
0.29602
0.253469
0.213121
0.17574
0.14061
0.107836
0.0776582
0.0519319
0.037632
0.0452759
0.066435
0.0906644
0.116006
0.141009
0.165668
0.18936
0.211953
0.233913
0.2558
0.277317
0.298552
0.318622
0.337925
0.357447
0.377563
0.397011
0.415765
0.433926
0.451755
0.469112
0.486228
0.502936
0.519379
0.535541
0.551397
0.567069
0.582385
0.597642
0.612462
0.627349
0.641783
0.656303
0.670453
0.684642
0.698541
0.712474
0.726123
0.739856
0.753274
0.766818
0.780034
0.793372
0.806395
0.819507
0.832312
0.845195
0.857729
0.870401
0.882618
0.895091
0.906979
0.919239
0.930828
0.942819
0.954149
0.965809
0.97688
0.988152
0.998939
1.00973
1.01994
1.02981
1.03871
1.04664
1.05251
1.05652
0.985957
0.958405
0.854978
0.75973
0.655123
0.539936
0.422135
0.316798
0.225166
0.142972
0.075161
0.0816625
0.131905
0.180413
0.222261
0.25667
0.272677
0.268394
0.249745
0.232132
0.202129
0.166039
0.130477
0.0991468
0.0780713
0.0723622
0.0829375
0.102321
0.125546
0.150282
0.175142
0.199876
0.223956
0.247083
0.269716
0.292152
0.314182
0.335776
0.356752
0.377106
0.396606
0.415735
0.434392
0.452941
0.471
0.488486
0.504933
0.521511
0.538611
0.555703
0.571948
0.587839
0.603225
0.618503
0.633364
0.648143
0.662505
0.676853
0.69077
0.704723
0.718291
0.731861
0.745162
0.75838
0.771451
0.784385
0.797238
0.809951
0.822602
0.835138
0.847615
0.859994
0.872327
0.88455
0.896752
0.908804
0.920856
0.932726
0.944579
0.956269
0.967874
0.979388
0.990725
1.00205
1.01312
1.02421
1.03507
1.04591
1.05668
1.06728
1.07796
1.08824
1.09863
1.10839
1.11821
1.12711
1.13573
1.14284
1.14865
1.15191
1.01315
1.03086
1.00049
0.947938
0.8832
0.801689
0.718093
0.630279
0.54929
0.468486
0.391566
0.317954
0.254505
0.196688
0.143191
0.0951555
0.0531792
0.030036
0.0517234
0.0833461
0.12139
0.167313
0.203792
0.235006
0.262596
0.287097
0.309656
0.331461
0.352811
0.373892
0.394369
0.414554
0.433953
0.452863
0.471077
0.489135
0.506677
0.523968
0.540718
0.557009
0.572801
0.58812
0.60328
0.618096
0.632921
0.647074
0.660602
0.673797
0.687748
0.701873
0.715647
0.72885
0.741839
0.754608
0.767184
0.779666
0.791916
0.804116
0.816104
0.82803
0.8398
0.851487
0.863067
0.874575
0.885991
0.897372
0.908644
0.919924
0.931087
0.942281
0.953378
0.964495
0.975554
0.986594
0.997608
1.00856
1.01949
1.03035
1.04114
1.05191
1.06252
1.07321
1.08364
1.09422
1.10452
1.11509
1.12538
1.13587
1.14605
1.15634
1.16633
1.17636
1.18606
1.1957
1.20485
1.21381
1.22187
1.22931
1.23483
1.2386
1.03111
1.07332
1.07968
1.06054
1.02658
0.976978
0.920005
0.858864
0.796294
0.732704
0.666327
0.601121
0.542539
0.48719
0.436765
0.393852
0.360698
0.347299
0.352688
0.373909
0.402609
0.43477
0.465367
0.490644
0.511326
0.528591
0.543923
0.558647
0.573156
0.587581
0.60188
0.615859
0.629643
0.642929
0.656074
0.66885
0.681571
0.694042
0.706288
0.718388
0.730055
0.741769
0.753069
0.764659
0.775918
0.78731
0.797727
0.808359
0.818926
0.830618
0.841755
0.853082
0.863603
0.874511
0.884839
0.89557
0.905826
0.916395
0.926586
0.937006
0.947136
0.957443
0.967512
0.977739
0.98775
0.997922
1.0079
1.01803
1.028
1.03811
1.0481
1.05818
1.06819
1.07826
1.08824
1.09829
1.10818
1.1182
1.12794
1.13793
1.14749
1.1575
1.16701
1.17708
1.18654
1.1965
1.20582
1.21559
1.2248
1.23435
1.24342
1.25269
1.26154
1.27043
1.27887
1.28712
1.29469
1.30156
1.30696
1.31022
1.04151
1.09426
1.12242
1.12752
1.11631
1.09184
1.05714
1.01688
0.973218
0.92647
0.877129
0.826645
0.775235
0.725832
0.677729
0.635314
0.604101
0.589589
0.595578
0.614991
0.64242
0.672296
0.700427
0.722348
0.737239
0.747121
0.754156
0.761054
0.767947
0.775651
0.783254
0.791249
0.798806
0.806514
0.813875
0.821403
0.828844
0.836418
0.844038
0.851667
0.859423
0.867122
0.875042
0.882999
0.891269
0.899522
0.90747
0.915265
0.9233
0.932168
0.941317
0.950473
0.959332
0.968277
0.977073
0.986045
0.994925
1.00396
1.01292
1.02201
1.03102
1.04015
1.0492
1.05836
1.06745
1.07664
1.08578
1.09501
1.10422
1.11351
1.12279
1.13216
1.14152
1.15097
1.16036
1.16987
1.17923
1.18879
1.19811
1.20779
1.21715
1.22689
1.23613
1.24577
1.25493
1.26445
1.27354
1.28287
1.2919
1.30101
1.30994
1.31877
1.32751
1.33597
1.34434
1.3522
1.3598
1.3664
1.372
1.37509
1.04807
1.10478
1.14428
1.16597
1.17219
1.16595
1.14944
1.12616
1.09749
1.06591
1.02987
0.990824
0.947888
0.903053
0.859497
0.82041
0.79171
0.776794
0.780853
0.800295
0.830601
0.862953
0.892034
0.914105
0.927775
0.932002
0.930415
0.928043
0.926568
0.926332
0.927523
0.929338
0.931622
0.93417
0.937007
0.940104
0.943522
0.947324
0.951427
0.956031
0.9607
0.96592
0.971105
0.976956
0.982796
0.989293
0.995258
1.00147
1.00747
1.01457
1.02198
1.02983
1.03742
1.04521
1.05285
1.06069
1.06852
1.07651
1.08453
1.09268
1.10084
1.10912
1.11739
1.12577
1.13414
1.14261
1.15108
1.15963
1.16822
1.17686
1.18556
1.1943
1.20311
1.21194
1.2208
1.22972
1.23863
1.24774
1.25669
1.26585
1.27472
1.28387
1.29268
1.30177
1.31053
1.31953
1.32824
1.33709
1.34574
1.35441
1.36296
1.3714
1.37978
1.38791
1.39598
1.40361
1.41102
1.41758
1.42321
1.42637
1.05279
1.10985
1.15485
1.18648
1.20517
1.2124
1.21005
1.20006
1.18454
1.16339
1.13782
1.10559
1.06805
1.02754
0.987628
0.949278
0.917863
0.904375
0.910779
0.93164
0.962958
0.997922
1.02752
1.04966
1.0644
1.06884
1.06508
1.05609
1.04688
1.03982
1.03527
1.03262
1.03137
1.03087
1.03118
1.03193
1.03315
1.03493
1.03714
1.03981
1.04288
1.04641
1.05017
1.05443
1.05889
1.06387
1.06874
1.07359
1.07846
1.08397
1.09018
1.09685
1.10361
1.1104
1.1173
1.1242
1.13134
1.13847
1.14589
1.15326
1.16091
1.16847
1.17629
1.18399
1.19195
1.19979
1.20789
1.21587
1.22413
1.23226
1.24066
1.24895
1.25743
1.26584
1.27439
1.28301
1.29161
1.30028
1.30885
1.31756
1.32611
1.33484
1.34341
1.35212
1.3607
1.36934
1.37791
1.38643
1.39498
1.40335
1.41182
1.41999
1.4283
1.43622
1.44423
1.45172
1.45913
1.46565
1.47142
1.47465
1.05814
1.11283
1.15984
1.1968
1.22352
1.2402
1.2481
1.24836
1.24205
1.22961
1.20937
1.18071
1.14674
1.10957
1.06887
1.02482
0.994617
0.987841
0.996789
1.01911
1.05475
1.094
1.12567
1.1475
1.16217
1.1711
1.1721
1.16578
1.15441
1.14239
1.13253
1.12522
1.12004
1.11654
1.11419
1.11268
1.11165
1.11124
1.11124
1.11183
1.11284
1.11433
1.11623
1.11872
1.12147
1.12498
1.12849
1.13222
1.13575
1.13993
1.14464
1.15019
1.15583
1.16181
1.16776
1.17399
1.18024
1.18677
1.19333
1.20016
1.20701
1.21411
1.22122
1.22855
1.23588
1.24342
1.25094
1.25865
1.26636
1.27427
1.28216
1.29027
1.29833
1.3067
1.31489
1.32337
1.33157
1.34017
1.34838
1.35704
1.36526
1.37393
1.38215
1.39078
1.399
1.40756
1.4158
1.42425
1.43248
1.4408
1.44898
1.45712
1.46519
1.47309
1.48091
1.48843
1.49574
1.50237
1.50817
1.51159
1.06466
1.11569
1.16216
1.20156
1.23285
1.25578
1.27068
1.27792
1.2779
1.26977
1.25108
1.224
1.19354
1.15462
1.10564
1.06051
1.04008
1.04004
1.05192
1.07875
1.1178
1.15846
1.19198
1.21547
1.23051
1.24087
1.24559
1.2447
1.23775
1.22591
1.21235
1.1998
1.18943
1.18137
1.17556
1.17129
1.16825
1.16608
1.16452
1.16372
1.16324
1.16358
1.16433
1.1656
1.16736
1.16982
1.17261
1.17566
1.17859
1.1819
1.18576
1.19042
1.19545
1.2008
1.20634
1.21206
1.21794
1.224
1.23023
1.23664
1.2432
1.24995
1.2568
1.26382
1.27092
1.27817
1.2855
1.29299
1.30054
1.30828
1.31602
1.32398
1.33191
1.34001
1.34795
1.35613
1.3641
1.37237
1.3804
1.38873
1.39683
1.40519
1.41336
1.42173
1.42996
1.43829
1.44655
1.45481
1.46305
1.47118
1.47936
1.48731
1.49534
1.50305
1.51083
1.51813
1.5254
1.53185
1.53766
1.54097
1.07274
1.1194
1.16387
1.20343
1.23682
1.26322
1.28219
1.29354
1.296
1.28719
1.26838
1.24347
1.21003
1.16199
1.10808
1.07375
1.0639
1.06878
1.0867
1.12014
1.16113
1.19976
1.23234
1.25776
1.27555
1.28706
1.29505
1.29868
1.29768
1.29189
1.28166
1.2683
1.25441
1.24229
1.23263
1.22538
1.2201
1.21627
1.21355
1.21162
1.21044
1.20981
1.20977
1.21027
1.21127
1.21291
1.21497
1.21748
1.21984
1.22248
1.2255
1.22933
1.2337
1.23847
1.24353
1.2488
1.25433
1.26
1.26594
1.27197
1.27828
1.28462
1.29125
1.29788
1.30481
1.31171
1.31892
1.32611
1.33357
1.34105
1.34877
1.3565
1.36428
1.37215
1.37998
1.38797
1.39585
1.40393
1.41185
1.41999
1.42794
1.43609
1.44409
1.45223
1.46027
1.4684
1.47647
1.48456
1.49263
1.50065
1.50867
1.51656
1.52445
1.53211
1.53976
1.54703
1.55418
1.56059
1.56633
1.56968
1.08233
1.12466
1.16614
1.20459
1.23795
1.26558
1.28578
1.29781
1.29811
1.28636
1.26749
1.2395
1.19632
1.14005
1.09443
1.07656
1.07596
1.08615
1.11115
1.14874
1.18804
1.22362
1.25417
1.27985
1.30017
1.31567
1.32576
1.3329
1.33689
1.33678
1.33261
1.32464
1.31218
1.29798
1.2847
1.27359
1.26476
1.25823
1.25341
1.25009
1.24773
1.24613
1.24526
1.24476
1.24501
1.24573
1.24698
1.24885
1.25082
1.25303
1.25541
1.25857
1.26234
1.26668
1.27131
1.27631
1.28152
1.287
1.29265
1.29852
1.30452
1.31071
1.31703
1.32353
1.33015
1.33697
1.34391
1.35106
1.3583
1.36577
1.3732
1.38083
1.38836
1.39613
1.40375
1.41166
1.41937
1.42738
1.43517
1.44325
1.45111
1.45922
1.46715
1.47526
1.48323
1.49132
1.49932
1.50735
1.51533
1.52326
1.53118
1.53896
1.54673
1.55427
1.56178
1.56891
1.57588
1.58214
1.58766
1.59097
1.09347
1.13139
1.16929
1.20539
1.23733
1.26391
1.28273
1.29092
1.28562
1.27104
1.24836
1.21124
1.15627
1.10456
1.07887
1.07418
1.07959
1.09797
1.12975
1.16719
1.20241
1.23436
1.26275
1.28806
1.3099
1.32836
1.34297
1.35364
1.36061
1.36503
1.36607
1.36429
1.35857
1.34825
1.33506
1.32162
1.30963
1.29977
1.29233
1.28695
1.28326
1.28079
1.27919
1.27833
1.27797
1.27826
1.27905
1.28048
1.28229
1.28425
1.28634
1.28887
1.29212
1.296
1.30037
1.30504
1.31006
1.31526
1.32075
1.32634
1.33218
1.33812
1.34429
1.35057
1.35708
1.36373
1.37059
1.37761
1.38479
1.39207
1.39938
1.40681
1.4142
1.42177
1.42924
1.43693
1.44446
1.45224
1.45985
1.46768
1.47537
1.48324
1.49101
1.49888
1.50671
1.51457
1.52243
1.53026
1.53811
1.54585
1.55362
1.56121
1.56881
1.57613
1.58343
1.59029
1.59699
1.60291
1.60806
1.61115
1.10667
1.14013
1.17397
1.20645
1.23533
1.25831
1.2722
1.27196
1.26082
1.24272
1.21059
1.1586
1.10535
1.07458
1.06619
1.06933
1.08283
1.10956
1.14341
1.17654
1.20725
1.23588
1.26247
1.28729
1.31007
1.33054
1.34843
1.36303
1.37488
1.38247
1.38767
1.39027
1.39034
1.3871
1.37944
1.36788
1.35499
1.34268
1.33221
1.3239
1.31784
1.31347
1.31071
1.30882
1.30794
1.30754
1.30788
1.30872
1.31013
1.3119
1.31367
1.31574
1.31837
1.32176
1.32574
1.33011
1.33485
1.33982
1.34509
1.3505
1.35617
1.36194
1.36795
1.37407
1.38043
1.38694
1.39367
1.40057
1.40756
1.41468
1.42181
1.4291
1.43634
1.44378
1.45111
1.45867
1.46608
1.47371
1.48122
1.48891
1.4965
1.50423
1.5119
1.51965
1.52738
1.53513
1.54288
1.55059
1.55831
1.56593
1.57354
1.58098
1.58838
1.59549
1.6025
1.60904
1.61531
1.62076
1.62534
1.62815
1.12064
1.15017
1.17949
1.2075
1.23105
1.24773
1.25097
1.24281
1.22754
1.19867
1.15036
1.09784
1.06496
1.05471
1.05655
1.0667
1.08909
1.11968
1.1501
1.17865
1.20578
1.23179
1.25706
1.2814
1.30466
1.32644
1.34642
1.36418
1.37966
1.39205
1.40192
1.4077
1.41164
1.41312
1.41219
1.40724
1.39816
1.38662
1.37484
1.36409
1.35513
1.34826
1.34334
1.34014
1.33811
1.33716
1.33682
1.33729
1.3383
1.33986
1.34157
1.34343
1.34563
1.34847
1.35205
1.35607
1.36054
1.36525
1.37031
1.37552
1.38102
1.38662
1.39248
1.39847
1.4047
1.4111
1.4177
1.42444
1.43123
1.43818
1.44512
1.45225
1.4593
1.46656
1.47371
1.48106
1.48831
1.49574
1.50309
1.51058
1.51802
1.52555
1.53306
1.54062
1.54818
1.55573
1.56328
1.57079
1.57828
1.58566
1.59301
1.60015
1.60723
1.61395
1.62055
1.62654
1.63222
1.63697
1.64091
1.64335
1.13533
1.1604
1.18519
1.20706
1.22316
1.22752
1.22097
1.20653
1.17957
1.134
1.08359
1.05112
1.04044
1.04178
1.05046
1.07022
1.09781
1.12524
1.15128
1.17607
1.20065
1.22494
1.24928
1.27321
1.29669
1.31921
1.34068
1.36048
1.37875
1.3946
1.40834
1.41902
1.42696
1.43168
1.43476
1.4356
1.43342
1.42709
1.41765
1.40673
1.39595
1.38636
1.37877
1.37308
1.3694
1.36708
1.36611
1.36588
1.36648
1.36766
1.36924
1.3709
1.37274
1.37498
1.37796
1.38154
1.38566
1.39009
1.39493
1.39995
1.40529
1.41075
1.41648
1.42233
1.42844
1.43473
1.44116
1.44771
1.45434
1.4611
1.46788
1.47483
1.48172
1.48881
1.49579
1.50298
1.51004
1.51729
1.52445
1.53175
1.539
1.54633
1.55367
1.56102
1.56841
1.57574
1.58313
1.59039
1.59769
1.60479
1.6119
1.61869
1.62541
1.63165
1.63768
1.64293
1.6478
1.65174
1.65467
1.65647
1.14991
1.17069
1.189
1.20295
1.20636
1.19958
1.18475
1.15764
1.11285
1.06464
1.03404
1.02401
1.02563
1.03459
1.05348
1.07842
1.10332
1.12654
1.14901
1.17129
1.19407
1.21727
1.24084
1.26452
1.28795
1.31096
1.33318
1.35445
1.3745
1.39284
1.40959
1.42398
1.43621
1.44559
1.45199
1.45612
1.45889
1.45933
1.45612
1.44883
1.43913
1.42872
1.41888
1.41059
1.40418
1.39985
1.39709
1.39589
1.39557
1.3962
1.39747
1.39905
1.40073
1.40258
1.40502
1.4081
1.4119
1.41602
1.42062
1.42537
1.4305
1.43574
1.44128
1.44694
1.45292
1.459
1.46522
1.47156
1.47798
1.48454
1.49113
1.49786
1.50459
1.51145
1.51829
1.52525
1.53218
1.53921
1.54622
1.5533
1.56038
1.56748
1.57459
1.5817
1.58882
1.59589
1.60296
1.60992
1.6169
1.6236
1.63035
1.6366
1.64286
1.64836
1.65365
1.65795
1.66192
1.66469
1.66615
1.66725
1.1632
1.17959
1.18981
1.19006
1.18117
1.16476
1.13579
1.09006
1.04351
1.01543
1.00646
1.00874
1.0193
1.0387
1.06234
1.08498
1.10595
1.12585
1.14578
1.16641
1.18787
1.21028
1.23319
1.25648
1.27979
1.30291
1.3257
1.34776
1.36902
1.38908
1.40797
1.42521
1.44075
1.45417
1.465
1.47312
1.47866
1.48313
1.48514
1.48492
1.48037
1.47231
1.46259
1.45264
1.44382
1.43666
1.43155
1.4282
1.42658
1.42605
1.42666
1.42792
1.42953
1.43113
1.43314
1.4356
1.43893
1.44258
1.44683
1.45124
1.45612
1.46111
1.46649
1.47202
1.47782
1.48371
1.48974
1.4959
1.5021
1.50849
1.51483
1.52141
1.52788
1.5346
1.54116
1.54796
1.5546
1.56143
1.56816
1.57499
1.58183
1.58861
1.59555
1.60227
1.60926
1.61588
1.62285
1.62931
1.63608
1.64226
1.64859
1.65424
1.65975
1.66439
1.66858
1.67185
1.67438
1.67518
1.67488
1.67591
1.17416
1.18352
1.18076
1.1687
1.14888
1.116
1.06759
1.02139
0.995892
0.988384
0.991495
1.00441
1.02571
1.04869
1.06992
1.08905
1.10689
1.12469
1.14304
1.16268
1.18327
1.20501
1.2273
1.25023
1.27325
1.29644
1.31935
1.34195
1.36398
1.38525
1.40565
1.42485
1.44267
1.45897
1.47325
1.48565
1.49499
1.50252
1.50806
1.51208
1.51341
1.51198
1.50633
1.49774
1.48824
1.47893
1.47084
1.46469
1.46042
1.45813
1.45726
1.45773
1.45899
1.46047
1.46217
1.46415
1.46683
1.4701
1.47387
1.47797
1.48247
1.48722
1.49233
1.49766
1.50324
1.5089
1.51475
1.52067
1.52671
1.53285
1.53903
1.54533
1.55162
1.55805
1.56444
1.57094
1.57742
1.58395
1.59051
1.59703
1.60365
1.61016
1.61679
1.62327
1.62986
1.63626
1.64269
1.64892
1.65501
1.66085
1.66631
1.67135
1.67563
1.67933
1.68214
1.684
1.68419
1.68325
1.68134
1.68172
1.17924
1.17772
1.16255
1.13858
1.0996
1.04661
0.999648
0.976436
0.970819
0.974909
0.990703
1.0144
1.03755
1.05791
1.0757
1.09197
1.10789
1.12441
1.142
1.16088
1.18093
1.202
1.22382
1.24621
1.26893
1.29188
1.31474
1.33756
1.35997
1.38195
1.40328
1.42374
1.44328
1.46157
1.4785
1.49387
1.50713
1.51831
1.52696
1.53435
1.53932
1.54235
1.54302
1.54043
1.53386
1.52482
1.51528
1.50651
1.49926
1.49407
1.49091
1.48951
1.48963
1.49064
1.49214
1.4936
1.49575
1.49824
1.50171
1.50525
1.50949
1.51379
1.51873
1.52371
1.52908
1.53448
1.54014
1.54585
1.55168
1.55761
1.56357
1.56963
1.57573
1.58185
1.5881
1.59424
1.60063
1.60674
1.61321
1.6193
1.62578
1.63185
1.63826
1.64432
1.65058
1.65659
1.66255
1.66835
1.67381
1.67903
1.68356
1.68758
1.69057
1.69311
1.69392
1.69357
1.69213
1.68912
1.68409
1.68182
1.17717
1.162
1.1333
1.08645
1.0279
0.979365
0.957857
0.954179
0.959642
0.978253
1.00429
1.02805
1.04814
1.06515
1.08035
1.09493
1.10991
1.12578
1.14292
1.16125
1.18081
1.20128
1.22261
1.24445
1.26685
1.28943
1.31229
1.33503
1.35768
1.37998
1.40185
1.42315
1.44372
1.46347
1.48211
1.49967
1.51566
1.53008
1.54238
1.55239
1.56092
1.56767
1.57223
1.57403
1.57375
1.56955
1.56195
1.55275
1.54342
1.53514
1.52873
1.52438
1.52208
1.52152
1.5223
1.52349
1.52511
1.52695
1.52976
1.53294
1.53678
1.54082
1.54536
1.55008
1.55505
1.56026
1.56557
1.57115
1.57668
1.58248
1.58815
1.59406
1.59985
1.60583
1.61173
1.61772
1.62374
1.6297
1.63581
1.64171
1.64785
1.65366
1.65976
1.66544
1.67136
1.67681
1.68237
1.68735
1.69218
1.69624
1.69967
1.70213
1.704
1.70418
1.70313
1.70115
1.69755
1.6906
1.67946
1.67371
1.16552
1.12764
1.07072
1.00841
0.961311
0.940964
0.938766
0.947254
0.968345
0.995626
1.02038
1.0406
1.05718
1.07154
1.08511
1.09879
1.11331
1.12893
1.14579
1.16377
1.18287
1.20285
1.22369
1.24509
1.26709
1.28935
1.31193
1.33449
1.35712
1.37953
1.40169
1.42352
1.44469
1.46543
1.48522
1.50429
1.52218
1.53886
1.55402
1.56735
1.57857
1.58791
1.59624
1.60176
1.60503
1.60583
1.60412
1.59843
1.58985
1.58045
1.57137
1.56375
1.5581
1.55475
1.55328
1.55353
1.55464
1.55589
1.55765
1.56024
1.56361
1.56743
1.57156
1.57596
1.58057
1.58548
1.59054
1.59588
1.60124
1.60687
1.61237
1.61818
1.62373
1.62962
1.63519
1.64111
1.64666
1.65257
1.65814
1.66398
1.66957
1.67525
1.68077
1.68622
1.69149
1.69652
1.70126
1.70549
1.7092
1.71191
1.71397
1.71496
1.71467
1.71315
1.71045
1.70509
1.69633
1.68422
1.66883
1.66111
1.12999
1.05716
0.986992
0.941342
0.923878
0.923715
0.937173
0.96162
0.989442
1.01432
1.03473
1.05113
1.06516
1.07806
1.091
1.10457
1.11901
1.13461
1.15119
1.16894
1.18749
1.20711
1.22725
1.2483
1.26959
1.29156
1.31358
1.336
1.35834
1.38076
1.40299
1.42497
1.44661
1.46778
1.48836
1.50831
1.52737
1.54558
1.56255
1.57822
1.59225
1.60421
1.61455
1.62341
1.6306
1.63479
1.6363
1.63618
1.63287
1.62596
1.61669
1.60708
1.59815
1.59115
1.58629
1.58381
1.58329
1.58397
1.58514
1.58669
1.5893
1.59272
1.59661
1.60069
1.60503
1.6096
1.61438
1.61942
1.62458
1.62996
1.63536
1.64093
1.64643
1.65209
1.65759
1.66326
1.66871
1.67433
1.67975
1.68525
1.6906
1.69593
1.70105
1.70608
1.71075
1.71515
1.71894
1.7221
1.72421
1.72564
1.72575
1.72472
1.72278
1.71879
1.71229
1.70122
1.6873
1.67188
1.65497
1.64734
1.04957
0.958833
0.913206
0.899824
0.90486
0.925747
0.956053
0.984966
1.01008
1.03035
1.04676
1.06046
1.07301
1.0854
1.09813
1.11172
1.1261
1.14165
1.15796
1.17547
1.19353
1.21273
1.23233
1.25293
1.27377
1.29533
1.31706
1.33915
1.36131
1.38349
1.4056
1.42752
1.44919
1.47051
1.4914
1.51171
1.53151
1.55037
1.56858
1.58545
1.60145
1.61567
1.62841
1.63919
1.6488
1.65687
1.6624
1.66501
1.66546
1.6639
1.65884
1.65065
1.64082
1.63112
1.62259
1.61637
1.61238
1.61069
1.61079
1.61167
1.61313
1.61537
1.6188
1.62253
1.62686
1.6311
1.63585
1.64047
1.64563
1.65063
1.65611
1.66136
1.66699
1.67239
1.67798
1.68341
1.68887
1.69422
1.69953
1.70475
1.70986
1.71483
1.71959
1.72404
1.72811
1.73158
1.73424
1.73592
1.73661
1.73624
1.73473
1.73188
1.72693
1.71775
1.7054
1.69004
1.67338
1.65748
1.64228
1.63631
0.926528
0.869674
0.86409
0.877383
0.908241
0.946063
0.978329
1.00439
1.02515
1.04179
1.05573
1.06826
1.08045
1.093
1.10619
1.12023