/*--------------------------------*- C++ -*----------------------------------*\
  =========                 |
  \\      /  F ield         | OpenFOAM: The Open Source CFD Toolbox
   \\    /   O peration     | Website:  https://openfoam.org
    \\  /    A nd           | Version:  13
     \\/     M anipulation  |
\*---------------------------------------------------------------------------*/
FoamFile
{
    format      ascii;
    class       volScalarField;
    location    "8";
    object      p;
}
// * * * * * * * * * * * * * * * * * * * * * * * * * * * * * * * * * * * * * //

dimensions      [1 -1 -2 0 0 0 0];

internalField   nonuniform List<scalar> 
5250
(
1.00001
1.00004
1.0001
1.00028
1.00066
1.0017
1.00409
1.01019
1.02522
1.06226
1.15736
1.40806
2.12205
4.23014
9.94218
11.2761
11.1316
11.079
11.1655
11.3858
11.6046
11.7448
11.8532
11.9388
12.0051
1.00001
1.00003
1.00011
1.00026
1.00069
1.00161
1.00416
1.00995
1.025
1.06157
1.1554
1.40346
2.10647
4.18853
9.85031
11.2739
11.1278
11.0702
11.1569
11.3773
11.5956
11.7361
11.8461
11.933
12.0007
1.00001
1.00003
1.0001
1.00025
1.00067
1.00156
1.00409
1.00963
1.0245
1.05987
1.15173
1.39269
2.07634
4.09698
9.64455
11.2689
11.1155
11.0421
11.1266
11.3434
11.5586
11.6968
11.8059
11.892
11.9593
1.00001
1.00003
1.0001
1.00025
1.00062
1.00159
1.00372
1.00972
1.02278
1.05881
1.14426
1.3784
2.02899
3.95887
9.32088
11.2686
11.0984
10.9952
11.0748
11.2838
11.4938
11.6273
11.7329
11.8165
11.884
1.00001
1.00003
1.00009
1.00023
1.0006
1.00143
1.00373
1.00867
1.0227
1.05381
1.13891
1.35415
1.97055
3.77249
8.8736
11.2758
11.079
10.9313
11.0039
11.2016
11.4042
11.5306
11.6303
11.7098
11.7787
1.00001
1.00003
1.00008
1.00023
1.00053
1.00142
1.00324
1.00864
1.01987
1.05225
1.12589
1.33136
1.89075
3.54672
8.29222
11.2976
11.0593
10.8499
10.9131
11.0948
11.2866
11.4018
11.4911
11.5628
11.6318
1.00001
1.00003
1.00008
1.00019
1.00052
1.00119
1.00321
1.00727
1.01944
1.04522
1.11775
1.29625
1.80465
3.27664
7.57365
11.3358
11.04
10.751
10.8024
10.9626
11.1383
11.2356
11.3062
11.3604
11.4235
1
1.00002
1.00007
1.00019
1.00043
1.00116
1.00263
1.00702
1.01623
1.04216
1.10204
1.26478
1.70292
2.98144
6.73622
11.3636
11.0184
10.6384
10.6739
10.8031
10.9558
11.0253
11.0638
11.0814
11.1183
1
1.00002
1.00006
1.00016
1.00038
1.00101
1.00234
1.00606
1.01441
1.03634
1.08935
1.22801
1.60102
2.67226
5.80967
11.3125
10.9674
10.5178
10.53
10.6159
10.7351
10.7627
10.7492
10.6924
10.6402
1
1.00002
1.00005
1.00014
1.00033
1.00089
1.00201
1.0054
1.01227
1.03236
1.07663
1.19867
1.51434
2.4239
5.08155
10.9986
10.8113
10.398
10.357
10.4025
10.4676
10.4461
10.3524
10.1344
9.81356
1
1.00002
1.00005
1.00013
1.00029
1.00078
1.00177
1.00472
1.01075
1.02848
1.06699
1.17405
1.44693
2.23379
4.53153
10.2516
10.4903
10.2968
10.163
10.1698
10.1623
10.0814
9.83831
9.27265
7.82994
1
1.00001
1.00004
1.0001
1.00027
1.00063
1.00166
1.00381
1.01008
1.02334
1.0606
1.14792
1.38848
2.05357
4.00749
9.19528
10.2932
10.1743
9.97843
9.9301
9.8595
9.68873
9.30887
8.5476
7.07558
1
1.00001
1.00003
1.00009
1.00022
1.00057
1.00132
1.00351
1.00798
1.02127
1.04951
1.12885
1.32507
1.88541
3.49786
7.98706
10.1724
10.0662
9.8215
9.69104
9.56683
9.31747
8.84797
8.08468
6.93956
1
1.00001
1.00003
1.00008
1.00018
1.00048
1.0011
1.00293
1.00663
1.0177
1.04106
1.10662
1.26649
1.71706
3.00083
6.66205
10.0908
9.97778
9.68608
9.46311
9.28205
8.99261
8.51483
7.82123
6.92339
1
1.00001
1.00002
1.00006
1.00016
1.00036
1.00094
1.00224
1.00558
1.01373
1.03354
1.08385
1.21052
1.55293
2.51265
5.22531
9.89378
9.84417
9.58544
9.26178
9.02711
8.72263
8.26895
7.65141
6.90086
1
1.00001
1.00002
1.00005
1.00012
1.0003
1.00075
1.00179
1.00455
1.01067
1.02752
1.06559
1.16816
1.43048
2.17228
4.27112
9.25008
9.61054
9.43786
9.08422
8.80731
8.49745
8.07332
7.52022
6.86799
1
1.00001
1.00002
1.00004
1.0001
1.00023
1.00061
1.00139
1.00371
1.00842
1.02231
1.05202
1.13466
1.33971
1.92055
3.56744
7.89806
9.33363
9.22919
8.95098
8.62534
8.30595
7.90919
7.41035
6.83311
1
1
1.00001
1.00003
1.00007
1.0002
1.00045
1.00118
1.00268
1.00714
1.01631
1.04273
1.10201
1.26534
1.69735
2.93487
6.33773
9.1442
9.08684
8.85955
8.48346
8.14505
7.76867
7.31576
6.79953
1
1
1.00001
1.00002
1.00006
1.00014
1.00037
1.00082
1.0022
1.00497
1.01311
1.03042
1.07801
1.19178
1.50159
2.34686
4.655
8.79923
8.96423
8.78865
8.40131
8.0191
7.64949
7.23377
6.768
1
1
1.00001
1.00002
1.00004
1.00011
1.00027
1.00063
1.00165
1.00376
1.00991
1.02274
1.05915
1.14227
1.37154
1.98492
3.70761
7.89382
8.76236
8.64132
8.32614
7.91518
7.54717
7.16158
6.73827
1
1
1.00001
1.00001
1.00003
1.00008
1.0002
1.00047
1.00124
1.00282
1.00743
1.017
1.04437
1.1058
1.27463
1.71872
2.97394
6.29494
8.49731
8.4554
8.25401
7.8426
7.46416
7.09849
6.71061
1
1
1
1.00001
1.00002
1.00006
1.00014
1.00037
1.00084
1.00217
1.0051
1.01278
1.03103
1.07672
1.19197
1.49564
2.3241
4.52978
8.08226
8.32508
8.17998
7.82849
7.41369
7.04972
6.68775
1
1
1
1.00001
1.00002
1.00004
1.0001
1.00026
1.0006
1.00158
1.00357
1.00941
1.02148
1.05589
1.13349
1.34682
1.90721
3.44403
7.10683
8.13883
8.05235
7.79891
7.39191
7.01837
6.67077
1
1
1
1.00001
1.00001
1.00003
1.00007
1.00019
1.00043
1.00112
1.00257
1.00661
1.01555
1.03908
1.09528
1.24161
1.62876
2.69091
5.46936
7.84989
7.87225
7.73752
7.40512
7.01438
6.66556
1
1
1
1
1.00001
1.00002
1.00005
1.00013
1.00029
1.00077
1.00175
1.00455
1.01048
1.02669
1.06369
1.16033
1.40485
2.05762
3.74131
7.23941
7.77162
7.67432
7.41174
7.02386
6.66962
1
1
1
1
1.00001
1.00002
1.00003
1.00009
1.00021
1.00052
1.00125
1.00303
1.00752
1.0179
1.0449
1.10886
1.27718
1.71834
2.91597
5.90809
7.55423
7.53967
7.39698
7.06282
6.68572
1
1
1
1
1
1.00001
1.00002
1.00006
1.00014
1.00035
1.00083
1.00205
1.00503
1.012
1.03007
1.07209
1.18171
1.46056
2.2063
4.10365
7.07907
7.44519
7.35257
7.10855
6.72456
1
1
1
1
1
1.00001
1.00002
1.00004
1.00009
1.00024
1.00054
1.00142
1.0032
1.00841
1.0191
1.04937
1.11722
1.30091
1.77245
3.02467
5.99232
7.24972
7.23671
7.10514
6.80551
1
1
1
1
1
1
1.00001
1.00003
1.00006
1.00016
1.00036
1.00091
1.0022
1.00528
1.01313
1.03123
1.07805
1.1915
1.49172
2.27501
4.25828
6.81221
7.14691
7.07491
6.87908
1
1
1
1
1
1
1.00001
1.00002
1.00004
1.0001
1.00024
1.00059
1.00143
1.00339
1.00852
1.01993
1.05028
1.12064
1.30637
1.78181
3.0106
5.83181
6.96473
6.98941
6.90998
1
1
1
1
1
1
1
1.00001
1.00003
1.00007
1.00015
1.00039
1.00088
1.00227
1.00521
1.01321
1.03124
1.07754
1.19057
1.4848
2.24692
4.13847
6.53654
6.9425
6.93225
1
1
1
1
1
1
1
1.00001
1.00002
1.00004
1.0001
1.00024
1.00056
1.00143
1.00325
1.00844
1.01915
1.04946
1.1162
1.29697
1.74983
2.91104
5.56868
6.79482
7.00819
1
1
1
1
1
1
1
1
1.00001
1.00003
1.00006
1.00015
1.00036
1.00086
1.00215
1.00498
1.01266
1.02929
1.07405
1.17817
1.45421
2.14896
3.85782
6.38777
7.15034
1
1
1
1
1
1
1
1
1.00001
1.00002
1.00004
1.0001
1.00022
1.00057
1.00127
1.00334
1.00749
1.01943
1.04482
1.11337
1.27773
1.71173
2.81296
5.41446
7.15541
1
1
1
1
1
1
1
1
1
1.00001
1.00003
1.00006
1.00015
1.00034
1.00087
1.00199
1.00502
1.01184
1.02898
1.07037
1.17271
1.43437
2.10088
3.73484
7.06453
1
1
1
1
1
1
1
1
1
1.00001
1.00002
1.00004
1.0001
1.00024
1.00059
1.0014
1.00355
1.00817
1.02103
1.04901
1.12474
1.30882
1.81183
3.15676
6.59851
1
1
1
1
1
1
1
1
1
1.00001
1.00001
1.00003
1.00007
1.00019
1.00043
1.00115
1.00259
1.00684
1.01562
1.04056
1.09664
1.24903
1.64772
2.77666
5.89831
1
1
1
1
1
1
1
1
1
1
1.00001
1.00003
1.00006
1.00016
1.00038
1.001
1.00227
1.00604
1.01384
1.03649
1.08675
1.22632
1.59178
2.65945
5.807
1
1
1
1
1
1
1
1
1
1
1.00001
1.00002
1.00006
1.00015
1.00035
1.00093
1.00213
1.00568
1.01305
1.03453
1.08247
1.21575
1.56674
2.60004
5.71575
1
1
1
1
1
1
1
1
1
1
1.00001
1.00002
1.00006
1.00014
1.00035
1.00087
1.00209
1.00541
1.01276
1.03323
1.08043
1.2093
1.55167
2.55941
5.61508
1
1
1
1
1
1
1
1
1
1
1.00001
1.00002
1.00005
1.00014
1.00033
1.00088
1.002
1.00537
1.01237
1.0327
1.0785
1.20508
1.53949
2.52376
5.5102
1
1
1
1
1
1
1
1
1
1
1.00001
1.00002
1.00006
1.00013
1.00035
1.0008
1.00211
1.00496
1.01281
1.03102
1.07884
1.19945
1.53076
2.49125
5.40606
1
1
1
1
1
1
1
1
1
1
1.00001
1.00002
1.00005
1.00014
1.00032
1.00085
1.00194
1.00522
1.01198
1.03185
1.0759
1.19872
1.51987
2.46358
5.30929
1
1
1
1
1
1
1
1
1
1
1.00001
1.00002
1.00005
1.00014
1.00031
1.00084
1.00193
1.00515
1.01197
1.0312
1.07556
1.19559
1.51315
2.43829
5.22459
1
1
1
1
1
1
1
1
1
1
1.00001
1.00002
1.00005
1.00013
1.00033
1.00079
1.00204
1.00481
1.01254
1.02976
1.07666
1.19145
1.509
2.41656
5.1535
1
1
1
1
1
1
1
1
1
1
1.00001
1.00002
1.00005
1.00013
1.00032
1.00079
1.00202
1.00479
1.01245
1.02955
1.07611
1.18976
1.50387
2.39961
5.09614
1
1
1
1
1
1
1
1
1
1
1.00001
1.00002
1.00005
1.00013
1.00033
1.00077
1.00206
1.00469
1.01256
1.02914
1.07604
1.18799
1.49993
2.38603
5.05207
1
1
1
1
1
1
1
1
1
1
1.00001
1.00002
1.00005
1.00013
1.00033
1.00078
1.00202
1.00474
1.01239
1.02922
1.07534
1.18731
1.49603
2.37547
5.02003
1
1
1
1
1
1
1
1
1
1
1.00001
1.00002
1.00005
1.00014
1.00031
1.00083
1.0019
1.00503
1.01172
1.03028
1.07337
1.18864
1.49154
2.36931
4.99886
1
1
1
1
1
1
1
1
1
1
1.00001
1.00002
1.00005
1.00013
1.00034
1.00076
1.00205
1.00466
1.01246
1.02888
1.07529
1.18573
1.49253
2.36473
4.98863
3.74624
3.13188
4.1064
4.22111
3.95626
3.85614
3.8089
3.73658
3.63736
3.54127
3.45934
3.38184
3.30158
3.2171
3.13073
3.08481
3.06636
3.06199
3.07681
3.12903
3.21823
3.3358
3.47058
3.61135
3.75044
3.88417
4.00995
4.12663
4.23428
4.33354
4.42536
4.51033
4.58924
4.66289
4.72977
4.78914
4.84152
4.88734
4.92666
4.95938
4.99083
5.01568
5.03278
5.04372
5.04911
5.04967
5.04712
5.0398
5.02634
5.0094
4.98923
4.96619
4.94025
4.91172
4.88062
4.84728
4.81184
4.77457
4.73557
4.69513
4.6533
4.61036
4.56638
4.52153
4.47593
4.42969
4.38293
4.33568
4.28807
4.24011
4.19189
4.14342
4.09474
4.04592
3.99697
3.94796
3.89895
3.84997
3.80111
3.75241
3.70393
3.65572
3.60782
3.56026
3.51307
3.46629
3.41994
3.37406
3.32869
3.2839
3.23971
3.1963
3.15374
3.11219
3.07202
3.03367
2.99782
2.96555
2.93839
2.91958
4.6372
4.09277
4.25877
4.15686
3.9335
3.87592
3.86219
3.76447
3.63554
3.52467
3.44451
3.37349
3.294
3.21456
3.13924
3.08559
3.06097
3.05396
3.06622
3.1178
3.2065
3.32437
3.46031
3.60217
3.74172
3.8756
4.00133
4.11805
4.22547
4.32432
4.41585
4.50008
4.5779
4.65207
4.71992
4.77991
4.83265
4.87887
4.91856
4.95258
4.98276
5.00728
5.02502
5.03654
5.04228
5.04296
5.0411
5.03485
5.02151
5.00388
4.98385
4.96122
4.9357
4.90747
4.87666
4.84359
4.80844
4.77141
4.7327
4.69247
4.65091
4.60813
4.56436
4.51965
4.47421
4.42808
4.38141
4.33424
4.28668
4.23876
4.19055
4.14209
4.09342
4.04459
3.99564
3.94662
3.89759
3.84861
3.79975
3.75106
3.70259
3.6544
3.60651
3.55898
3.5118
3.46506
3.41872
3.37288
3.32752
3.28273
3.23851
3.1951
3.15254
3.11105
3.07083
3.03235
2.99626
2.96364
2.93593
2.91641
5.45095
4.68965
4.43438
4.19426
3.97478
3.88248
3.81643
3.72734
3.62045
3.52131
3.4511
3.37931
3.28852
3.20315
3.12927
3.075
3.04873
3.04114
3.05536
3.10373
3.18746
3.3032
3.44011
3.58259
3.72184
3.85736
3.98435
4.102
4.21005
4.30973
4.40224
4.48776
4.56697
4.64117
4.70879
4.76903
4.82225
4.86882
4.90909
4.9435
4.97323
4.99741
5.0154
5.02716
5.03324
5.03392
5.03253
5.02745
5.01569
4.99698
4.97663
4.95425
4.9292
4.90137
4.87099
4.83828
4.80349
4.7668
4.72844
4.68852
4.64726
4.60477
4.56123
4.51675
4.47148
4.42549
4.37893
4.33184
4.28432
4.23642
4.18821
4.13973
4.09102
4.04214
3.99314
3.94407
3.89501
3.846
3.79712
3.74843
3.69997
3.6518
3.60394
3.55641
3.50931
3.46265
3.41633
3.37053
3.32526
3.28059
3.23658
3.19316
3.15058
3.109
3.06869
3.02999
2.99356
2.96036
2.93183
2.91127
5.81746
5.01094
4.5637
4.27411
4.05456
3.9089
3.81797
3.72069
3.61481
3.51414
3.43671
3.36021
3.27554
3.1941
3.12518
3.07768
3.04991
3.03451
3.04272
3.08812
3.17468
3.28854
3.42125
3.56254
3.70217
3.83676
3.96371
4.08155
4.19034
4.2908
4.38404
4.47016
4.54979
4.62356
4.69118
4.7518
4.80555
4.85251
4.8932
4.92793
4.95735
4.98131
4.99946
5.01166
5.01813
5.01907
5.01804
5.01413
5.00459
4.986
4.96516
4.94273
4.91812
4.89093
4.8612
4.82909
4.79487
4.75873
4.72088
4.68146
4.64066
4.5986
4.55544
4.51131
4.46632
4.42059
4.37422
4.3273
4.27989
4.23207
4.1839
4.13543
4.08672
4.03782
3.98879
3.9397
3.89062
3.84162
3.79277
3.74414
3.69572
3.64765
3.59988
3.55235
3.50538
3.45887
3.4128
3.36719
3.32201
3.2774
3.23338
3.19003
3.14745
3.10582
3.06536
3.02644
2.98957
2.95571
2.92617
2.90411
6.00359
5.24151
4.72774
4.38623
4.14516
3.96723
3.84142
3.73446
3.62577
3.52398
3.44163
3.36138
3.27963
3.20278
3.13892
3.09402
3.06655
3.05817
3.06833
3.1058
3.18524
3.28933
3.40886
3.53783
3.6717
3.80406
3.93136
4.05068
4.16129
4.26345
4.35803
4.44546
4.52615
4.60045
4.6683
4.7294
4.78364
4.83114
4.87223
4.90728
4.93675
4.96071
4.97912
4.99176
4.99881
5.00014
4.99937
4.99633
4.98868
4.97274
4.95146
4.92864
4.90427
4.87769
4.84871
4.81737
4.78386
4.74839
4.71115
4.67232
4.63205
4.5905
4.54779
4.50406
4.45941
4.41397
4.36783
4.32109
4.27381
4.22608
4.17795
4.12949
4.08076
4.03183
3.98277
3.93367
3.88459
3.83565
3.78686
3.73835
3.68993
3.64204
3.59445
3.54746
3.50056
3.45416
3.40816
3.36268
3.31761
3.27313
3.22919
3.18595
3.14343
3.10181
3.06127
3.02214
2.9849
2.95038
2.91992
2.8964
6.11738
5.42799
4.90066
4.52263
4.25
4.04764
3.89438
3.77066
3.65707
3.55243
3.46145
3.37945
3.30452
3.24013
3.19098
3.15949
3.14627
3.14808
3.15825
3.1857
3.24271
3.31823
3.40677
3.50716
3.62449
3.75108
3.88215
4.00712
4.12281
4.22845
4.32506
4.41365
4.49519
4.56993
4.63814
4.69973
4.75461
4.80275
4.8444
4.87989
4.90963
4.93384
4.9526
4.96582
4.97359
4.97562
4.97505
4.97273
4.96679
4.95407
4.93367
4.91091
4.88667
4.86058
4.83236
4.8019
4.76927
4.73463
4.69817
4.66005
4.62043
4.57948
4.53731
4.49406
4.44983
4.40476
4.35892
4.31243
4.26533
4.21773
4.16969
4.12127
4.07255
4.02363
3.97457
3.9255
3.87649
3.82764
3.77894
3.73061
3.68272
3.63507
3.5877
3.5408
3.49413
3.44789
3.40203
3.35667
3.31177
3.26742
3.22363
3.18049
3.13807
3.09649
3.05594
3.01665
2.97911
2.94403
2.91276
2.88791
6.1906
5.57399
5.06049
4.66406
4.365
4.13879
3.96473
3.82648
3.70657
3.59915
3.50442
3.42465
3.36358
3.32142
3.29583
3.28647
3.28939
3.29979
3.3197
3.33708
3.35955
3.3878
3.42821
3.49094
3.56108
3.66743
3.80226
3.93791
4.06594
4.18078
4.28257
4.37376
4.45635
4.5315
4.60003
4.66233
4.71813
4.76731
4.80995
4.84636
4.87684
4.90172
4.92117
4.9352
4.94393
4.94702
4.94664
4.94494
4.94048
4.93075
4.91258
4.89069
4.86673
4.84103
4.81346
4.78384
4.75213
4.71841
4.6828
4.64546
4.60657
4.56626
4.52468
4.48195
4.4382
4.39352
4.34803
4.30181
4.25493
4.20748
4.15954
4.11117
4.06249
4.01358
3.96457
3.91551
3.86664
3.81811
3.76986
3.7219
3.67421
3.62682
3.57966
3.53289
3.48643
3.44039
3.39472
3.34955
3.30486
3.2607
3.21712
3.17416
3.13192
3.09046
3.04999
3.01067
2.97298
2.93749
2.90564
2.87964
6.23757
5.68517
5.19798
4.79866
4.48308
4.23705
4.04444
3.89134
3.76382
3.65494
3.56495
3.49806
3.45976
3.44578
3.44904
3.4643
3.50196
3.54221
3.55208
3.54859
3.5357
3.50586
3.48959
3.49809
3.52922
3.59602
3.69588
3.83159
3.97459
4.10672
4.22207
4.32163
4.40844
4.48568
4.5547
4.61762
4.67414
4.72436
4.76815
4.80575
4.83738
4.86342
4.8839
4.89902
4.90896
4.91348
4.91332
4.91221
4.90899
4.90173
4.88697
4.8666
4.84339
4.81825
4.79129
4.76244
4.73163
4.69884
4.66415
4.62768
4.58959
4.55
4.50907
4.46692
4.4237
4.37947
4.33438
4.28847
4.24187
4.1946
4.1468
4.09853
4.04994
4.00113
3.95228
3.90366
3.85519
3.80698
3.759
3.71128
3.66377
3.61659
3.56965
3.5231
3.47688
3.43109
3.3857
3.34078
3.29635
3.25245
3.20913
3.16641
3.12441
3.08316
3.04286
3.00364
2.96595
2.93027
2.89807
2.87133
6.26779
5.76946
5.31292
4.92115
4.59865
4.33901
4.13193
3.96657
3.83249
3.72531
3.64588
3.60151
3.60023
3.60934
3.6412
3.71503
3.81105
3.84235
3.83648
3.81221
3.7536
3.6483
3.56785
3.53873
3.54564
3.57321
3.63561
3.72858
3.85573
3.9972
4.12971
4.24531
4.34408
4.42866
4.5019
4.56664
4.62418
4.67532
4.72003
4.75874
4.79179
4.81905
4.84072
4.85734
4.86861
4.87487
4.87545
4.87479
4.87257
4.86726
4.85619
4.83819
4.81656
4.79243
4.76625
4.73818
4.70821
4.67634
4.64258
4.60704
4.5698
4.53102
4.49081
4.44932
4.40667
4.36296
4.3183
4.27277
4.22643
4.1794
4.13174
4.08363
4.03516
3.98668
3.93829
3.89011
3.84201
3.79412
3.74636
3.69888
3.6516
3.60469
3.55803
3.51179
3.46588
3.42041
3.37534
3.33076
3.28666
3.24309
3.2001
3.15772
3.11604
3.07511
3.03509
2.99613
2.95861
2.92298
2.89071
2.8636
6.28736
5.83444
5.40869
5.03063
4.70869
4.4421
4.22545
4.05227
3.91611
3.81614
3.75812
3.75842
3.77123
3.81337
3.91084
4.078
4.17764
4.17567
4.15565
4.09689
3.97131
3.8119
3.68794
3.61331
3.593
3.59948
3.62421
3.68169
3.76185
3.87081
4.00199
4.12979
4.24623
4.34684
4.43173
4.50332
4.56446
4.61747
4.66369
4.70381
4.7385
4.76708
4.7908
4.80951
4.82269
4.83096
4.83366
4.83328
4.83179
4.82807
4.82014
4.80525
4.78584
4.76323
4.73816
4.711
4.68189
4.65091
4.61808
4.58348
4.54715
4.50923
4.46982
4.42906
4.38705
4.34393
4.29975
4.25463
4.20863
4.16186
4.1144
4.06657
4.0186
3.97065
3.92271
3.87487
3.82708
3.77947
3.73198
3.68479
3.63781
3.5912
3.54488
3.49897
3.45342
3.40831
3.36362
3.31942
3.27571
3.23253
3.18994
3.14797
3.10671
3.06619
3.0266
2.98804
2.95091
2.9156
2.88356
2.85657
6.30047
5.88594
5.48929
5.12814
4.81237
4.54502
4.32486
4.15002
4.02016
3.93813
3.92926
3.94294
3.98913
4.09642
4.31193
4.50145
4.54911
4.53417
4.48202
4.36252
4.16635
3.98253
3.83688
3.73491
3.67568
3.65727
3.66156
3.67954
3.7237
3.79006
3.87659
3.9895
4.11251
4.22966
4.33265
4.41927
4.49097
4.55053
4.6006
4.64306
4.67927
4.70978
4.7352
4.75578
4.7711
4.78172
4.7874
4.78771
4.78699
4.78464
4.7792
4.76802
4.75094
4.73021
4.70663
4.68062
4.65249
4.62238
4.59046
4.55674
4.52134
4.48429
4.44574
4.40575
4.36447
4.32196
4.27833
4.23364
4.188
4.14152
4.09453
4.04727
3.99986
3.95239
3.90484
3.85734
3.80988
3.7626
3.71547
3.66862
3.62202
3.57578
3.52986
3.48435
3.43922
3.39455
3.35031
3.30656
3.26333
3.22064
3.17855
3.13709
3.09636
3.05641
3.0174
2.97945
2.94294
2.90829
2.87681
2.85055
6.31095
5.92886
5.5587
5.21591
4.91061
4.64854
4.43214
4.26587
4.15295
4.12164
4.13418
4.18
4.29075
4.51937
4.78806
4.91783
4.91117
4.87384
4.77609
4.57697
4.35493
4.1627
4.00812
3.88993
3.80495
3.75149
3.72413
3.72507
3.73389
3.76002
3.81297
3.8782
3.96885
4.08295
4.19706
4.30082
4.38989
4.46362
4.52364
4.57238
4.61232
4.64539
4.67283
4.69558
4.713
4.72619
4.73464
4.73788
4.73755
4.73616
4.73263
4.72509
4.71108
4.69276
4.67107
4.64656
4.61966
4.59064
4.5597
4.52696
4.4925
4.45641
4.41877
4.37966
4.33917
4.29737
4.25433
4.21013
4.1649
4.11902
4.07271
4.02611
3.97923
3.93222
3.88509
3.838
3.79094
3.74406
3.69734
3.65091
3.60473
3.55892
3.51344
3.46838
3.42372
3.37953
3.3358
3.29258
3.24989
3.20777
3.16627
3.12543
3.08536
3.04611
3.00787
2.97077
2.93517
2.90158
2.87107
2.84623
6.31985
5.96566
5.62009
5.29693
5.0061
4.75609
4.5541
4.40805
4.34592
4.35514
4.3958
4.50211
4.72835
5.0477
5.25739
5.27804
5.25258
5.17178
4.99619
4.75781
4.5382
4.35129
4.1956
4.06754
3.96409
3.88397
3.82597
3.78982
3.77618
3.77945
3.79412
3.82791
3.87451
3.94703
4.04618
4.15267
4.25539
4.34673
4.4233
4.48502
4.53398
4.57292
4.60421
4.62959
4.64987
4.66538
4.67642
4.68298
4.68407
4.68346
4.68142
4.67663
4.66675
4.65107
4.63145
4.60867
4.58324
4.55551
4.52571
4.494
4.46055
4.42542
4.38872
4.35051
4.31086
4.2698
4.22738
4.18374
4.13922
4.09411
4.0485
4.00252
3.95621
3.90971
3.86308
3.81646
3.76987
3.72346
3.6772
3.63124
3.58554
3.54022
3.49525
3.4507
3.40659
3.36295
3.3198
3.27719
3.23513
3.19368
3.15289
3.11281
3.07356
3.03522
2.99798
2.96203
2.92772
2.89573
2.86674
2.84425
6.32935
5.99857
5.67721
5.37548
5.1046
4.87553
4.7019
4.60395
4.60851
4.64232
4.74039
4.9562
5.30485
5.56481
5.63408
5.6142
5.54529
5.39038
5.15271
4.92362
4.72176
4.54596
4.39212
4.25724
4.13973
4.03931
3.95647
3.8915
3.84605
3.8169
3.81379
3.81911
3.83625
3.87074
3.92189
4.00368
4.10035
4.19953
4.29119
4.36993
4.43425
4.48522
4.52497
4.55595
4.5801
4.59883
4.61238
4.62172
4.62613
4.626
4.62504
4.62232
4.61629
4.60412
4.58703
4.56637
4.54277
4.5166
4.48816
4.45766
4.42531
4.39123
4.35553
4.31827
4.27949
4.23918
4.19745
4.15464
4.11102
4.06673
4.02187
3.97658
3.93091
3.88503
3.83898
3.79293
3.7469
3.70103
3.65531
3.60989
3.56474
3.51997
3.47557
3.43161
3.38811
3.3451
3.30262
3.26069
3.21937
3.17869
3.13875
3.09958
3.06135
3.02416
2.98823
2.95385
2.92134
2.89165
2.86497
2.84544
6.34299
6.03245
5.73476
5.45813
5.21495
5.02184
4.89744
4.89159
4.91939
5.01055
5.21756
5.57821
5.86563
5.96846
5.95422
5.89642
5.76049
5.52791
5.2989
5.09322
4.9097
4.74341
4.59088
4.45048
4.32211
4.20643
4.10451
4.01722
3.94591
3.89033
3.85339
3.83268
3.83377
3.84142
3.8601
3.89815
3.95896
4.04398
4.13537
4.22462
4.30511
4.37303
4.42743
4.4695
4.50139
4.52527
4.54283
4.55485
4.56236
4.56474
4.56435
4.56288
4.55925
4.55157
4.53772
4.51968
4.49825
4.47389
4.44701
4.41789
4.38678
4.35384
4.3192
4.28292
4.24501
4.20549
4.16467
4.12286
4.08019
4.03679
3.99274
3.94822
3.90328
3.8581
3.81272
3.76732
3.72191
3.67665
3.63155
3.58673
3.5422
3.49805
3.4543
3.411
3.36819
3.32589
3.28416
3.24303
3.20256
3.16281
3.12388
3.08584
3.04889
3.01318
2.979
2.94676
2.91677
2.89043
2.86636
2.85051
6.36439
6.07246
5.80023
5.55508
5.35428
5.21775
5.19513
5.22218
5.31243
5.51949
5.88267
6.17811
6.29448
6.28245
6.22809
6.09892
5.87708
5.65481
5.45316
5.27026
5.10068
4.94032
4.78753
4.6422
4.5053
4.37804
4.26175
4.15749
4.06639
3.98911
3.92663
3.87962
3.84884
3.83748
3.83956
3.84817
3.87028
3.91556
3.98273
4.06417
4.14998
4.23152
4.30292
4.36137
4.40673
4.44045
4.46471
4.48157
4.49237
4.49831
4.49916
4.49857
4.49664
4.49214
4.48285
4.46797
4.44905
4.42682
4.40178
4.37427
4.3446
4.31295
4.27948
4.24423
4.2072
4.16865
4.12892
4.08818
4.04653
4.00409
3.96096
3.91731
3.8732
3.82882
3.78421
3.73955
3.69487
3.65031
3.60592
3.5618
3.51798
3.47454
3.43153
3.38898
3.34695
3.30547
3.26461
3.2244
3.18494
3.14628
3.10858
3.07195
3.03664
3.00288
2.97107
2.94177
2.91545
2.89267
2.87196
2.86223
6.40204
6.12569
5.88302
5.68247
5.54499
5.5189
5.54647
5.64058
5.8567
6.22319
6.51489
6.62691
6.61328
6.55365
6.41537
6.19993
5.98642
5.79283
5.61642
5.45053
5.28993
5.13252
4.97847
4.82894
4.68544
4.54952
4.42246
4.30536
4.19918
4.10462
4.02247
3.95356
3.89849
3.85875
3.83511
3.83037
3.83184
3.84117
3.8662
3.9181
3.98879
4.06947
4.15041
4.22451
4.28707
4.33616
4.37252
4.39809
4.41516
4.42528
4.43008
4.43
4.42916
4.42675
4.42141
4.41063
4.39467
4.37495
4.35213
4.32657
4.2986
4.26843
4.23626
4.20207
4.16612
4.12877
4.09023
4.05063
4.01007
3.96869
3.92658
3.8839
3.84073
3.79723
3.75349
3.70965
3.66579
3.62203
3.57843
3.53509
3.49207
3.44944
3.40726
3.36557
3.32444
3.2839
3.24406
3.20493
3.16668
3.12936
3.09321
3.05837
3.02521
2.9941
2.96551
2.94051
2.91797
2.89998
2.88525
2.8831
6.46556
6.2004
5.99954
5.86622
5.85151
5.88281
5.98865
6.22765
6.60291
6.88491
6.97896
6.95984
6.8864
6.72433
6.50491
6.29574
6.10991
5.94227
5.78383
5.62863
5.47308
5.317
5.16167
5.00895
4.86057
4.71817
4.58301
4.45612
4.3384
4.23047
4.13307
4.04664
3.97195
3.91015
3.86208
3.82881
3.81504
3.80648
3.80906
3.82155
3.85145
3.91144
3.98326
4.06183
4.13714
4.20311
4.25665
4.29701
4.32531
4.34365
4.35399
4.35773
4.35746
4.35625
4.35318
4.34666
4.33421
4.31758
4.29744
4.27423
4.2483
4.21991
4.1892
4.15631
4.1217
4.08566
4.04839
4.01001
3.97065
3.93043
3.88943
3.84783
3.80569
3.7632
3.72042
3.67752
3.63458
3.59173
3.54903
3.5066
3.4645
3.42279
3.38157
3.34086
3.30078
3.26134
3.2227
3.18488
3.1481
3.11246
3.07828
3.04582
3.01556
2.98806
2.96423
2.94353
2.92634
2.91591
2.91172
2.91298
6.55532
6.31345
6.17455
6.17765
6.21931
6.34692
6.6275
7.02152
7.29296
7.35993
7.33217
7.23732
7.03769
6.80612
6.59474
6.41231
6.25094
6.10026
5.95234
5.80188
5.64836
5.49264
5.33624
5.1812
5.02927
4.88209
4.74083
4.60649
4.47989
4.36163
4.2523
4.15241
4.06244
3.98306
3.91507
3.85966
3.81782
3.79398
3.77672
3.77059
3.77525
3.79218
3.82992
3.89379
3.96546
4.04002
4.10949
4.16823
4.21374
4.24609
4.26687
4.27798
4.28152
4.2811
4.27947
4.27561
4.26762
4.25438
4.2372
4.21668
4.19319
4.16695
4.13804
4.10681
4.07379
4.03923
4.00336
3.96633
3.92826
3.88929
3.84952
3.80909
3.7681
3.72671
3.68502
3.64317
3.60128
3.55944
3.51779
3.47637
3.43532
3.39467
3.35455
3.31498
3.27612
3.23799
3.20078
3.16458
3.12964
3.09619
3.0646
3.03537
3.0091
2.98698
2.96771
2.95332
2.94475
2.94526
2.948
2.95671
6.71298
6.50033
6.49885
6.54995
6.70814
7.04933
7.47705
7.74091
7.77429
7.73493
7.61288
7.3652
7.11371
6.89398
6.70954
6.55036
6.40416
6.26164
6.11729
5.96838
5.81522
5.65913
5.50179
5.3451
5.19066
5.04001
4.89419
4.75425
4.62079
4.49451
4.37588
4.26525
4.16322
4.07014
3.98659
3.91342
3.85154
3.80245
3.76831
3.74515
3.72732
3.72786
3.7352
3.75605
3.80016
3.86459
3.93669
4.0076
4.0708
4.12198
4.15933
4.18364
4.19681
4.20082
4.20037
4.19856
4.19424
4.1853
4.17124
4.15352
4.13271
4.10887
4.0822
4.05314
4.02207
3.98926
3.955
3.91945
3.88279
3.84518
3.80673
3.76758
3.72785
3.68769
3.64721
3.60654
3.56584
3.52516
3.48469
3.44443
3.4046
3.36516
3.32634
3.28811
3.2507
3.21415
3.17871
3.14455
3.112
3.08143
3.05343
3.02858
3.0085
2.99104
2.97879
2.97505
2.97664
2.98226
2.99687
3.02935
6.8736
6.83934
6.89834
7.08573
7.48837
7.96246
8.22984
8.22572
8.16809
8.01103
7.71426
7.43599
7.20254
7.01094
6.84909
6.7035
6.5636
6.42285
6.27813
6.12827
5.97427
5.8173
5.65905
5.50104
5.34484
5.19152
5.04228
4.89793
4.75922
4.62664
4.50066
4.38172
4.27007
4.16618
4.07038
3.98332
3.90558
3.83825
3.78229
3.73981
3.70946
3.68525
3.67105
3.67359
3.68473
3.71124
3.76445
3.82847
3.89827
3.96442
4.02068
4.0638
4.09308
4.10958
4.11601
4.11564
4.1138
4.10922
4.09971
4.08514
4.06689
4.04548
4.02131
3.99475
3.96605
3.9354
3.90304
3.86921
3.83412
3.798
3.76098
3.72326
3.68491
3.64613
3.607
3.56769
3.5283
3.48896
3.44981
3.41092
3.37246
3.33446
3.29713
3.26051
3.22485
3.19026
3.15708
3.12557
3.09621
3.06966
3.04657
3.02859
3.01369
3.00336
3.00367
3.0066
3.01565
3.0361
3.0722
3.14482
7.07842
7.2262
7.53171
8.03168
8.49913
8.74155
8.72762
8.63642
8.41741
8.0883
7.77972
7.52676
7.32358
7.15478
7.00561
6.86463
6.72446
6.58127
6.43371
6.28148
6.12593
5.96785
5.80863
5.6496
5.49196
5.33673
5.18487
5.03712
4.89418
4.75656
4.6247
4.49899
4.37968
4.26717
4.16168
4.06369
3.97359
3.89207
3.81984
3.75815
3.70742
3.67148
3.63916
3.61539
3.61067
3.61504
3.62959
3.66191
3.71869
3.78304
3.8495
3.91022
3.95962
3.99503
4.01656
4.02653
4.02639
4.02493
4.0207
4.01162
3.9963
3.97712
3.95535
3.9314
3.90536
3.87723
3.84715
3.81537
3.78212
3.7477
3.71228
3.67612
3.6393
3.60205
3.56442
3.52663
3.48873
3.45093
3.41328
3.37597
3.33909
3.30279
3.26723
3.23259
3.19909
3.16703
3.13677
3.10886
3.08393
3.0631
3.04722
3.03489
3.0288
3.03004
3.03537
3.04909
3.07784
3.13294
3.18805
3.28678
7.48453
7.97758
8.61275
9.12398
9.31853
9.28452
9.14455
8.8415
8.47741
8.14586
7.87289
7.65394
7.47418
7.31747
7.17148
7.02826
6.88352
6.73547
6.58371
6.42894
6.27103
6.11162
5.95137
5.79144
5.63252
5.47572
5.32165
5.1712
5.02483
4.88317
4.74655
4.61534
4.48984
4.37035
4.2571
4.15042
4.05059
3.958
3.87319
3.79684
3.72988
3.67279
3.62913
3.59081
3.56118
3.54082
3.54195
3.54898
3.56784
3.60732
3.66467
3.72904
3.79212
3.84695
3.88909
3.91681
3.93115
3.93357
3.93247
3.9288
3.92054
3.90451
3.8853
3.86367
3.84006
3.81446
3.78691
3.75753
3.72652
3.69414
3.66062
3.62622
3.59112
3.55555
3.51961
3.4835
3.44731
3.41122
3.37533
3.33982
3.30481
3.27053
3.23714
3.20495
3.17425
3.14548
3.11923
3.0963
3.07785
3.06472
3.05436
3.05387
3.05639
3.06467
3.08445
3.12494
3.18335
3.26287
3.33367
3.43861
8.24073
9.21876
9.83593
9.98839
9.92457
9.7154
9.29446
8.88605
8.53082
8.24043
8.0062
7.81299
7.64542
7.49077
7.34066
7.19063
7.03873
6.88455
6.72807
6.56998
6.40998
6.24927
6.08799
5.92707
5.76701
5.60877
5.45288
5.30013
5.15094
5.00591
4.86529
4.72953
4.59892
4.47372
4.35417
4.24045
4.13284
4.03148
3.93691
3.84928
3.76943
3.69783
3.63561
3.58434
3.54154
3.50373
3.47604
3.46563
3.4681
3.47791
3.50109
3.54778
3.60534
3.66818
3.72701
3.77531
3.80973
3.82989
3.83702
3.83634
3.83344
3.82634
3.81187
3.79305
3.77137
3.74775
3.7225
3.69562
3.66717
3.63717
3.60591
3.57356
3.54046
3.50677
3.47274
3.43852
3.40426
3.37012
3.33625
3.30285
3.2701
3.23825
3.20761
3.17854
3.15155
3.12725
3.10666
3.09098
3.08059
3.07439
3.07543
3.08051
3.09417
3.12302
3.17455
3.24337
3.32275
3.41357
3.4871
3.57903
9.63626
10.6919
10.7772
10.6612
10.3359
9.80304
9.32462
8.93529
8.62661
8.37907
8.17339
7.99355
7.82747
7.66715
7.50823
7.34901
7.18901
7.02837
6.86713
6.70551
6.54343
6.38097
6.21853
6.0565
5.8954
5.73585
5.57846
5.42374
5.27226
5.1243
4.98037
4.84089
4.70602
4.57609
4.45118
4.33159
4.21749
4.10904
4.00655
3.91014
3.82031
3.73736
3.66204
3.59507
3.5376
3.48993
3.44576
3.41141
3.38721
3.38676
3.39051
3.40308
3.43106
3.4825
3.54103
3.60111
3.65466
3.69626
3.72287
3.73688
3.7368
3.73516
3.73011
3.71905
3.70035
3.67864
3.6552
3.63046
3.6044
3.57692
3.54816
3.51823
3.48744
3.45598
3.42413
3.39205
3.35998
3.32807
3.29655
3.26565
3.23563
3.20686
3.17974
3.15484
3.13294
3.11479
3.10305
3.09465
3.09392
3.09648
3.10517
3.12542
3.16657
3.22694
3.30288
3.39
3.4777
3.56303
3.62392
3.69102
11.2463
11.7316
11.5317
11.0195
10.3493
9.80024
9.36439
9.02989
8.76898
8.55311
8.36217
8.18378
8.011
7.84041
7.67079
7.50208
7.33432
7.1676
7.00173
6.83653
6.67193
6.50736
6.34351
6.18029
6.01803
5.85718
5.69822
5.54164
5.3879
5.23754
5.09084
4.94814
4.80955
4.67558
4.5462
4.42176
4.30233
4.18806
4.07916
3.97568
3.87797
3.78616
3.70077
3.62219
3.55125
3.48846
3.43563
3.38682
3.34486
3.31497
3.30085
3.30205
3.30849
3.32547
3.36103
3.41393
3.47321
3.53016
3.57757
3.6116
3.6316
3.63715
3.63621
3.63266
3.62415
3.60712
3.5864
3.56343
3.53915
3.51385
3.48758
3.46033
3.43221
3.40337
3.37406
3.34451
3.31497
3.28567
3.25694
3.22907
3.20249
3.17768
3.15524
3.13613
3.12106
3.11296
3.10897
3.11019
3.11593
3.13073
3.16157
3.21383
3.28285
3.36582
3.45586
3.54539
3.62388
3.68914
3.72868
3.76966
12.3321
12.2699
11.8213
10.9738
10.3132
9.81643
9.44859
9.17303
8.94762
8.7471
8.55729
8.37163
8.18803
8.00626
7.82667
7.64961
7.47505
7.30278
7.13236
6.96337
6.79557
6.62873
6.46277
6.29806
6.13454
5.97236
5.81195
5.65371
5.49798
5.34532
5.19587
5.05028
4.90846
4.77102
4.63782
4.50926
4.38534
4.26621
4.15201
4.04275
3.93867
3.83985
3.74658
3.65913
3.57797
3.50369
3.4367
3.37926
3.32602