/*--------------------------------*- C++ -*----------------------------------*\
  =========                 |
  \\      /  F ield         | OpenFOAM: The Open Source CFD Toolbox
   \\    /   O peration     | Website:  https://openfoam.org
    \\  /    A nd           | Version:  13
     \\/     M anipulation  |
\*---------------------------------------------------------------------------*/
FoamFile
{
    format      ascii;
    class       surfaceScalarField;
    location    "8";
    object      phi;
}
// * * * * * * * * * * * * * * * * * * * * * * * * * * * * * * * * * * * * * //

dimensions      [1 0 -1 0 0 0 0];

internalField   nonuniform List<scalar> 
10325
(
0.00840003
1.27347e-10
0.00840002
5.71231e-10
0.00840009
1.72178e-09
0.00839989
5.57597e-09
0.00840028
1.38068e-08
0.00839943
3.16441e-08
0.00840069
1.17011e-07
0.00839801
1.39098e-07
0.00840138
7.65562e-07
0.00839359
8.50628e-07
0.00839892
3.914e-06
0.00838008
8.34589e-06
0.00835342
3.09081e-05
0.00822896
0.000119001
0.00763008
0.000588482
0.00701032
0.000621069
0.00640098
0.000610045
0.00576679
0.000633872
0.00510011
0.000666237
0.00438903
0.000710446
0.00362282
0.000765526
0.0028001
0.000822022
0.00192478
0.000874547
0.000994938
0.000929439
0.000994511
0.00840003
1.68008e-10
0.00840005
1.03636e-09
0.00839997
3.51137e-09
0.00840019
1.00656e-08
0.00839968
2.53457e-08
0.00840075
6.80283e-08
0.00839838
1.55699e-07
0.00840235
4.16915e-07
0.00839453
9.71243e-07
0.00840437
2.55105e-06
0.00838567
6.57596e-06
0.00839081
1.89534e-05
0.00834913
6.13249e-05
0.00822683
0.000241384
0.00762209
0.00118053
0.00699635
0.00124805
0.00639525
0.00121195
0.00576746
0.00126133
0.00510382
0.00132943
0.00438626
0.00142738
0.00361162
0.00153948
0.00278069
0.00165225
0.00189407
0.00176039
0.000959962
0.00186314
0.00195403
0.00840003
2.91087e-10
0.00840005
1.22281e-09
0.00839996
6.10325e-09
0.0084002
1.15496e-08
0.00839965
4.52364e-08
0.0084009
7.77667e-08
0.00839802
2.78568e-07
0.00840325
5.26533e-07
0.00839303
1.60118e-06
0.00840656
3.66766e-06
0.00838306
1.01117e-05
0.00839312
2.84568e-05
0.00834818
9.21748e-05
0.00823223
0.000358821
0.00763984
0.00175949
0.00701164
0.00187776
0.00641714
0.00180732
0.00579742
0.0018807
0.00513967
0.00198671
0.00442376
0.00214266
0.00364821
0.00231442
0.00281135
0.00248853
0.00191534
0.00265566
0.000967601
0.00281047
0.00292119
0.00840003
1.97121e-10
0.00840002
2.59841e-09
0.00840003
4.96086e-09
0.00839999
2.53792e-08
0.0084001
3.73896e-08
0.00839953
1.68889e-07
0.00840088
2.30037e-07
0.00839695
1.03027e-06
0.00840373
1.58085e-06
0.00839083
5.75527e-06
0.008401
1.24868e-05
0.00837835
3.87462e-05
0.00835794
0.000121243
0.00824036
0.000467018
0.00768072
0.00230745
0.00705675
0.00250383
0.0064691
0.00239601
0.00586025
0.00248923
0.00521228
0.00263432
0.00450475
0.00284956
0.00373093
0.00308734
0.0028915
0.00332681
0.00198058
0.00356558
0.00100801
0.00378261
0.00392874
0.00840003
5.48486e-10
0.00840004
1.90991e-09
0.00840002
1.06073e-08
0.00840004
1.879e-08
0.00839988
7.78524e-08
0.00840031
1.277e-07
0.00839869
4.9122e-07
0.00840219
8.18565e-07
0.00839378
2.88889e-06
0.00840542
5.70153e-06
0.00838583
1.73659e-05
0.00839148
4.5868e-05
0.00835056
0.00015005
0.00825788
0.00056166
0.00776013
0.00279125
0.0071322
0.00313417
0.00655233
0.00297693
0.00595575
0.00308545
0.00532098
0.00326854
0.00462791
0.00354212
0.00386294
0.00385196
0.00302072
0.00416901
0.00209326
0.00449267
0.00107608
0.00479971
0.00500449
0.00840003
3.22121e-10
0.00840001
3.52513e-09
0.00840007
8.102e-09
0.00839991
3.45261e-08
0.00840031
6.15836e-08
0.00839919
2.21891e-07
0.00840182
4.02128e-07
0.00839536
1.33427e-06
0.00840822
2.65081e-06
0.00838387
7.90308e-06
0.00841164
1.87902e-05
0.00837235
5.51131e-05
0.00837117
0.000172253
0.00828022
0.000637479
0.00790514
0.00315408
0.00726529
0.00377735
0.00668362
0.00356002
0.0060971
0.00367173
0.00547848
0.00388682
0.00480228
0.00421788
0.00405085
0.00460279
0.00320755
0.00501145
0.00225724
0.00544203
0.00118421
0.0058718
0.00618807
0.00840003
6.18226e-10
0.00840005
2.839e-09
0.00839998
1.26679e-08
0.00840013
2.74634e-08
0.00839973
9.31617e-08
0.00840072
1.88378e-07
0.00839816
5.71208e-07
0.00840408
1.22221e-06
0.00839101
3.40668e-06
0.00841219
8.04131e-06
0.00838013
2.16656e-05
0.00840426
5.95589e-05
0.00836511
0.000187208
0.00833187
0.000678513
0.00816209
0.00330646
0.00750464
0.00443833
0.00689213
0.0041741
0.00630433
0.00425938
0.00570093
0.00448998
0.00504262
0.00487578
0.0043066
0.00533809
0.00346986
0.00584742
0.00249938
0.00641196
0.00135349
0.00701783
0.00754138
0.00840003
4.74308e-10
0.00840001
3.37972e-09
0.0084001
1.06563e-08
0.00839988
3.31641e-08
0.00840041
8.00895e-08
0.0083992
2.20908e-07
0.00840204
5.15441e-07
0.0083959
1.36892e-06
0.00840817
3.26376e-06
0.00838667
8.54806e-06
0.00841507
2.17535e-05
0.00838192
6.06486e-05
0.00840552
0.000186726
0.00840451
0.000664221
0.00858999
0.00310744
0.0079034
0.00512914
0.00721746
0.00486203
0.00661416
0.0048629
0.00601841
0.00508566
0.00537535
0.00551872
0.00465683
0.00605669
0.00382961
0.00667424
0.00285364
0.00738709
0.00163244
0.0082384
0.00917357
0.00840003
5.17008e-10
0.00840002
2.84372e-09
0.00840008
1.08341e-08
0.00839994
2.77303e-08
0.00840027
8.02109e-08
0.00839955
1.84797e-07
0.00840127
5.10026e-07
0.00839782
1.14689e-06
0.00840491
3.1277e-06
0.00839412
7.28503e-06
0.00841307
1.96108e-05
0.00840089
5.1806e-05
0.00844704
0.000156727
0.00856437
0.000535338
0.00931636
0.00234067
0.0085895
0.00585908
0.00771274
0.00574068
0.00708998
0.00548639
0.00645522
0.00572082
0.00582917
0.00614446
0.00512624
0.00675959
0.00434863
0.00745182
0.00341881
0.00831667
0.00212279
0.00953411
0.0112961
0.00840003
4.394e-10
0.00840002
2.58171e-09
0.00840008
9.24757e-09
0.00839993
2.53014e-08
0.00840033
6.81592e-08
0.0083994
1.66466e-07
0.00840177
4.27535e-07
0.00839688
1.02098e-06
0.00840828
2.61815e-06
0.00838905
6.29004e-06
0.00842228
1.63471e-05
0.00839577
4.28215e-05
0.00845578
0.000125313
0.00855882
0.000414026
0.00915725
0.00173871
0.00885726
0.00615445
0.00814429
0.00645213
0.00755056
0.00608089
0.00694738
0.00632373
0.00636502
0.00672655
0.00574523
0.00737922
0.00507073
0.00812632
0.00420765
0.00917963
0.00296969
0.0107718
0.014265
0.00840003
3.03547e-10
0.00840002
2.71421e-09
0.00840005
7.21132e-09
0.00839998
2.64445e-08
0.00840018
5.40231e-08
0.00839964
1.72849e-07
0.00840107
3.42047e-07
0.00839769
1.05536e-06
0.0084059
2.15057e-06
0.0083905
6.28062e-06
0.00841685
1.42417e-05
0.00839011
3.99248e-05
0.0084288
0.000111485
0.00845879
0.000366796
0.00873135
0.00146554
0.00870485
0.0061687
0.00844569
0.00670835
0.00786963
0.00665611
0.00739707
0.00679565
0.0069155
0.00720765
0.00646843
0.00782581
0.00596603
0.00862833
0.00550762
0.0096378
0.00543481
0.0108445
0.0113586
0.00834114
0.00840003
4.42096e-10
0.00840004
2.0766e-09
0.00840003
8.90736e-09
0.00840004
2.02421e-08
0.00839997
6.55996e-08
0.00840021
1.34661e-07
0.00839939
4.13987e-07
0.00840163
8.36302e-07
0.00839637
2.50597e-06
0.00840689
5.30121e-06
0.00839095
1.50392e-05
0.00841201
3.68086e-05
0.00839811
0.000107416
0.00843595
0.000341351
0.00858715
0.00130216
0.00872174
0.00602259
0.00840381
0.00702547
0.00802974
0.00702987
0.00769844
0.00712648
0.0073483
0.00755727
0.00702531
0.00814842
0.00675481
0.00889855
0.00664484
0.00974724
0.00701378
0.010475
0.0104648
0.00790616
0.00840003
3.50607e-10
0.00840003
2.26924e-09
0.00840004
7.72961e-09
0.00840002
2.22584e-08
0.00840009
5.76753e-08
0.00839981
1.48376e-07
0.00840064
3.63416e-07
0.00839835
9.18751e-07
0.00840406
2.22697e-06
0.00839218
5.67538e-06
0.00841241
1.40294e-05
0.00838729
3.70225e-05
0.00841523
0.000102594
0.00841227
0.000324252
0.00853212
0.001188
0.00892146
0.0056174
0.00860655
0.00734063
0.0082749
0.00736179
0.0079873
0.00741382
0.00775289
0.00779102
0.00754513
0.00835566
0.00745314
0.00898983
0.00760332
0.00959711
0.00804529
0.0100324
0.00993681
0.00857209
0.00840003
3.21428e-10
0.00840003
2.2379e-09
0.00840004
7.0285e-09
0.0084
2.18099e-08
0.00840011
5.24831e-08
0.00839981
1.43869e-07
0.00840064
3.37473e-07
0.00839858
8.81689e-07
0.00840382
2.12622e-06
0.00839309
5.38984e-06
0.00841281
1.35086e-05
0.00838824
3.49808e-05
0.00842116
9.63766e-05
0.00842547
0.00029627
0.0085687
0.00105323
0.00945588
0.00471298
0.00906952
0.00772806
0.00863323
0.00779913
0.00834816
0.00769925
0.00816506
0.00797362
0.00807025
0.00844991
0.00809931
0.00896064
0.00829553
0.00940042
0.0086735
0.00965385
0.00950297
0.00910664
0.00840003
2.64675e-10
0.00840004
1.86331e-09
0.00840002
6.04297e-09
0.00840007
1.81583e-08
0.00839997
4.49939e-08
0.00840024
1.21666e-07
0.00839979
2.79762e-07
0.00840074
7.65824e-07
0.00839969
1.68953e-06
0.00840241
4.70447e-06
0.0084017
1.05978e-05
0.00841286
2.90426e-05
0.00842631
7.45305e-05
0.00850533
0.000222875
0.00880918
0.000743873
0.010428
0.00307686
0.00979888
0.00835833
0.00933456
0.00826468
0.00886734
0.00816746
0.00863404
0.00820683
0.00856125
0.00852239
0.00861806
0.00890341
0.00881598
0.00920267
0.00913772
0.00933163
0.00914875
0.00949068
0.00840003
2.34775e-10
0.00840003
1.51242e-09
0.00840004
5.09867e-09
0.00840002
1.47709e-08
0.00840006
3.79707e-08
0.00840004
9.6638e-08
0.00840005
2.4081e-07
0.00840045
5.85614e-07
0.00839952
1.47759e-06
0.00840343
3.53416e-06
0.00839897
9.02879e-06
0.00841499
2.21637e-05
0.00841984
5.88768e-05
0.00848464
0.000165729
0.00868422
0.000536246
0.00965708
0.00210053
0.0101225
0.00788629
0.00978811
0.00859803
0.00933017
0.00862477
0.00909101
0.00844616
0.00901859
0.00859466
0.0090677
0.00885407
0.00923078
0.00903941
0.00949302
0.00906947
0.00886565
0.00977564
0.00840003
2.29569e-10
0.00840003
1.18646e-09
0.00840003
4.76918e-09
0.00840005
1.1606e-08
0.0084
3.50268e-08
0.00840016
7.75495e-08
0.00839977
2.18457e-07
0.00840095
4.81116e-07
0.00839842
1.31285e-06
0.00840538
2.9722e-06
0.00839324
7.88706e-06
0.00841869
1.88641e-05
0.0083979
5.02566e-05
0.00845392
0.000137864
0.00853044
0.000435117
0.00902427
0.00161392
0.0100475
0.00684635
0.00992634
0.00871721
0.00970718
0.0088429
0.00947007
0.00868324
0.00939585
0.00866844
0.00944591
0.00880385
0.00957911
0.00890622
0.00977873
0.00886988
0.00864637
0.00999805
0.00840003
1.57997e-10
0.00840003
1.18151e-09
0.00840004
3.55786e-09
0.00840002
1.14637e-08
0.00840008
2.66698e-08
0.00839994
7.48351e-08
0.00840035
1.70081e-07
0.00839943
4.57198e-07
0.00840207
1.05689e-06
0.0083968
2.75747e-06
0.00840984
6.60305e-06
0.00839042
1.69818e-05
0.00842701
4.31714e-05
0.00841337
0.000118801
0.00851086
0.000361217
0.00882908
0.00127875
0.010338
0.0053248
0.0102814
0.00877459
0.0100588
0.00906624
0.00981418
0.00892842
0.00973186
0.0087511
0.00976607
0.00876943
0.00987274
0.00879955
0.0100222
0.00872064
0.00848562
0.0101826
0.00840003
1.39062e-10
0.00840003
8.56332e-10
0.00840003
3.02548e-09
0.00840005
8.39398e-09
0.0084
2.23667e-08
0.00840016
5.58743e-08
0.00839984
1.38877e-07
0.00840082
3.44995e-07
0.00839906
8.37931e-07
0.00840435
2.10646e-06
0.00839616
5.05759e-06
0.00841789
1.28929e-05
0.00840224
3.18274e-05
0.00846627
8.53444e-05
0.00855382
0.000244241
0.0090395
0.000805117
0.0111897
0.00315276
0.0109141
0.00904908
0.0107052
0.00927721
0.0103494
0.00928548
0.010136
0.00896506
0.0100937
0.00881211
0.0101496
0.00874351
0.0102496
0.0086205
0.00837608
0.0103593
0.00840003
1.08698e-10
0.00840003
6.7328e-10
0.00840003
2.35402e-09
0.00840003
6.57867e-09
0.00840004
1.74156e-08
0.00840007
4.33685e-08
0.00839999
1.09106e-07
0.00840041
2.64767e-07
0.00839954
6.59801e-07
0.00840275
1.59395e-06
0.0083974
3.9765e-06
0.00841386
9.70372e-06
0.00839828
2.45007e-05
0.00845021
6.30225e-05
0.00848657
0.000176011
0.00876068
0.000554066
0.00980693
0.00208703
0.0110981
0.00775034
0.0109884
0.00938699
0.01076
0.00951457
0.0105086
0.00921756
0.0104073
0.00891364
0.0104133
0.00873775
0.0104666
0.00856666
0.00831128
0.0105309
0.00840003
9.15111e-11
0.00840003
5.19848e-10
0.00840003
1.94382e-09
0.00840003
5.07237e-09
0.00840003
1.43468e-08
0.00840006
3.37409e-08
0.00839999
8.94579e-08
0.00840032
2.08766e-07
0.00839963
5.38603e-07
0.00840204
1.27763e-06
0.00839775
3.23047e-06
0.00841039
7.88274e-06
0.00839534
1.9841e-05
0.00843492
5.07126e-05
0.00844193
0.000138363
0.00859876
0.000420487
0.00916701
0.00150058
0.0110362
0.00587058
0.0111681
0.00925517
0.0110765
0.00960631
0.0108327
0.0094617
0.0106986
0.00904838
0.0106608
0.00877492
0.0106763
0.00855083
0.00828161
0.0107054
0.00840003
6.62694e-11
0.00840003
4.1249e-10
0.00840004
1.41959e-09
0.00840003
4.02505e-09
0.00840006
1.05334e-08
0.00840001
2.63304e-08
0.00840016
6.67227e-08
0.00839993
1.59203e-07
0.0084007
4.07237e-07
0.00839968
9.5447e-07
0.0084029
2.46622e-06
0.0084004
5.76601e-06
0.00841268
1.49902e-05
0.00841487
3.6463e-05
0.00846929
9.81947e-05
0.00859556
0.000279204
0.00917682
0.000922721
0.0115601
0.00346907
0.0116516
0.00916176
0.01156
0.00969896
0.0113205
0.00970205
0.0110494
0.00931983
0.010932
0.00889222
0.0108964
0.00858505
0.00828904
0.0108882
0.00840003
4.70346e-11
0.00840003
3.08689e-10
0.00840003
1.04377e-09
0.00840003
3.02032e-09
0.00840004
7.72483e-09
0.00840003
2.00009e-08
0.00840009
4.79838e-08
0.00839998
1.22603e-07
0.00840052
2.8797e-07
0.00839956
7.38237e-07
0.00840331
1.72726e-06
0.00839766
4.42796e-06
0.00841696
1.04898e-05
0.00840016
2.69969e-05
0.00846572
6.80126e-05
0.00851644
0.00018943
0.00888104
0.000587215
0.0101766
0.0021511
0.0117783
0.00755414
0.0118126
0.00966415
0.0116347
0.0098797
0.0113586
0.00959625
0.0112247
0.00902506
0.0111366
0.00867227
0.00833652
0.0110871
0.00840003
3.69571e-11
0.00840003
2.30048e-10
0.00840003
7.96587e-10
0.00840003
2.24261e-09
0.00840005
5.88808e-09
0.00840002
1.47578e-08
0.00840011
3.68775e-08
0.00839997
9.02475e-08
0.00840043
2.23977e-07
0.00839976
5.42714e-07
0.00840208
1.35179e-06
0.00839907
3.27665e-06
0.00840923
8.20179e-06
0.00840243
2.02197e-05
0.00843771
5.17254e-05
0.00846454
0.000138473
0.00865779
0.000413029
0.00935521
0.00143863
0.0117017
0.00519747
0.0119625
0.00940003
0.0120048
0.00983636
0.0118316
0.0097686
0.0115219
0.00933377
0.0113916
0.00880133
0.00841868
0.0113085
0.00840003
2.50766e-11
0.00840003
1.6684e-10
0.00840003
5.55112e-10
0.00840003
1.63049e-09
0.00840004
4.10453e-09
0.00840003
1.071e-08
0.00840008
2.55453e-08
0.00839999
6.50298e-08
0.00840035
1.53698e-07
0.00839985
3.87647e-07
0.00840184
9.18605e-07
0.00839941
2.30276e-06
0.00840914
5.5194e-06
0.00840222
1.3803e-05
0.00844102
3.40931e-05
0.00846102
8.87406e-05
0.00865505
0.00024725
0.00928912
0.000784713
0.0116832
0.00280212
0.0124422
0.00863234
0.0123668
0.00990959
0.0121493
0.00998436
0.0118319
0.00964981
0.011666
0.0089648
0.00854374
0.0115393
0.00840003
1.84918e-11
0.00840003
1.18248e-10
0.00840003
4.03228e-10
0.00840003
1.15162e-09
0.00840004
2.98942e-09
0.00840003
7.52843e-09
0.00840007
1.86579e-08
0.00840002
4.56521e-08
0.00840018
1.12205e-07
0.00840009
2.72201e-07
0.00840056
6.71527e-07
0.008401
1.62185e-06
0.00840224
4.01158e-06
0.00840686
9.78249e-06
0.00841515
2.44037e-05
0.00844227
6.18357e-05
0.00852233
0.000167217
0.00880082
0.000504697
0.00980195
0.00179563
0.0122072
0.00621
0.012471
0.00964227
0.0125267
0.00992558
0.0123144
0.00985955
0.0119773
0.00930191
0.00873012
0.0117886
0.00840003
1.3162e-11
0.00840003
8.2356e-11
0.00840003
2.83297e-10
0.00840003
8.03867e-10
0.00840004
2.09047e-09
0.00840003
5.23612e-09
0.00840006
1.31105e-08
0.00840003
3.14036e-08
0.00840016
7.91983e-08
0.00840005
1.85907e-07
0.00840053
4.73039e-07
0.00840067
1.10014e-06
0.00840193
2.82274e-06
0.00840525
6.57741e-06
0.0084116
1.69128e-05
0.00843317
4.10128e-05
0.00849071
0.000108877
0.00868812
0.000305422
0.00948049
0.000998289
0.0121968
0.00347432
0.0128313
0.00900284
0.0128344
0.00992041
0.0126235
0.0100682
0.0123079
0.00961504
0.00896452
0.0120724
0.00840003
8.69081e-12
0.00840003
5.67061e-11
0.00840003
1.92616e-10
0.00840003
5.54032e-10
0.00840003
1.42158e-09
0.00840003
3.64692e-09
0.00840004
8.76645e-09
0.00840003
2.22173e-08
0.00840012
5.22129e-08
0.00839999
1.3246e-07
0.00840066
3.10129e-07
0.00839969
7.86191e-07
0.00840384
1.84178e-06
0.00839868
4.67526e-06
0.00841931
1.10986e-05
0.00840551
2.8218e-05
0.00848068
7.05702e-05
0.00855016
0.00019264
0.00899733
0.000584184
0.0104006
0.00204472
0.0126968
0.00669785
0.0128863
0.00972821
0.0130091
0.009943
0.0127307
0.00989185
0.00928479
0.0124075
0.00840003
6.04063e-12
0.00840003
3.87739e-11
0.00840003
1.31953e-10
0.00840003
3.78381e-10
0.00840003
9.7131e-10
0.00840003
2.4757e-09
0.00840004
6.03497e-09
0.00840003
1.49456e-08
0.00840009
3.62109e-08
0.00840004
8.86174e-08
0.00840031
2.15245e-07
0.00840029
5.23361e-07
0.00840105
1.28249e-06
0.00840247
3.09552e-06
0.00840528
7.66327e-06
0.00841554
1.86956e-05
0.00843804
4.71448e-05
0.00850545
0.000122642
0.00873945
0.000350819
0.00962038
0.0011571
0.0124059
0.00389419
0.0131504
0.00897817
0.0131876
0.00990258
0.0130309
0.0100455
0.00958687
0.0127271
0.00840003
4.10706e-12
0.00840003
2.58112e-11
0.00840003
8.89475e-11
0.00840003
2.51773e-10
0.00840003
6.56411e-10
0.00840003
1.63887e-09
0.00840004
4.09415e-09
0.00840003
9.83205e-09
0.00840007
2.45146e-08
0.00840005
5.81101e-08
0.0084002
1.45622e-07
0.00840027
3.42346e-07
0.00840066
8.60718e-07
0.0084021
2.0301e-06
0.00840287
5.0849e-06
0.00841337
1.21809e-05
0.00842235
3.05827e-05
0.0084767
7.69085e-05
0.00860846
0.000209105
0.00913594
0.000634583
0.0108494
0.00217035
0.0130612
0.00675169
0.0132171
0.00974231
0.0133444
0.00991166
0.00976759
0.0131557
0.00840003
2.57857e-12
0.00840003
1.75429e-11
0.00840003
5.70893e-11
0.00840003
1.70646e-10
0.00840003
4.2257e-10
0.00840003
1.10641e-09
0.00840004
2.63011e-09
0.00840003
6.63169e-09
0.00840006
1.5816e-08
0.00840002
3.89109e-08
0.00840022
9.43462e-08
0.00840001
2.27589e-07
0.00840107
5.61799e-07
0.00840011
1.33174e-06
0.00840535
3.34266e-06
0.00840251
7.87719e-06
0.00842529
2.00244e-05
0.00843409
4.85909e-05
0.00853702
0.000128809
0.00878467
0.000362929
0.00976499
0.00119741
0.0126097
0.00388398
0.0134813
0.00886017
0.0133451
0.010039
0.00972412
0.0133755
0.00840003
1.77941e-12
0.00840003
1.08184e-11
0.00840003
3.86775e-11
0.00840003
1.05903e-10
0.00840003
2.83588e-10
0.00840003
6.97455e-10
0.00840003
1.73148e-09
0.00840004
4.24287e-09
0.00840004
1.01799e-08
0.00840006
2.53862e-08
0.00840009
5.93854e-08
0.00840012
1.50721e-07
0.00840052
3.46949e-07
0.00840022
8.91226e-07
0.00840351
2.04069e-06
0.0084011
5.25577e-06
0.00841974
1.22049e-05
0.0084165
3.14279e-05
0.0084961
7.72429e-05
0.00861579
0.000211205
0.00919707
0.000635245
0.0109285
0.00213381
0.0133245
0.00644738
0.0136169
0.00972927
0.00983861
0.0134796
0.00840003
1.10966e-12
0.00840003
7.09022e-12
0.00840003
2.40258e-11
0.00840003
6.90179e-11
0.00840003
1.76881e-10
0.00840003
4.46204e-10
0.00840003
1.10144e-09
0.00840003
2.65136e-09
0.00840004
6.59114e-09
0.00840004
1.54962e-08
0.00840008
3.89611e-08
0.0084001
9.035e-08
0.00840024
2.29383e-07
0.00840065
5.28086e-07
0.00840085
1.34416e-06
0.00840443
3.10767e-06
0.00840465
7.87829e-06
0.0084253
1.86278e-05
0.00844172
4.73465e-05
0.00854658
0.000120608
0.00882131
0.000341818
0.00985744
0.00110181
0.0127712
0.00350703
0.0138563
0.0086201
0.00974854
0.0138937
0.00840003
6.56217e-13
0.00840003
4.43842e-12
0.00840003
1.46598e-11
0.00840003
4.33058e-11
0.00840003
1.07551e-10
0.00840003
2.82622e-10
0.00840003
6.56966e-10
0.00840003
1.70024e-09
0.00840004
3.87964e-09
0.00840004
9.99373e-09
0.00840008
2.2811e-08
0.00840004
5.81993e-08
0.00840032
1.34618e-07
0.00840002
3.37498e-07
0.00840179
7.95385e-07
0.0084001
1.96167e-06
0.00840972
4.72362e-06
0.00840332
1.14918e-05
0.0084449
2.85069e-05
0.00846005
7.11323e-05
0.0086449
0.000191521
0.00913421
0.000574364
0.0107189
0.0019255
0.0135618
0.00573077
0.00912108
0.0141189
0.00840003
4.29805e-13
0.00840003
2.46073e-12
0.00840003
9.17944e-12
0.00840003
2.39551e-11
0.00840003
6.6935e-11
0.00840003
1.55881e-10
0.00840003
4.07488e-10
0.00840003
9.31209e-10
0.00840003
2.36662e-09
0.00840005
5.47733e-09
0.00840003
1.35803e-08
0.00840011
3.20437e-08
0.00840005
7.74366e-08
0.00840047
1.87545e-07
0.00840023
4.40542e-07
0.00840225
1.0922e-06
0.00840208
2.51573e-06
0.00841079
6.35727e-06
0.00841766
1.46578e-05
0.00845985
3.75648e-05
0.00854075
9.35641e-05
0.00885807
0.000264417
0.00991581
0.00084519
0.0128912
0.00271391
0.00750716
0.0144152
0.00840003
2.2035e-13
0.00840003
1.46389e-12
0.00840003
4.81183e-12
0.00840003
1.42481e-11
0.00840003
3.52639e-11
0.00840003
9.04233e-11
0.00840003
2.16608e-10
0.00840003
5.24527e-10
0.00840004
1.27569e-09
0.00840003
2.97358e-09
0.00840005
7.40157e-09
0.00840004
1.67754e-08
0.00840011
4.26446e-08
0.00840015
9.4517e-08
0.00840031
2.44044e-07
0.00840106
5.33949e-07
0.00840096
1.38663e-06
0.00840705
3.04569e-06
0.0084062
7.84296e-06
0.00843694
1.79779e-05
0.00846286
4.64385e-05
0.00861708
0.000121412
0.00905526
0.000370948
0.0104401
0.00128727
0.00411753
0.0136568
0.00840003
1.12435e-13
0.00840003
7.68615e-13
0.00840003
2.52326e-12
0.00840003
7.45617e-12
0.00840003
1.83197e-11
0.00840003
4.75237e-11
0.00840003
1.09292e-10
0.00840003
2.76649e-10
0.00840003
6.22465e-10
0.00840003
1.55847e-09
0.00840004
3.52931e-09
0.00840003
8.62096e-09
0.00840011
1.99308e-08
0.00839999
4.73104e-08
0.00840053
1.12223e-07
0.00839971
2.57961e-07
0.00840298
6.26737e-07
0.00839862
1.41011e-06
0.00841457
3.48199e-06
0.00840133
7.87426e-06
0.00845577
1.9805e-05
0.0084841
4.95409e-05
0.00872567
0.000141104
0.00949151
0.000463108
0.00173305
0.0117415
0.00840003
6.35588e-14
0.00840003
3.67744e-13
0.00840003
1.35593e-12
0.00840003
3.57657e-12
0.00840003
9.76859e-12
0.00840003
2.29487e-11
0.00840003
5.73677e-11
0.00840003
1.32654e-10
0.00840003
3.21782e-10
0.00840004
7.38557e-10
0.00840003
1.77304e-09
0.00840004
4.12146e-09
0.00840005
9.64449e-09
0.00840002
2.26693e-08
0.00840024
5.23851e-08
0.00839973
1.23804e-07
0.00840157
2.82883e-07
0.00839809
6.67962e-07
0.00840828
1.52936e-06
0.00839424
3.63432e-06
0.00842673
8.56073e-06
0.00841827
2.15184e-05
0.00850665
5.81247e-05
0.00873108
0.000177495
0.000687297
0.00962315
0.00840003
2.83164e-14
0.00840003
2.13258e-13
0.00840003
6.55718e-13
0.00840003
2.06551e-12
0.00840003
4.68243e-12
0.00840003
1.3075e-11
0.00840003
2.7352e-11
0.00840003
7.4647e-11
0.00840003
1.52274e-10
0.00840003
4.17055e-10
0.00840003
8.31899e-10
0.00840003
2.29373e-09
0.00840005
4.62449e-09
0.00839999
1.22126e-08
0.00840019
2.62174e-08
0.0083996
6.46996e-08
0.00840121
1.47197e-07
0.00839743
3.42151e-07
0.00840598
8.29428e-07
0.00839029
1.85543e-06
0.0084137
4.64017e-06
0.00838907
1.14216e-05
0.00841758
3.19876e-05
0.00843823
9.87432e-05
0.000391067
0.00856563
0.00840003
2.36744e-14
0.00840003
9.22427e-14
0.00840003
4.52883e-13
0.00840003
8.58862e-13
0.00840003
3.329e-12
0.00840003
5.04581e-12
0.00840003
2.02807e-11
0.00840003
2.77866e-11
0.00840003
1.13568e-10
0.00840004
1.55633e-10
0.00840003
6.145e-10
0.00840004
9.09237e-10
0.00840002
3.16717e-09
0.00840004
5.85035e-09
0.00840001
1.58706e-08
0.00839989
3.70449e-08
0.00840028
8.24208e-08
0.00839849
2.32551e-07
0.00840195
4.40816e-07
0.0083936
1.37905e-06
0.00840196
2.67415e-06
0.00838583
8.16351e-06
0.00838527
2.18917e-05
0.00836311
7.39842e-05
0.000317292
0.00826426
0.00840003
9.00078e-15
0.00840003
9.39045e-14
0.00840003
2.0753e-13
0.00840003
9.12289e-13
0.00840003
1.41743e-12
0.00840003
6.19531e-12
0.00840003
7.55384e-12
0.00840003
3.83948e-11
0.00840003
3.39431e-11
0.00840003
2.27294e-10
0.00840004
1.32268e-10
0.00840002
1.29052e-09
0.00840006
6.91777e-10
0.00839993
7.00495e-09
0.00840026
5.48061e-09
0.00839939
3.63017e-08
0.00840143
4.26234e-08
0.0083965
1.87817e-07
0.00840625
3.1808e-07
0.00838635
9.43695e-07
0.00841041
2.21722e-06
0.0083734
5.70327e-06
0.00838445
1.77722e-05
0.00834794
6.00042e-05
0.000276505
0.00822306
0.00840003
1.22974e-14
0.00840003
4.784e-14
0.00840003
2.23973e-13
0.00840003
4.50395e-13
0.00840003
1.64572e-12
0.00840003
2.50976e-12
0.00840003
1.06915e-11
0.00840003
1.29726e-11
0.00840003
6.68856e-11
0.00840003
5.87131e-11
0.00840003
4.0439e-10
0.00840005
2.55325e-10
0.00839999
2.36942e-09
0.00840012
7.52834e-10
0.00839981
1.32577e-08
0.00840049
5.81706e-09
0.00839884
7.08019e-08
0.00840203
5.60216e-08
0.00839469
3.58214e-07
0.0084057
5.19311e-07
0.00838399
1.82604e-06
0.00840028
4.44981e-06
0.00836721
1.38796e-05
0.00835277
5.00784e-05
0.000235205
0.00823966
0.00840003
1.19333e-14
0.00840003
2.58674e-14
0.00840003
2.16924e-13
0.00840003
2.47764e-13
0.00840003
1.47545e-12
0.00840003
1.60119e-12
0.00840003
8.2795e-12
0.00840003
1.00188e-11
0.00840003
4.13801e-11
0.00840003
6.81945e-11
0.00840003
1.92171e-10
0.00840003
4.41437e-10
0.00840004
8.26659e-10
0.00839996
2.92116e-09
0.00840017
3.36018e-09
0.00839952
1.87298e-08
0.00840103
1.55353e-08
0.008397
1.22157e-07
0.00840521
8.08639e-08
0.00838768
6.98061e-07
0.00841002
9.05423e-07
0.00837609
3.88829e-06
0.00838837
1.0595e-05
0.00835131
4.05169e-05
0.000193638
0.00826722
0.00840003
4.36738e-15
0.00840003
3.55623e-14
0.00840003
1.18019e-13
0.00840003
3.24015e-13
0.00840003
8.19076e-13
0.00840003
2.1957e-12
0.00840003
3.41943e-12
0.00840003
1.51371e-11
0.00840003
1.16061e-11
0.00840003
9.74436e-11
0.00840004
2.42979e-11
0.00840002
6.02807e-10
0.00840007
-1.126e-10
0.00839992
3.81551e-09
0.00840026
-1.88037e-09
0.00839942
2.3346e-08
0.00840132
-1.34519e-08
0.00839681
1.28867e-07
0.00840544
-2.00715e-08
0.00838833
6.08783e-07
0.00840988
5.69844e-07
0.00837696
3.01334e-06
0.00839215
8.19352e-06
0.00835529
3.18915e-05
0.000153868
0.00829295
0.00840003
2.90425e-15
0.00840003
2.94603e-14
0.00840003
7.95002e-14
0.00840003
2.62196e-13
0.00840003
5.461e-13
0.00840003
1.47202e-12
0.00840003
2.9413e-12
0.00840003
7.08519e-12
0.00840003
1.33784e-11
0.00840003
3.58586e-11
0.00840004
5.9085e-11
0.00840002
1.78979e-10
0.00840004
3.32693e-10
0.00840001
8.76315e-10
0.00839999
2.12359e-09
0.00840006
4.69912e-09
0.00839946
1.5315e-08
0.00840073
2.40833e-08
0.00839688
1.0239e-07
0.00840253
2.11634e-07
0.00839188
6.58695e-07
0.00839691
1.99914e-06
0.00838286
6.54471e-06
0.00836125
2.48327e-05
0.000117885
0.00831152
0.00840003
1.50731e-16
0.00840003
2.37693e-14
0.00840003
2.64311e-14
0.00840003
2.33924e-13
0.00840003
1.46936e-13
0.00840003
1.30884e-12
0.00840003
5.56836e-13
0.00840003
6.29677e-12
0.00840003
-1.36205e-12
0.00840003
3.71537e-11
0.00840004
-4.39346e-11
0.00840002
2.15144e-10
0.00840004
-2.71048e-10
0.0084
1.03811e-09
0.00840001
-1.09036e-09
0.00840003
5.06495e-09
0.00839953
8.29871e-10
0.00840065
2.64924e-08
0.00839703
4.87918e-08
0.00840266
1.69657e-07
0.00839212
5.21028e-07
0.00839853
1.38267e-06
0.00838542
5.27821e-06
0.00835992
1.90767e-05
8.76763e-05
0.00832082
0.00840003
5.75337e-15
0.00840003
2.18136e-15
0.00840003
8.30624e-14
0.00840003
3.94902e-15
0.00840003
4.99761e-13
0.00840003
-1.13425e-13
0.00840003
2.38503e-12
0.00840003
-1.89395e-12
0.00840003
1.47846e-11
0.00840003
-2.47631e-11
0.00840003
9.33039e-11
0.00840003
-1.49655e-10
0.00840002
4.04024e-10
0.00840006
-7.84389e-10
0.00839987
2.17121e-09
0.00840036
-2.90732e-09
0.00839891
8.74755e-09
0.00840225
7.33006e-09
0.00839437
4.83093e-08
0.00840816
1.35606e-07
0.00838586
3.52824e-07
0.00840726
1.19233e-06
0.00838284
4.10663e-06
0.00835768
1.50732e-05
6.29266e-05
0.00832324
0.00840003
1.75128e-15
0.00840003
1.0351e-14
0.00840003
8.62133e-15
0.00840003
9.79091e-14
0.00840003
4.3354e-14
0.00840003
2.57911e-13
0.00840003
1.00531e-12
0.00840003
-1.71643e-12
0.00840003
1.02226e-11
0.00840003
-2.61188e-11
0.00840004
7.92847e-11
0.00840002
-2.42373e-10
0.00840004
6.45964e-10
0.00840001
-1.87061e-09
0.00839999
4.8524e-09
0.0084001
-1.22532e-08
0.00839943
3.2451e-08
0.00840103
-6.22594e-08
0.00839667
1.76134e-07
0.00840404
-1.62683e-07
0.0083919
6.70622e-07
0.00840202
3.83831e-07
0.00838975
3.18519e-06
0.00835684
1.0263e-05
4.04761e-05
0.00832711
0.00840003
-6.11742e-15
0.00840003
1.74698e-14
0.00840003
-6.1527e-14
0.00840003
1.77196e-13
0.00840003
-4.19424e-13
0.00840003
1.37186e-12
0.00840003
-3.60236e-12
0.00840003
9.92304e-12
0.00840003
-2.73053e-11
0.00840003
6.04909e-11
0.00840004
-1.77752e-10
0.00840002
3.4146e-10
0.00840007
-1.00285e-09
0.00839993
1.87389e-09
0.00840026
-5.01239e-09
0.00839948
9.65977e-09
0.00840128
-2.31137e-08
0.00839718
5.10223e-08
0.00840536
-8.18497e-08
0.00839016
1.80241e-07
0.00841181
-8.31546e-08
0.00838325
7.19899e-07
0.00840564
1.41414e-06
0.00835199
4.94806e-06
1.98135e-05
0.00832922
0.00840003
0.00840003
0.00840003
0.00840003
0.00840003
0.00840003
0.00840003
0.00840003
0.00840003
0.00840003
0.00840003
0.00840004
0.0084
0.00840011
0.0083998
0.00840058
0.00839861
0.00840327
0.00839321
0.00841157
0.00838248
0.00841478
0.00838514
0.00835803
0.00832824
0.00399742
0.00434296
0.00165159
0.00234014
-0.00060344
0.00224933
-0.00163888
0.00103293
-0.00230772
0.000664424
-0.00268056
0.000367716
-0.00280615
0.000120367
-0.00293681
0.00012649
-0.00311173
0.000171476
-0.0032743
0.000159433
-0.00339851
0.000121576
-0.00349936
9.86619e-05
-0.00359049
8.92104e-05
-0.00365924
6.71393e-05
-0.00370414
4.3011e-05
-0.00376029
5.26003e-05
-0.00381104
4.6629e-05
-0.003842
2.67293e-05
-0.00384917
1.98778e-07
-0.00383308
-2.53433e-05
-0.00378294
-6.07807e-05
-0.00369523
-9.94675e-05
-0.00357065
-0.000135555
-0.00341869
-0.000162516
-0.00324722
-0.000180915
-0.0030608
-0.000194201
-0.0028651
-0.000202885
-0.00266323
-0.000207514
-0.00245804
-0.000209922
-0.00225058
-0.000211807
-0.0020383
-0.000215075
-0.001822
-0.000218194
-0.00160107
-0.000222693
-0.00137318
-0.000229928
-0.00114317
-0.000232308
-0.000913151
-0.00023203
-0.000684023
-0.000230807
-0.000454685
-0.000230953
-0.000224946
-0.000231697
1.03674e-05
-0.000238945
0.000244415
-0.000235252
0.000467401
-0.000225548
0.000680938
-0.000216485
0.000887027
-0.000209209
0.00108608
-0.000202327
0.00127674
-0.000194163
0.00146077
-0.000187756
0.00164132
-0.000184599
0.00181849
-0.000181693
0.00198895
-0.000175245
0.00215252
-0.000168592
0.00230961
-0.000162251
0.00246058
-0.000156378
0.00260524
-0.000150433
0.00274404
-0.000144673
0.00287696
-0.000138936
0.00300413
-0.000133321
0.00312605
-0.000127692
0.00324265
-0.000122294
0.00335404
-0.000116763
0.00346088
-0.000111514
0.00356266
-0.000106169
0.0036601
-0.000101048
0.00375292
-9.59123e-05
0.00384182
-9.09756e-05