/*--------------------------------*- C++ -*----------------------------------*\
  =========                 |
  \\      /  F ield         | OpenFOAM: The Open Source CFD Toolbox
   \\    /   O peration     | Website:  https://openfoam.org
    \\  /    A nd           | Version:  13
     \\/     M anipulation  |
\*---------------------------------------------------------------------------*/
FoamFile
{
    format      ascii;
    class       volScalarField;
    location    "8";
    object      rho;
}
// * * * * * * * * * * * * * * * * * * * * * * * * * * * * * * * * * * * * * //

dimensions      [1 -3 0 0 0 0 0];

internalField   nonuniform List<scalar> 
5250
(
1.40001
1.40003
1.40008
1.40019
1.4005
1.40113
1.40308
1.40682
1.41826
1.44125
1.50154
1.62588
1.89458
2.55161
5.14337
5.75217
5.69126
5.66179
5.68218
5.76126
5.84498
5.89818
5.93737
5.96964
5.99819
1.40001
1.40003
1.40007
1.4002
1.40046
1.40122
1.40279
1.40736
1.41681
1.4428
1.49807
1.6258
1.88817
2.53746
5.10232
5.75179
5.69042
5.65887
5.67951
5.75892
5.84267
5.89616
5.93624
5.96939
5.99896
1.40001
1.40003
1.40007
1.40019
1.40045
1.40118
1.40273
1.40714
1.41646
1.44169
1.49593
1.62085
1.8784
2.50624
5.0109
5.75155
5.68761
5.64934
5.66917
5.74793
5.8299
5.88369
5.92363
5.95784
5.98686
1.40001
1.40003
1.40007
1.40019
1.40041
1.40119
1.40252
1.40708
1.4155
1.4407
1.49185
1.61419
1.86286
2.45977
4.86633
5.75477
5.68461
5.63333
5.65167
5.72755
5.80856
5.85831
5.89752
5.92945
5.96059
1.40001
1.40002
1.40007
1.40016
1.40046
1.40096
1.40277
1.40589
1.41627
1.43609
1.4905
1.60103
1.84458
2.39803
4.66518
5.76298
5.68262
5.61174
5.62797
5.69813
5.77765
5.8257
5.86221
5.89476
5.92554
1.40001
1.40002
1.40006
1.40017
1.40037
1.40103
1.40226
1.40616
1.4138
1.43593
1.48149
1.59174
1.81601
2.32605
4.40137
5.78063
5.68334
5.58536
5.59824
5.66241
5.737
5.78309
5.81462
5.84289
5.87619
1.40001
1.40002
1.40006
1.40014
1.40039
1.40083
1.40231
1.40509
1.41365
1.43105
1.47716
1.57383
1.78642
2.24199
4.07157
5.81056
5.68906
5.55423
5.56215
5.61721
5.68416
5.72288
5.75033
5.7724
5.80545
1.40001
1.40002
1.40005
1.40014
1.40031
1.40081
1.40193
1.4048
1.41175
1.42848
1.46821
1.55788
1.7493
2.15389
3.68284
5.84502
5.70218
5.52423
5.52394
5.56657
5.62314
5.65016
5.66538
5.67608
5.70386
1.40001
1.40002
1.40005
1.40011
1.40029
1.40068
1.40177
1.40405
1.41061
1.42442
1.4607
1.53869
1.7113
2.06653
3.24669
5.85503
5.71285
5.49799
5.48574
5.50728
5.5509
5.55838
5.55378
5.53738
5.54358
1.40001
1.40002
1.40004
1.40011
1.40024
1.40063
1.40144
1.40377
1.40879
1.42221
1.45203
1.52364
1.67505
1.99233
2.91008
5.73311
5.67074
5.47274
5.43842
5.44091
5.46172
5.44989
5.4167
5.3452
5.28859
1.40001
1.40002
1.40003
1.4001
1.4002
1.40057
1.40122
1.40341
1.40749
1.41997
1.44519
1.51045
1.64457
1.93162
2.68126
5.40155
5.53058
5.44419
5.37475
5.36609
5.35521
5.32151
5.23027
5.01723
4.41696
1.40001
1.40001
1.40004
1.40007
1.40021
1.40043
1.40123
1.40261
1.40729
1.41599
1.44178
1.49425
1.61917
1.87267
2.48879
4.92535
5.44504
5.40142
5.30858
5.28358
5.25108
5.18252
5.03597
4.73954
4.10151
1.40001
1.40001
1.40003
1.40007
1.40015
1.40043
1.4009
1.40257
1.40549
1.41514
1.4335
1.48443
1.58759
1.8163
2.3175
4.37379
5.40016
5.3636
5.25504
5.19528
5.14583
5.04925
4.86066
4.55324
4.06541
1.40001
1.40001
1.40002
1.40006
1.40013
1.40036
1.40076
1.40213
1.40462
1.41252
1.42819
1.47062
1.55905
1.75513
2.16243
3.75835
5.39236
5.34828
5.21705
5.11813
5.04195
4.92805
4.73883
4.45363
4.07208
1.40001
1.40001
1.40002
1.40005
1.40011
1.40028
1.40063
1.4017
1.40373
1.41014
1.42254
1.45745
1.52936
1.69324
2.0204
3.06642
5.35288
5.32784
5.20743
5.05717
4.95638
4.82841
4.64483
4.39476
4.07627
1.40001
1.40001
1.40002
1.40004
1.4001
1.4002
1.40057
1.4012
1.4034
1.40722
1.41981
1.4437
1.50824
1.63808
1.91676
2.62628
5.08337
5.25446
5.17915
5.00846
4.88603
4.75577
4.57521
4.34664
4.07364
1.40001
1.40001
1.40002
1.40003
1.40008
1.40016
1.40046
1.40097
1.40268
1.40591
1.41566
1.43564
1.48757
1.59597
1.83072
2.35719
4.44986
5.14328
5.10344
4.97505
4.82554
4.69196
4.52328
4.31072
4.06585
1.40001
1.40001
1.40001
1.40003
1.40006
1.40015
1.40031
1.40086
1.4019
1.40505
1.41152
1.42941
1.46769
1.55938
1.74835
2.14696
3.70433
5.08802
5.0628
4.96209
4.78552
4.63765
4.47745
4.28324
4.05948
1.40001
1.40001
1.40001
1.40002
1.40005
1.4001
1.40027
1.4006
1.40154
1.40364
1.40901
1.42173
1.45208
1.52132
1.67158
1.96984
2.8648
4.97591
5.04696
4.96863
4.78264
4.60603
4.44266
4.26212
4.05739
1.40001
1.40001
1.40001
1.40002
1.40004
1.40008
1.40021
1.40044
1.40121
1.40261
1.40712
1.41579
1.44078
1.49175
1.61333
1.85427
2.43483
4.55791
4.98354
4.93076
4.78302
4.58665
4.41721
4.24579
4.05669
1.40001
1.40001
1.40001
1.40001
1.40003
1.40006
1.40016
1.40033
1.40091
1.40197
1.40534
1.41188
1.43082
1.46981
1.56501
1.75777
2.16686
3.77311
4.88939
4.86863
4.77877
4.58202
4.40238
4.23509
4.05939
1.40001
1.40001
1.40001
1.40001
1.40002
1.40005
1.40011
1.40025
1.40064
1.40146
1.40384
1.40862
1.42246
1.45085
1.5222
1.66883
1.96117
2.86989
4.7339
4.84522
4.77845
4.60867
4.40682
4.23387
4.065
1.40001
1.40001
1.40001
1.40001
1.40002
1.40004
1.40007
1.4002
1.40042
1.40115
1.40252
1.4067
1.41513
1.43839
1.48716
1.60185
1.82733
2.35675
4.26833
4.79041
4.74996
4.6297
4.42724
4.24488
4.07812
1.40001
1.40001
1.40001
1.40001
1.40001
1.40003
1.40006
1.40014
1.40032
1.40076
1.40194
1.40446
1.41148
1.42635
1.4648
1.54678
1.72527
2.07796
3.43244
4.6874
4.68981
4.62816
4.46388
4.26989
4.09966
1.40001
1.40001
1.40001
1.40001
1.40001
1.40002
1.40004
1.4001
1.40022
1.40054
1.40131
1.40311
1.40779
1.41811
1.44468
1.50212
1.6315
1.87233
2.51602
4.42388
4.68524
4.63439
4.50377
4.30389
4.12609
1.40001
1.40001
1.40001
1.40001
1.40001
1.40002
1.40003
1.40007
1.40016
1.40036
1.40095
1.40205
1.40562
1.41214
1.43202
1.47108
1.56852
1.75881
2.16709
3.73225
4.61229
4.59684
4.52805
4.35744
4.16318
1.40001
1.40001
1.40001
1.40001
1.40001
1.40001
1.40002
1.40005
1.40011
1.40024
1.40064
1.40138
1.4038
1.40811
1.42186
1.448
1.51713
1.65459
1.92227
2.75281
4.40348
4.58738
4.53941
4.41611
4.21267
1.40001
1.40001
1.40001
1.40001
1.40001
1.40001
1.40002
1.40004
1.40007
1.40018
1.40039
1.40102
1.40232
1.40588
1.41379
1.43371
1.4783
1.57937
1.77915
2.22355
3.84322
4.52392
4.50961
4.44453
4.28713
1.40001
1.40001
1.40001
1.40001
1.40001
1.40001
1.40001
1.40002
1.40005
1.40011
1.40028
1.40062
1.40167
1.40358
1.40974
1.42119
1.45421
1.51997
1.67101
1.94534
2.8863
4.32571
4.49711
4.45817
4.35716
1.40001
1.40001
1.40001
1.40001
1.40001
1.40001
1.40001
1.40002
1.40004
1.40007
1.40019
1.4004
1.40109
1.40232
1.40632
1.41368
1.43562
1.47884
1.58444
1.7788
2.23514
3.81683
4.44079
4.44122
4.39757
1.40001
1.40001
1.40001
1.40001
1.40001
1.40001
1.40001
1.40001
1.40002
1.40005
1.40011
1.40028
1.40066
1.40155
1.40394
1.40897
1.42277
1.45167
1.52252
1.66579
1.93834
2.86154
4.23529
4.44719
4.42892
1.40001
1.40001
1.40001
1.40001
1.40001
1.40001
1.40001
1.40001
1.40002
1.40004
1.40007
1.40019
1.40039
1.40107
1.40226
1.40617
1.41335
1.43478
1.4767
1.57969
1.76779
2.20567
3.71879
4.39581
4.4859
1.40001
1.40001
1.40001
1.40001
1.40001
1.40001
1.40001
1.40001
1.40001
1.40002
1.40005
1.40011
1.40028
1.40059
1.40162
1.40343
1.40931
1.42019
1.4515
1.51344
1.6553
1.90557
2.72185
4.17941
4.57001
1.40001
1.40001
1.40001
1.40001
1.40001
1.40001
1.40001
1.40001
1.40001
1.40002
1.40003
1.40008
1.40016
1.40042
1.40093
1.40236
1.4055
1.41348
1.43193
1.47494
1.57025
1.75659
2.17228
3.62211
4.53653
1.40001
1.40001
1.40001
1.40001
1.40001
1.40001
1.40001
1.40001
1.40001
1.40001
1.40002
1.40005
1.40011
1.40026
1.4006
1.40152
1.40344
1.40887
1.41982
1.44968
1.51054
1.64919
1.89639
2.60257
4.37928
1.40001
1.40001
1.40001
1.40001
1.40001
1.40001
1.40001
1.40001
1.40001
1.40001
1.40002
1.40003
1.40008
1.40017
1.40046
1.40096
1.40267
1.40565
1.41535
1.43362
1.48397
1.58566
1.80765
2.29933
3.91612
1.40001
1.40001
1.40001
1.40001
1.40001
1.40001
1.40001
1.40001
1.40001
1.40001
1.40001
1.40003
1.40006
1.40015
1.40032
1.40082
1.4019
1.40481
1.41137
1.42799
1.46588
1.55373
1.74103
2.13613
3.36729
1.40001
1.40001
1.40001
1.40001
1.40001
1.40001
1.40001
1.40001
1.40001
1.40001
1.40001
1.40003
1.40005
1.40013
1.40027
1.40075
1.40158
1.40442
1.40967
1.42581
1.45822
1.54134
1.71195
2.07225
3.21782
1.40001
1.40001
1.40001
1.40001
1.40001
1.40001
1.40001
1.40001
1.40001
1.40001
1.40001
1.40002
1.40005
1.40012
1.40025
1.40069
1.40148
1.40413
1.40912
1.42438
1.45537
1.53489
1.69899
2.04069
3.14171
1.40001
1.40001
1.40001
1.40001
1.40001
1.40001
1.40001
1.40001
1.40001
1.40001
1.40001
1.40002
1.40004
1.40011
1.40024
1.40067
1.40141
1.40404
1.4087
1.42385
1.45345
1.53167
1.69134
2.02665
3.09089
1.40001
1.40001
1.40001
1.40001
1.40001
1.40001
1.40001
1.40001
1.40001
1.40001
1.40001
1.40002
1.40004
1.40011
1.40024
1.40063
1.40146
1.40374
1.40898
1.42251
1.45355
1.52787
1.68685
2.01621
3.04549
1.40001
1.40001
1.40001
1.40001
1.40001
1.40001
1.40001
1.40001
1.40001
1.40001
1.40001
1.40002
1.40005
1.4001
1.40024
1.40061
1.40142
1.40376
1.40862
1.42252
1.45221
1.52613
1.68216
2.00594
3.00315
1.40001
1.40001
1.40001
1.40001
1.40001
1.40001
1.40001
1.40001
1.40001
1.40001
1.40001
1.40002
1.40004
1.40011
1.40022
1.40063
1.40136
1.40378
1.40841
1.42239
1.45121
1.52494
1.6778
1.99549
2.9655
1.40001
1.40001
1.40001
1.40001
1.40001
1.40001
1.40001
1.40001
1.40001
1.40001
1.40001
1.40002
1.40004
1.4001
1.40023
1.40059
1.40143
1.40353
1.4088
1.42127
1.45194
1.52203
1.67576
1.9846
2.93309
1.40001
1.40001
1.40001
1.40001
1.40001
1.40001
1.40001
1.40001
1.40001
1.40001
1.40001
1.40002
1.40005
1.40009
1.40026
1.40054
1.40154
1.40326
1.40921
1.42026
1.45272
1.51935
1.67435
1.97559
2.90478
1.40001
1.40001
1.40001
1.40001
1.40001
1.40001
1.40001
1.40001
1.40001
1.40001
1.40001
1.40002
1.40005
1.40009
1.40025
1.40053
1.40153
1.40324
1.40916
1.42009
1.45235
1.51828
1.67199
1.96993
2.87913
1.40001
1.40001
1.40001
1.40001
1.40001
1.40001
1.40001
1.40001
1.40001
1.40001
1.40001
1.40002
1.40005
1.40009
1.40026
1.40053
1.40152
1.40326
1.40903
1.42014
1.45179
1.51773
1.66968
1.96754
2.85614
1.40001
1.40001
1.40001
1.40001
1.40001
1.40001
1.40001
1.40001
1.40001
1.40001
1.40001
1.40002
1.40005
1.40009
1.40025
1.40053
1.40152
1.40322
1.40907
1.41991
1.45169
1.5169
1.66795
1.96858
2.8367
1.40001
1.40001
1.40001
1.40001
1.40001
1.40001
1.40001
1.40001
1.40001
1.40001
1.40001
1.40002
1.40004
1.4001
1.40023
1.40058
1.40142
1.40341
1.40866
1.4205
1.45051
1.51768
1.6655
1.97097
2.82244
1.40001
1.40001
1.40001
1.40001
1.40001
1.40001
1.40001
1.40001
1.40001
1.40001
1.40001
1.40002
1.40005
1.40009
1.40025
1.40055
1.40146
1.40336
1.40869
1.42041
1.45056
1.51711
1.66521
1.97228
2.81472
2.23665
1.77199
2.10331
1.97772
1.8628
1.84061
1.82837
1.80211
1.76582
1.73242
1.70429
1.6768
1.64764
1.61665
1.58495
1.57104
1.56618
1.5653
1.57136
1.5937
1.62914
1.67581
1.72824
1.78278
1.83754
1.8896
1.93907
1.98574
2.02824
2.06865
2.10667
2.14118
2.17469
2.20559
2.23536
2.26209
2.28642
2.30788
2.32726
2.34362
2.36028
2.37409
2.38645
2.39415
2.40172
2.40609
2.4102
2.41153
2.41128
2.40857
2.40575
2.4008
2.39583
2.38856
2.38098
2.37176
2.36211
2.35093
2.34007
2.32723
2.31502
2.30133
2.2877
2.2732
2.25846
2.24343
2.22755
2.21211
2.19565
2.17943
2.16285
2.14593
2.12904
2.1118
2.0944
2.07696
2.05918
2.04148
2.02354
2.00562
1.98759
1.96967
1.9515
1.93384
1.91544
1.89816
1.87963
1.86263
1.84424
1.82735
1.8094
1.7926
1.77531
1.75885
1.74242
1.72699
1.71205
1.69882
1.68689
1.67917
2.75366
2.33991
2.30912
2.08135
1.87876
1.81939
1.78857
1.74133
1.68982
1.64392
1.61449
1.58488
1.55387
1.52131
1.493
1.47241
1.46334
1.45933
1.46059
1.48287
1.51657
1.56596
1.62106
1.68029
1.74105
1.79958
1.85661
1.91045
1.96114
2.011
2.05686
2.09853
2.13853
2.1772
2.21533
2.24866
2.28172
2.31043
2.3383
2.36226
2.38617
2.40599
2.4248
2.43899
2.45176
2.46032
2.46918
2.47445
2.4781
2.4788
2.47897
2.47713
2.47458
2.46939
2.46382
2.45622
2.44785
2.43854
2.42793
2.41704
2.40433
2.39221
2.3776
2.36436
2.34855
2.33407
2.31766
2.30207
2.28508
2.26876
2.25106
2.23426
2.21591
2.19864
2.17984
2.16209
2.14304
2.1249
2.10566
2.08733
2.06785
2.04961
2.02982
2.01182
1.9918
1.97404
1.95401
1.93636
1.91666
1.89902
1.87985
1.86234
1.844
1.82697
1.80958
1.79351
1.77764
1.7637
1.75085
1.74226
3.25185
2.768
2.53193
2.34428
2.12375
1.992
1.85932
1.76563
1.68821
1.63139
1.59269
1.55675
1.51157
1.47135
1.438
1.41745
1.40725
1.40223
1.40584
1.42422
1.45579
1.50496
1.56651
1.63209
1.69851
1.7647
1.82891
1.8903
1.94789
2.00348
2.05481
2.10514
2.15203
2.19892
2.24222
2.2839
2.32208
2.35824
2.39065
2.42134
2.44819
2.47376
2.4944
2.51375
2.52802
2.54123
2.55136
2.56102
2.56659
2.56957
2.57021
2.57094
2.56865
2.56616
2.56086
2.55548
2.54742
2.53976
2.52936
2.51964
2.50756
2.4958
2.48252
2.46892
2.45461
2.43959
2.42424
2.40817
2.39183
2.37491
2.3577
2.33999
2.32208
2.30364
2.28519
2.26609
2.24718
2.22761
2.20825
2.18846
2.16866
2.14885
2.12868
2.10889
2.08856
2.06877
2.04851
2.02859
2.00876
1.98879
1.96962
1.94968
1.93108
1.9115
1.89371
1.87501
1.85856
1.84185
1.82818
1.81666
3.50519
3.03229
2.73048
2.51643
2.34192
2.18556
2.07867
1.94027
1.82105
1.70666
1.63656
1.5814
1.5264
1.47487
1.43759
1.41412
1.39945
1.39477
1.40225
1.41792
1.45287
1.50775
1.57603
1.64971
1.72475
1.79885
1.87021
1.93915
2.00419
2.06747
2.12666
2.18491
2.23877
2.29193
2.3404
2.3872
2.42889
2.4682
2.50313
2.53492
2.56357
2.58826
2.61053
2.62812
2.64383
2.65495
2.66549
2.6733
2.6797
2.68015
2.68016
2.67811
2.67521
2.67057
2.66418
2.65674
2.64744
2.63752
2.626
2.61386
2.60056
2.58653
2.5717
2.55627
2.54013
2.52364
2.50638
2.489
2.47082
2.45263
2.43377
2.41484
2.39547
2.37589
2.35611
2.33603
2.31589
2.29555
2.27508
2.25476
2.234
2.21388
2.19299
2.17299
2.15219
2.13261
2.11214
2.09276
2.07262
2.05339
2.03369
2.01475
1.9955
1.97713
1.95852
1.9412
1.92375
1.90844
1.89357
1.88317
3.63566
3.22345
2.90992
2.67868
2.50781
2.3551
2.23759
2.12593
2.00929
1.90053
1.79738
1.6987
1.62013
1.54705
1.49397
1.46082
1.43999
1.43391
1.44007
1.46287
1.50928
1.57115
1.64563
1.72443
1.80654
1.88887
1.96784
2.04355
2.11518
2.18304
2.24769
2.30823
2.3662
2.41961
2.47062
2.51668
2.55969
2.59831
2.63302
2.66476
2.69164
2.71689
2.73657
2.75526
2.76819
2.7804
2.78796
2.79714
2.80065
2.80341
2.7995
2.79797
2.79165
2.78726
2.77819
2.77055
2.759
2.74846
2.73487
2.72193
2.70665
2.69179
2.67505
2.65868
2.64067
2.62308
2.60403
2.58543
2.56558
2.54606
2.52559
2.50525
2.48422
2.46321
2.44162
2.42018
2.39804
2.37644
2.35376
2.33225
2.30904
2.28775
2.26451
2.2436
2.22036
2.19939
2.1764
2.15547
2.13288
2.11197
2.08992
2.0692
2.04781
2.02755
2.00706
1.9877
1.96866
1.95111
1.93492
1.92183
3.71761
3.35972
3.06538
2.83098
2.64979
2.50185
2.37644
2.26814
2.16359
2.06293
1.96887
1.8795
1.79268
1.7204
1.65598
1.60758
1.5802
1.56858
1.57626
1.59894
1.64599
1.70482
1.77542
1.85024
1.93088
2.01604
2.09963
2.1809
2.25498
2.32552
2.38869
2.44893
2.50236
2.55293
2.59766
2.63939
2.67624
2.7095
2.7389
2.76451
2.78741
2.80648
2.82333
2.83647
2.84741
2.85495
2.8609
2.86601
2.86902
2.86942
2.8651
2.86014
2.85333
2.84632
2.83723
2.82774
2.81629
2.8044
2.79085
2.77692
2.76157
2.74594
2.72908
2.71201
2.69387
2.6756
2.65641
2.63713
2.61712
2.597
2.57631
2.55555
2.53429
2.5131
2.49137
2.46998
2.44784
2.42648
2.40401
2.38289
2.36045
2.33952
2.31683
2.2959
2.27324
2.25212
2.22969
2.20843
2.1864
2.16505
2.14352
2.1222
2.10123
2.08015
2.05987
2.03944
2.0203
2.00138
1.9847
1.96977
3.77238
3.46308
3.1899
2.96302
2.77828
2.62808
2.5015
2.39429
2.2928
2.20103
2.11163
2.03205
1.96021
1.89885
1.85043
1.81351
1.79387
1.78636
1.80006
1.82204
1.85902
1.90035
1.95141
2.0075
2.06376
2.13455
2.21387
2.29264
2.36689
2.43262
2.49221
2.54507
2.59301
2.63639
2.67631
2.7128
2.74585
2.77569
2.80197
2.8262
2.84618
2.865
2.87926
2.893
2.90209
2.91073
2.91493
2.92074
2.92285
2.92483
2.92058
2.91604
2.90886
2.90182
2.89273
2.88317
2.87186
2.85982
2.84635
2.83216
2.81676
2.80075
2.78368
2.76612
2.74765
2.72876
2.70913
2.68911
2.66851
2.6475
2.62611
2.60428
2.58223
2.55988
2.53732
2.51474
2.49189
2.46968
2.44681
2.4248
2.40175
2.37981
2.35664
2.33466
2.31158
2.28953
2.26668
2.24459
2.22212
2.20006
2.17802
2.1561
2.1346
2.11303
2.09222
2.07135
2.05165
2.03225
2.01492
1.99915
3.80617
3.53877
3.28817
3.07125
2.889
2.73733
2.61036
2.50176
2.4059
2.31597
2.23776
2.16739
2.11271
2.07046
2.04047
2.01814
2.01569
2.02722
2.03737
2.05094
2.0655
2.07614
2.08989
2.11227
2.14357
2.18542
2.24233
2.31558
2.39213
2.46342
2.52672
2.58207
2.63154
2.67559
2.7166
2.7545
2.7892
2.82132
2.85004
2.87581
2.89854
2.91887
2.93555
2.95016
2.96115
2.96998
2.97526
2.98052
2.98417
2.98641
2.98454
2.97993
2.97351
2.96578
2.95718
2.94701
2.93629
2.92373
2.91088
2.89611
2.88126
2.86452
2.84783
2.82937
2.81107
2.79118
2.77159
2.75053
2.72991
2.70791
2.68632
2.66357
2.6411
2.61784
2.59473
2.57156
2.54823
2.52514
2.50163
2.47865
2.45506
2.43215
2.40866
2.38578
2.36254
2.33967
2.31675
2.2939
2.27138
2.24861
2.22653
2.20396
2.18236
2.16019
2.13917
2.11772
2.09767
2.0776
2.05978
2.04308
3.83225
3.59548
3.36756
3.16153
2.98411
2.8328
2.70545
2.59702
2.50267
2.42136
2.34991
2.29576
2.26505
2.2368
2.22283
2.22927
2.26081
2.27316
2.27652
2.27911
2.2729
2.24093
2.21817
2.21878
2.2343
2.25984
2.29967
2.3529
2.42239
2.49968
2.57285
2.63753
2.69346
2.74224
2.78504
2.82347
2.85733
2.88808
2.91476
2.93879
2.95951
2.97722
2.99178
3.00454
3.01348
3.02133
3.02462
3.02872
3.03046
3.03211
3.02983
3.02508
3.01732
3.00908
2.99884
2.98832
2.97602
2.96332
2.9489
2.93406
2.91763
2.90088
2.88272
2.86436
2.84473
2.82495
2.80405
2.78301
2.76097
2.73892
2.71595
2.69319
2.66957
2.64671
2.62293
2.60027
2.5763
2.55375
2.52961
2.50711
2.48288
2.46036
2.43618
2.41359
2.38962
2.36699
2.34338
2.32076
2.29762
2.27508
2.25246
2.23013
2.20808
2.18616
2.16481
2.14359
2.1233
2.10337
2.0853
2.06852
3.85235
3.63975
3.43122
3.2379
3.06638
2.91775
2.79103
2.68343
2.59292
2.51837
2.462
2.43407
2.41459
2.40351
2.42009
2.48042
2.5211
2.51855
2.51661
2.50451
2.46274
2.39974
2.35176
2.32488
2.3247
2.33797
2.35698
2.39305
2.4375
2.49558
2.56559
2.63322
2.69533
2.74898
2.79525
2.83436
2.86843
2.89841
2.92447
2.94828
2.968
2.98593
3.0011
3.01374
3.0234
3.03145
3.03594
3.03956
3.0418
3.04358
3.04294
3.0391
3.03261
3.02457
3.01504
3.00439
2.9926
2.97979
2.96591
2.95111
2.93526
2.91864
2.90096
2.88264
2.86333
2.84352
2.82283
2.80176
2.77986
2.75774
2.73477
2.71192
2.68845
2.66539
2.64152
2.61834
2.59417
2.57094
2.54666
2.52346
2.49932
2.4762
2.45237
2.42934
2.4059
2.38297
2.35993
2.33708
2.31443
2.29172
2.26948
2.24698
2.22521
2.20306
2.18192
2.1604
2.14024
2.11997
2.10193
2.08474
3.8716
3.67668
3.48465
3.30288
3.13843
2.9938
2.86907
2.76513
2.67989
2.61575
2.5899
2.57207
2.56776
2.58802
2.66781
2.74844
2.76642
2.7617
2.74656
2.70656
2.62416
2.54583
2.48401
2.44235
2.42053
2.4186
2.42897
2.44326
2.47126
2.50895
2.55519
2.61528
2.68027
2.74288
2.79838
2.84573
2.88552
2.919
2.94769
2.97219
2.99385
3.01236
3.02854
3.04228
3.05317
3.06227
3.06806
3.07151
3.07346
3.07519
3.07495
3.07227
3.06624
3.05836
3.04897
3.03814
3.02642
3.01334
2.99963
2.98447
2.96883
2.95165
2.93418
2.91517
2.89608
2.87554
2.85504
2.83325
2.81146
2.78865
2.76591
2.74275
2.7194
2.69604
2.67219
2.6487
2.62449
2.60089
2.5765
2.55283
2.52844
2.50475
2.48053
2.45691
2.433
2.40956
2.38606
2.36288
2.33985
2.31699
2.29447
2.27199
2.25004
2.22803
2.2068
2.18549
2.16534
2.14531
2.12734
2.11051
3.89063
3.71073
3.53176
3.36181
3.20409
3.06535
2.94438
2.84674
2.77063
2.73585
2.72332
2.72193
2.74687
2.83048
2.9455
3.00542
2.99885
2.98653
2.9521
2.87035
2.77248
2.68663
2.61726
2.56592
2.52966
2.50972
2.50042
2.50852
2.51747
2.53457
2.56524
2.59989
2.6462
2.70614
2.76612
2.8212
2.86845
2.90836
2.94079
2.96786
2.99014
3.00879
3.02509
3.0381
3.04931
3.05818
3.06451
3.06859
3.07006
3.07181
3.07191
3.07083
3.06591
3.05918
3.05034
3.0403
3.02879
3.01637
3.0027
2.98815
2.9724
2.95578
2.93808
2.91962
2.90021
2.88019
2.85929
2.83792
2.81569
2.79343
2.77041
2.74766
2.72403
2.70097
2.67693
2.65371
2.62947
2.60619
2.58191
2.55862
2.53446
2.5112
2.48729
2.46411
2.44052
2.41747
2.39428
2.37142
2.34867
2.32606
2.30381
2.28156
2.25989
2.23817
2.21726
2.19636
2.1766
2.15717
2.13961
2.1238
3.91039
3.74169
3.57362
3.41428
3.26534
3.1341
3.02188
2.93315
2.88519
2.87287
2.8723
2.89948
2.97937
3.11701
3.21353
3.22027
3.21066
3.18139
3.10917
3.00367
2.90384
2.81909
2.74823
2.69135
2.6455
2.61124
2.58687
2.57319
2.57022
2.57688
2.58677
2.60751
2.63243
2.66988
2.72171
2.77731
2.83163
2.88018
2.92163
2.95537
2.9828
3.00508
3.02332
3.03875
3.05115
3.06156
3.06957
3.07551
3.07826
3.08024
3.08128
3.08112
3.07849
3.07277
3.06515
3.05564
3.04501
3.03274
3.01961
3.00496
2.98958
2.97285
2.9555
2.937
2.91792
2.89788
2.87719
2.85577
2.83383
2.81155
2.78871
2.76578
2.74217
2.71877
2.69458
2.67091
2.64641
2.62263
2.59808
2.57427
2.54988
2.52613
2.50206
2.47844
2.45478
2.43139
2.4082
2.38513
2.36243
2.33975
2.3176
2.2954
2.2739
2.25234
2.23173
2.21116
2.1919
2.17309
2.15617
2.14169
3.93647
3.77508
3.6164
3.46555
3.3266
3.20511
3.10668
3.04053
3.02813
3.02796
3.05243
3.12497
3.27738
3.39699
3.42708
3.41835
3.39229
3.32994
3.2232
3.11911
3.02663
2.94681
2.87679
2.81599
2.76298
2.71785
2.68117
2.65179
2.63354
2.6203
2.62403
2.62955
2.64103
2.66081
2.68688
2.72902
2.77947
2.83159
2.88038
2.92249
2.95777
2.98558
3.00842
3.02583
3.04064
3.05175
3.06094
3.06784
3.07205
3.07392
3.07509
3.07564
3.07464
3.07059
3.06402
3.05543
3.04549
3.03386
3.02121
3.007
2.99198
2.97558
2.95852
2.94027
2.9214
2.90146
2.88087
2.85962
2.83782
2.81572
2.79296
2.77022
2.74667
2.72347
2.69939
2.67587
2.65154
2.62786
2.60354
2.57982
2.5557
2.53206
2.50828
2.48485
2.46148
2.43836
2.41544
2.3927
2.37029
2.348
2.32618
2.30443
2.28335
2.26235
2.2423
2.22249
2.20402
2.18638
2.17052
2.15788
3.96281
3.81046
3.66025
3.52013
3.39182
3.28734
3.20812
3.19277
3.19137
3.21192
3.28122
3.43807
3.56869
3.61608
3.60928
3.58643
3.53062
3.42692
3.32363
3.22949
3.14576
3.06966
3.00045
2.93647
2.87808
2.8252
2.77862
2.73859
2.70698
2.68158
2.66759
2.65807
2.66359
2.66913
2.68074
2.70094
2.73211
2.7768
2.82502
2.8726
2.91599
2.95314
2.98332
3.00744
3.02569
3.04029
3.05087
3.05933
3.06527
3.06865
3.07028
3.07151
3.07173
3.07
3.06513
3.05779
3.04889
3.03799
3.02596
3.01222
2.99765
2.98164
2.96492
2.94699
2.9283
2.90859
2.88816
2.86719
2.84547
2.82354
2.80078
2.77809
2.75453
2.73127
2.70718
2.68355
2.65925
2.63543
2.61117
2.58735
2.56332
2.53964
2.51596
2.49253
2.46927
2.44621
2.42342
2.4008
2.37853
2.35643
2.33481
2.31336
2.29267
2.27215
2.25285
2.23387
2.21666
2.20069
2.18616
2.17586
3.99767
3.84879
3.71061
3.58197
3.47259
3.3867
3.36245
3.35959
3.38044
3.45039
3.60732
3.74055
3.79449
3.78803
3.76543
3.71174
3.61376
3.51316
3.42195
3.33787
3.26145
3.18839
3.11941
3.05287
2.9904
2.93165
2.87843
2.83008
2.789
2.75315
2.72552
2.70375
2.69113
2.68737
2.69187
2.69769
2.71028
2.73394
2.76917
2.81229
2.85831
2.90217
2.94152
2.97377
2.99997
3.0194
3.03461
3.04521
3.05314
3.05838
3.06067
3.06208
3.06283
3.06227
3.05957
3.0536
3.04577
3.0358
3.02466
3.0117
2.99786
2.98243
2.96624
2.94867
2.93026
2.91082
2.89074
2.87001
2.84859
2.82684
2.80433
2.7818
2.75844
2.73533
2.7114
2.68789
2.66369
2.63998
2.6158
2.59206
2.56814
2.54455
2.52106
2.49776
2.47478
2.45188
2.42946
2.40706
2.38527
2.36348
2.34247
2.32151
2.30159
2.28191
2.26369
2.24607
2.23075
2.21655
2.20357
2.19717
4.04281
3.89733
3.76668
3.65769
3.57209
3.54474
3.53998
3.56073
3.63214
3.78963
3.92049
3.97188
3.96504
3.94021
3.88176
3.7846
3.68882
3.60046
3.5209
3.44582
3.37385
3.30275
3.23294
3.16491
3.09894
3.0365
2.97771
2.9237
2.87496
2.83082
2.79337
2.76102
2.73608
2.71802
2.70796
2.70859
2.71202
2.71834
2.73196
2.75944
2.79731
2.84105
2.88513
2.92612
2.96091
2.98916
3.01011
3.0261
3.0368
3.04438
3.04898
3.05058
3.05194
3.05235
3.05175
3.04794
3.04183
3.03313
3.0232
3.01106
2.99798
2.98302
2.96723
2.94982
2.93167
2.91248
2.89261
2.87211
2.85089
2.82932
2.80703
2.78461
2.76153
2.73846
2.71487
2.6914
2.66756
2.64389
2.62006
2.59639
2.57273
2.54924
2.5259
2.50275
2.47984
2.45714
2.43483
2.41266
2.3912
2.36969
2.34937
2.32888
2.31013
2.2914
2.27494
2.25951
2.2462
2.23448
2.22467
2.2234
4.10182
3.9586
3.84275
3.75611
3.73236
3.72653
3.75135
3.83081
3.99164
4.11799
4.15845
4.14951
4.11921
4.04829
3.94926
3.85359
3.76915
3.69288
3.62139
3.55204
3.48201
3.41213
3.34162
3.27217
3.20409
3.13848
3.07638
3.01759
2.96325
2.91281
2.86781
2.8274
2.79291
2.76452
2.74197
2.72736
2.72269
2.72149
2.7243
2.73268
2.74818
2.78108
2.82
2.86306
2.90503
2.94203
2.97299
2.99646
3.01407
3.02553
3.03334
3.0372
3.03893
3.03973
3.0402
3.03838
3.03405
3.02664
3.01803
3.0068
2.99473
2.98047
2.96537
2.9485
2.93088
2.91217
2.8927
2.87262
2.85164
2.83048
2.8083
2.78632
2.76325
2.74063
2.71697
2.69386
2.66994
2.64651
2.62266
2.59909
2.57563
2.55209
2.52921
2.50589
2.48374
2.46084
2.43952
2.4173
2.39687
2.37575
2.35647
2.33702
2.31953
2.30269
2.28856
2.27537
2.26465
2.25676
2.25286
2.25448
4.17606
4.03419
3.94066
3.92373
3.91544
3.94754
4.04545
4.21144
4.33268
4.35829
4.3456
4.30644
4.21875
4.11254
4.01504
3.9313
3.85739
3.78975
3.72301
3.65626
3.58705
3.51763
3.44645
3.3763
3.3065
3.23936
3.17418
3.11234
3.05384
2.99894
2.94826
2.90157
2.85921
2.82198
2.78947
2.76401
2.74366
2.7349
2.72774
2.72792
2.73173
2.74209
2.76228
2.7976
2.83724
2.87886
2.91785
2.95156
2.97779
2.99758
3.01066
3.01898
3.02295
3.02425
3.02522
3.02479
3.02253
3.01717
3.0097
3.00004
2.98885
2.97572
2.96128
2.9451
2.92808
2.90981
2.89092
2.87115
2.85076
2.82977
2.80811
2.78617
2.76355
2.74092
2.7177
2.69458
2.67114
2.64771
2.62434
2.60084
2.57776
2.55446
2.53181
2.50897
2.48689
2.46479
2.44343
2.42238
2.40203
2.38245
2.36368
2.34631
2.33016
2.31674
2.30433
2.2949
2.28809
2.2873
2.28692
2.2936
4.28314
4.14422
4.11837
4.10828
4.1463
4.2712
4.4502
4.56694
4.57663
4.55916
4.50979
4.39931
4.28336
4.18056
4.09447
4.02071
3.95375
3.88965
3.82516
3.75888
3.69047
3.62042
3.54919
3.47792
3.40716
3.33823
3.27087
3.2066
3.1447
3.08619
3.03092
2.97886
2.9309
2.88659
2.84678
2.81214
2.7822
2.75954
2.74383
2.73533
2.72718
2.73101
2.7363
2.74825
2.77215
2.80786
2.84821
2.88843
2.92459
2.95464
2.97722
2.99262
3.00212
3.00598
3.00765
3.00775
3.00762
3.0037
2.99833
2.98936
2.97987
2.96741
2.95435
2.93892
2.92294
2.90532
2.88715
2.86793
2.848
2.82745
2.80617
2.78448
2.76233
2.73972
2.71718
2.6939
2.67131
2.64765
2.62516
2.60144
2.57913
2.55573
2.53375
2.51106
2.48958
2.46803
2.44728
2.42728
2.40785
2.38986
2.37269
2.35777
2.34485
2.334
2.32481
2.32141
2.32085
2.32138
2.32795
2.34941
4.38175
4.3334
4.32189
4.3608
4.50951
4.70855
4.82642
4.81557
4.7899
4.72605
4.59102
4.46209
4.35244
4.26209
4.18652
4.11911
4.05556
3.99194
3.92737
3.86007
3.79127
3.72029
3.64883
3.57661
3.5056
3.43503
3.367
3.30036
3.2364
3.17465
3.11565
3.05961
3.00658
2.95714
2.91094
2.86932
2.83156
2.79935
2.77251
2.75242
2.73981
2.72916
2.72383
2.727
2.73476
2.74917
2.77905
2.81467
2.85425
2.89198
2.92471
2.95025
2.96835
2.97945
2.98521
2.98612
2.98708
2.98566
2.98256
2.97548
2.96708
2.95604
2.94389
2.92993
2.91468
2.89834
2.88058
2.86235
2.84267
2.82291
2.80181
2.78085
2.7588
2.73693
2.7144
2.69188
2.66926
2.64638
2.62399
2.60102
2.57905
2.55629
2.53491
2.51277
2.49219
2.47113
2.45178
2.43241
2.41493
2.39835
2.38401
2.3723
2.36257
2.35439
2.35342
2.35332
2.35652
2.36417
2.38119
2.42974
4.49104
4.51967
4.60721
4.80371
4.99447
5.09811
5.08136
5.04164
4.94957
4.79963
4.6563
4.53679
4.43991
4.35915
4.28889
4.22312
4.15904
4.09423
4.02812
3.9597
3.88997
3.81853
3.74669
3.67427
3.60282
3.53167
3.46228
3.39381
3.32774
3.26338
3.20141
3.14224
3.08504
3.03156
2.98037
2.93324
2.88935
2.8497
2.81449
2.78434
2.75972
2.74323
2.72862
2.71651
2.71673
2.71996
2.72862
2.74572
2.77755
2.81382
2.8518
2.88722
2.91643
2.93839
2.95225
2.95988
2.96116
2.96148
2.96044
2.9568
2.94955
2.93989
2.92862
2.91606
2.90203
2.88691
2.87032
2.853
2.83426
2.81531
2.79491
2.77481
2.75321
2.7323
2.70988
2.68844
2.66561
2.64394
2.62121
2.59952
2.57736
2.55593
2.5346
2.51386
2.49366
2.47419
2.45576
2.43842
2.42295
2.40933
2.39914
2.39034
2.38519
2.38439
2.38568
2.39012
2.40384
2.43258
2.45882
2.52463
4.68474
4.86006
5.11644
5.32837
5.40794
5.37974
5.31927
5.18482
5.01987
4.86453
4.73472
4.62867
4.54246
4.46757
4.39943
4.33368
4.26742
4.2007
4.13172
4.06242
3.99035
3.91878
3.8451
3.77299
3.69935
3.62801
3.55615
3.4869
3.41835
3.35221
3.2878
3.22552
3.16559
3.1081
3.05317
3.00132
2.95219
2.90676
2.86455
2.82658
2.79297
2.76384
2.74275
2.72352
2.70907
2.69793
2.69995
2.705
2.71526
2.73675
2.76865
2.8055
2.8416
2.87405
2.89934
2.91707
2.92709
2.92971
2.93043
2.9294
2.92647
2.91848
2.90876
2.89722
2.88449
2.87044
2.85512
2.8388
2.82123
2.80302
2.78376
2.76423
2.74377
2.72338
2.70208
2.68116
2.65941
2.63824
2.61659
2.59549
2.57434
2.55379
2.53347
2.51404
2.49508
2.47745
2.46084
2.44625
2.43381
2.425
2.41674
2.41517
2.41494
2.41654
2.42577
2.44468
2.47552
2.51905
2.55467
2.62477
5.00885
5.42085
5.69189
5.74899
5.71961
5.63204
5.44062
5.25343
5.08903
4.94939
4.83526
4.73982
4.6585
4.58491
4.51365
4.44391
4.37281
4.30271
4.23044
4.1596
4.08576
4.01389
3.93934
3.86701
3.79293
3.72103
3.64886
3.57844
3.50885
3.4407
3.37405
3.30908
3.24611
3.18528
3.12685
3.07063
3.01752
2.96632
2.9191
2.87383
2.8335
2.79588
2.76384
2.73696
2.71528
2.69535
2.68042
2.67516
2.67728
2.68298
2.69486
2.72103
2.75307
2.7894
2.82346
2.85252
2.87336
2.88625
2.89166
2.89199
2.89159
2.8885
2.88182
2.87153
2.86033
2.84678
2.83322
2.81753
2.80201
2.78436
2.76704
2.74793
2.7293
2.70939
2.68979
2.66947
2.64924
2.62877
2.60845
2.58828
2.56846
2.54914
2.53047
2.5126
2.49592
2.4806
2.46728
2.45674
2.4492
2.44386
2.44302
2.44369
2.44933
2.46139
2.48875
2.52468
2.56743
2.61829
2.65685
2.71865
5.61336
6.10727
6.13511
6.09108
5.95994
5.71832
5.49545
5.31323
5.16766
5.0483
4.94772
4.85947
4.77913
4.70321
4.62907
4.55617
4.4827
4.40952
4.3355
4.26168
4.18747
4.11303
4.03884
3.9644
3.89078
3.81689
3.74419
3.67151
3.59996
3.52916
3.45969
3.3921
3.32577
3.26183
3.19953
3.13965
3.08208
3.02667
2.97437
2.92408
2.87763
2.83355
2.79393
2.75777
2.72693
2.70182
2.67758
2.65852
2.64372
2.64429
2.64652
2.65278
2.66677
2.69524
2.72856
2.76235
2.7942
2.8183
2.83514
2.84443
2.84522
2.84521
2.84319
2.83834