/*--------------------------------*- C++ -*----------------------------------*\
  =========                 |
  \\      /  F ield         | OpenFOAM: The Open Source CFD Toolbox
   \\    /   O peration     | Website:  https://openfoam.org
    \\  /    A nd           | Version:  13
     \\/     M anipulation  |
\*---------------------------------------------------------------------------*/
FoamFile
{
    format      ascii;
    class       volScalarField;
    location    "8";
    object      T;
}
// * * * * * * * * * * * * * * * * * * * * * * * * * * * * * * * * * * * * * //

dimensions      [0 0 0 1 0 0 0];

internalField   nonuniform List<scalar> 
5250
(
1.00001
1.00002
1.00005
1.00015
1.0003
1.0009
1.00189
1.0053
1.01202
1.03185
1.0791
1.21245
1.5681
2.32098
2.70622
2.74446
2.7383
2.73953
2.75102
2.76679
2.77957
2.78777
2.79494
2.79991
2.80204
1.00001
1.00002
1.00006
1.00012
1.00036
1.00074
1.00217
1.00467
1.01284
1.03009
1.07977
1.20855
1.56187
2.31096
2.70278
2.74411
2.73775
2.73876
2.75019
2.76585
2.77852
2.78666
2.79379
2.79866
2.80065
1.00001
1.00002
1.00006
1.00012
1.00035
1.00072
1.00214
1.00451
1.0126
1.02922
1.07788
1.20293
1.54753
2.28861
2.69461
2.74299
2.73608
2.73643
2.74771
2.76289
2.77571
2.78322
2.79025
2.79444
2.79664
1.00001
1.00002
1.00005
1.00012
1.00032
1.00074
1.00192
1.00464
1.01159
1.0289
1.07381
1.1955
1.52486
2.25324
2.68154
2.74139
2.73331
2.73255
2.74339
2.75815
2.77029
2.77867
2.78527
2.78999
2.79129
1.00001
1.00002
1.00004
1.00012
1.00028
1.00075
1.00176
1.00445
1.01095
1.02733
1.06977
1.18412
1.49561
2.20244
2.66294
2.73924
2.72948
2.72712
2.73731
2.75217
2.7634
2.77099
2.77753
2.78108
2.78292
1
1.00002
1.00004
1.00011
1.00027
1.00068
1.00163
1.00422
1.00992
1.02592
1.06396
1.17099
1.45763
2.1347
2.63762
2.73617
2.72428
2.7196
2.72915
2.74314
2.75427
2.76022
2.76675
2.77054
2.77128
1
1.00001
1.00004
1.0001
1.00025
1.00061
1.00156
1.00362
1.00961
1.02255
1.05937
1.15309
1.41429
2.04609
2.60419
2.73127
2.71681
2.70991
2.719
2.73225
2.74336
2.74861
2.75266
2.7553
2.75483
1
1.00001
1.00003
1.00009
1.00021
1.00059
1.00126
1.00358
1.00777
1.02139
1.05085
1.13661
1.36288
1.9379
2.56072
2.72183
2.70525
2.69608
2.70523
2.71699
2.72768
2.73186
2.73403
2.73323
2.72898
1
1.00001
1.00003
1.00009
1.00018
1.00053
1.00108
1.00316
1.00678
1.01858
1.04409
1.11733
1.30979
1.81037
2.50518
2.70495
2.68771
2.67824
2.68735
2.69867
2.70752
2.71083
2.70967
2.70334
2.68713
1
1.00001
1.00003
1.00007
1.00016
1.00044
1.00098
1.0027
1.00595
1.01625
1.03806
1.1014
1.26568
1.70327
2.44468
2.68583
2.66912
2.65996
2.66618
2.67669
2.68317
2.68347
2.6757
2.65438
2.59786
1
1.00001
1.00002
1.00006
1.00015
1.00037
1.0009
1.00228
1.00538
1.01402
1.03363
1.08821
1.23176
1.61901
2.36611
2.65708
2.6555
2.64788
2.64723
2.6533
2.65671
2.65224
2.63345
2.58744
2.48179
1
1.00001
1.00002
1.00006
1.00012
1.00033
1.00078
1.00195
1.00485
1.01179
1.02987
1.07552
1.20054
1.53525
2.25431
2.61371
2.64654
2.63711
2.63156
2.63121
2.62867
2.61731
2.58787
2.52486
2.41517
1
1.00001
1.00002
1.00004
1.00012
1.00027
1.00068
1.00168
1.00404
1.01035
1.02498
1.06465
1.1685
1.45328
2.11306
2.55658
2.63723
2.62748
2.61656
2.61151
2.60281
2.58345
2.54846
2.48583
2.38978
1
1.00001
1.00002
1.00004
1.00009
1.00023
1.00056
1.00141
1.00332
1.00868
1.02051
1.05348
1.13729
1.36964
1.9428
2.48165
2.61986
2.61186
2.59928
2.58853
2.57736
2.5547
2.51556
2.45862
2.38031
1
1
1.00001
1.00003
1.00008
1.00017
1.0005
1.00103
1.00291
1.00644
1.01717
1.04114
1.10813
1.28399
1.7411
2.38567
2.58764
2.58677
2.57703
2.56399
2.54985
2.52914
2.49236
2.43745
2.37012
1
1
1.00001
1.00003
1.00006
1.00016
1.00034
1.00093
1.00212
1.00549
1.01318
1.03334
1.08433
1.22258
1.58664
2.27683
2.54755
2.56065
2.5512
2.53929
2.52358
2.50148
2.47042
2.42218
2.36035
1
1
1.00001
1.00002
1.00005
1.00012
1.00029
1.0007
1.0018
1.00418
1.011
1.02591
1.06787
1.17521
1.4687
2.11881
2.48487
2.54062
2.5318
2.51885
2.50242
2.47836
2.44798
2.40668
2.35286
1
1
1.00001
1.00002
1.00004
1.00009
1.00023
1.00057
1.00133
1.00352
1.00801
1.02128
1.05119
1.13602
1.35916
1.91379
2.39527
2.51609
2.51276
2.49963
2.48184
2.45881
2.4291
2.3912
2.34497
1
1
1
1.00001
1.00003
1.00007
1.00018
1.0004
1.00111
1.00237
1.00663
1.01468
1.03935
1.09674
1.25763
1.66797
2.27486
2.47572
2.48664
2.47637
2.45928
2.43741
2.41057
2.37612
2.3353
1
1
1
1.00001
1.00002
1.00006
1.00013
1.00032
1.00079
1.00189
1.0048
1.01133
1.02918
1.07202
1.19018
1.49865
2.13184
2.42466
2.46157
2.45356
2.43709
2.41599
2.39203
2.36146
2.32545
1
1
1
1.00001
1.00002
1.00004
1.0001
1.00024
1.00059
1.00141
1.00361
1.00845
1.02188
1.05328
1.14024
1.3689
1.92146
2.33573
2.43308
2.4314
2.41812
2.39625
2.37369
2.34657
2.31436
1
1
1
1.00001
1.00001
1.00003
1.00007
1.00019
1.00039
1.00113
1.00235
1.00659
1.01476
1.03899
1.09628
1.25472
1.65909
2.20974
2.39025
2.4055
2.39659
2.37811
2.35526
2.33112
2.30329
1
1
1
1
1.00001
1.00002
1.00005
1.00012
1.0003
1.00076
1.00177
1.00461
1.01057
1.02772
1.06706
1.17712
1.46121
2.04589
2.33103
2.37859
2.37335
2.35836
2.33751
2.31473
2.29006
1
1
1
1
1.00001
1.00002
1.00003
1.0001
1.0002
1.00058
1.00118
1.00341
1.0073
1.01989
1.04683
1.1238
1.32169
1.81297
2.23081
2.34456
2.35003
2.34058
2.32246
2.29986
2.27624
1
1
1
1
1
1.00001
1.00002
1.00006
1.00014
1.00039
1.00082
1.00233
1.0049
1.01358
1.03079
1.08145
1.20551
1.53856
2.0818
2.29102
2.32225
2.31834
2.30395
2.28478
2.26304
1
1
1
1
1
1.00001
1.00002
1.00005
1.00009
1.00027
1.00057
1.00157
1.00349
1.00915
1.02154
1.05529
1.13997
1.36779
1.88381
2.21619
2.293
2.29627
2.28703
2.26922
2.24829
1
1
1
1
1
1.00001
1.00001
1.00003
1.00006
1.00018
1.00038
1.00107
1.00231
1.00617
1.01424
1.03655
1.09049
1.23583
1.60687
2.087
2.25066
2.27217
2.26762
2.25357
2.23479
1
1
1
1
1
1
1.00001
1.00002
1.00005
1.00012
1.00027
1.0007
1.00154
1.00419
1.00917
1.0247
1.05805
1.15317
1.39473
1.90441
2.18288
2.24355
2.24663
2.23809
2.22241
1
1
1
1
1
1
1
1.00001
1.00003
1.00008
1.00017
1.00047
1.00101
1.00272
1.00614
1.01586
1.03786
1.09746
1.2498
1.63725
2.06549
2.20475
2.22492
2.22174
2.21033
1
1
1
1
1
1
1
1.00001
1.00002
1.00005
1.00011
1.0003
1.00066
1.00174
1.00399
1.01007
1.02422
1.0609
1.1543
1.40237
1.88572
2.1391
2.1957
2.20327
2.19985
1
1
1
1
1
1
1
1.00001
1.00001
1.00003
1.00007
1.0002
1.00041
1.00116
1.0024
1.00676
1.01474
1.0392
1.09477
1.24789
1.62289
2.02474
2.1607
2.18554
2.19132
1
1
1
1
1
1
1
1
1.00001
1.00002
1.00005
1.00011
1.00029
1.00067
1.00164
1.00402
1.00953
1.02402
1.05823
1.14944
1.38578
1.84772
2.09643
2.16406
2.18719
1
1
1
1
1
1
1
1
1
1.00001
1.00003
1.00008
1.00017
1.00044
1.00099
1.00252
1.00598
1.01466
1.03595
1.08987
1.22993
1.57882
1.9843
2.13975
2.19048
1
1
1
1
1
1
1
1
1
1.00001
1.00002
1.00005
1.00011
1.00028
1.00061
1.00165
1.00355
1.00971
1.02152
1.05681
1.13919
1.36425
1.81291
2.09278
2.20821
1
1
1
1
1
1
1
1
1
1
1.00001
1.00003
1.00008
1.00016
1.00044
1.00091
1.00256
1.00548
1.01462
1.03369
1.0869
1.21764
1.55096
2.00909
2.25845
1
1
1
1
1
1
1
1
1
1
1.00001
1.00002
1.00004
1.00013
1.00027
1.00072
1.00164
1.00412
1.00996
1.02442
1.0611
1.15558
1.40324
1.92207
2.35896
1
1
1
1
1
1
1
1
1
1
1.00001
1.00002
1.00004
1.00009
1.00021
1.00056
1.00124
1.0034
1.00744
1.02017
1.04736
1.12545
1.32498
1.8198
2.45231
1
1
1
1
1
1
1
1
1
1
1.00001
1.00001
1.00003
1.00007
1.00019
1.00047
1.00115
1.00288
1.00689
1.01773
1.04337
1.11387
1.30173
1.79672
2.5265
1
1
1
1
1
1
1
1
1
1
1.00001
1.00001
1.00003
1.00007
1.00018
1.00044
1.00107
1.00272
1.00649
1.01683
1.04129
1.10891
1.29103
1.78375
2.54705
1
1
1
1
1
1
1
1
1
1
1
1.00001
1.00003
1.00006
1.00018
1.0004
1.00108
1.00252
1.00651
1.01592
1.0407
1.10534
1.28439
1.76803
2.54333
1
1
1
1
1
1
1
1
1
1
1
1.00001
1.00003
1.00007
1.00016
1.00044
1.00096
1.0027
1.00593
1.01636
1.03877
1.10423
1.2777
1.75244
2.53302
1
1
1
1
1
1
1
1
1
1
1
1.00001
1.00003
1.00006
1.00018
1.00037
1.0011
1.00227
1.00661
1.0147
1.04006
1.10032
1.274
1.73871
2.52019
1
1
1
1
1
1
1
1
1
1
1
1.00001
1.00003
1.00006
1.00016
1.0004
1.00097
1.00252
1.00594
1.01561
1.03794
1.10052
1.26822
1.72841
2.5065
1
1
1
1
1
1
1
1
1
1
1
1.00001
1.00002
1.00007
1.00015
1.00043
1.0009
1.00262
1.00565
1.01577
1.03709
1.09974
1.26415
1.72005
2.49378
1
1
1
1
1
1
1
1
1
1
1
1.00001
1.00002
1.00007
1.00015
1.00041
1.00094
1.00248
1.00592
1.01508
1.03759
1.09786
1.26175
1.71251
2.48381
1
1
1
1
1
1
1
1
1
1
1
1.00001
1.00002
1.00007
1.00015
1.00041
1.00093
1.00247
1.00588
1.01499
1.03732
1.09708
1.25923
1.70537
2.47805
1
1
1
1
1
1
1
1
1
1
1
1.00001
1.00002
1.00007
1.00016
1.00039
1.00097
1.00236
1.00607
1.01455
1.03766
1.09585
1.25768
1.69779
2.47639
1
1
1
1
1
1
1
1
1
1
1
1.00001
1.00002
1.00007
1.00015
1.00041
1.00094
1.00243
1.00588
1.0148
1.03705
1.09581
1.2557
1.68937
2.47755
1
1
1
1
1
1
1
1
1
1
1
1.00001
1.00002
1.00007
1.00015
1.00042
1.00088
1.00259
1.0055
1.01541
1.03599
1.09648
1.25378
1.68295
2.47957
1
1
1
1
1
1
1
1
1
1
1
1.00001
1.00003
1.00006
1.00016
1.00037
1.00102
1.00225
1.00623
1.0141
1.03782
1.0942
1.25483
1.67858
2.48128
2.34492
2.47443
2.7333
2.98807
2.97337
2.93305
2.91653
2.90284
2.88383
2.86178
2.84171
2.82359
2.80537
2.78598
2.76541
2.74898
2.74101
2.73865
2.74128
2.74873
2.76559
2.78679
2.81143
2.83596
2.85743
2.87779
2.89518
2.9094
2.92275
2.93282
2.9409
2.94908
2.95442
2.95979
2.96225
2.964
2.96452
2.96476
2.96372
2.96257
2.96032
2.95776
2.95247
2.94937
2.94322
2.93819
2.9317
2.92584
2.91833
2.91177
2.90343
2.89599
2.88684
2.87891
2.86978
2.86126
2.85194
2.84331
2.83318
2.82447
2.81408
2.8047
2.79449
2.78469
2.7746
2.76433
2.75465
2.74397
2.7342
2.72373
2.7134
2.70317
2.6926
2.68222
2.67179
2.66118
2.65083
2.64023
2.62984
2.61934
2.60895
2.59842
2.58824
2.57745
2.56772
2.55659
2.54727
2.53604
2.52688
2.51593
2.5067
2.49629
2.48703
2.47723
2.46832
2.45928
2.45143
2.44392
2.43867
2.4342
2.35763
2.44877
2.58207
2.79608
2.93115
2.98248
3.02313
3.02657
3.01203
3.00169
2.9869
2.97999
2.96783
2.95823
2.94372
2.93386
2.9285
2.92981
2.93903
2.94357
2.96005
2.97207
2.98844
3.0013
3.00877
3.01507
3.01726
3.01778
3.01645
3.01047
3.00566
3.00217
2.99695
2.99142
2.98282
2.97594
2.96519
2.95635
2.94487
2.93518
2.92346
2.91365
2.9013
2.89103
2.87924
2.86962
2.85826
2.84864
2.83691
2.82615
2.81465
2.80394
2.79239
2.78225
2.77105
2.76077
2.75011
2.73935
2.72899
2.71798
2.70815
2.69684
2.68764
2.67621
2.66714
2.65601
2.64664
2.63587
2.62633
2.61565
2.60623
2.59546
2.58621
2.57543
2.5662
2.55552
2.54622
2.53569
2.52637
2.51589
2.50678
2.49617
2.48748
2.47666
2.4684
2.45745
2.44943
2.43862
2.43056
2.42012
2.41186
2.40191
2.39348
2.384
2.37579
2.36704
2.35975
2.3525
2.34761
2.34351
2.34678
2.37194
2.45195
2.50482
2.62023
2.72866
2.87364
2.95549
3.00238
3.02187
3.03358
3.03905
3.0458
3.04784
3.04659
3.03717
3.03304
3.03631
3.04267
3.05096
3.06533
3.07283
3.07445
3.07314
3.06775
3.0602
3.04996
3.03805
3.02588
3.01158
2.99938
2.98454
2.97104
2.95494
2.9401
2.92337
2.90738
2.89045
2.87485
2.85831
2.84396
2.82824
2.81493
2.79982
2.78739
2.77327
2.7615
2.7483
2.73592
2.72256
2.7108
2.69784
2.68659
2.67401
2.66294
2.65062
2.63989
2.62763
2.61719
2.60511
2.59463
2.58302
2.57228
2.56123
2.55034
2.53965
2.52884
2.51834
2.50773
2.49737
2.48697
2.47678
2.46651
2.45655
2.44637
2.43667
2.42661
2.41713
2.40733
2.39795
2.38857
2.3792
2.37027
2.36095
2.35236
2.34328
2.33481
2.32613
2.31754
2.30936
2.30056
2.29291
2.28413
2.27707
2.26866
2.26238
2.25497
2.25019
2.24516
2.24357
2.32355
2.31355
2.33996
2.37788
2.42383
2.50393
2.57143
2.68467
2.77903
2.88272
2.93996
2.97477
3.0043
3.03197
3.04348
3.04695
3.05112
3.04589
3.03785
3.0491
3.05917
3.05354
3.03914
3.02331
3.00511
2.98606
2.96717
2.94676
2.92711
2.90555
2.88606
2.8643
2.84519
2.82426
2.80622
2.78675
2.76991
2.75243
2.73677
2.72164
2.70728
2.69442
2.68116
2.66972
2.65728
2.64665
2.63564
2.62589
2.61464
2.60449
2.5936
2.58385
2.57378
2.56399
2.55452
2.54475
2.5356
2.52595
2.51685
2.50742
2.49829
2.48907
2.47993
2.47073
2.46163
2.45235
2.44334
2.434
2.42505
2.41574
2.40676
2.39752
2.38843
2.3793
2.37014
2.36109
2.35197
2.34292
2.33394
2.32478
2.31604
2.30669
2.29817
2.2887
2.28026
2.27066
2.26213
2.25257
2.24393
2.23454
2.22588
2.21668
2.20819
2.19923
2.1912
2.18268
2.17565
2.16826
2.16345
2.159
2.31184
2.27648
2.27459
2.29245
2.31407
2.35835
2.40349
2.45928
2.52632
2.5959
2.68074
2.77033
2.83403
2.89836
2.94149
2.96521
2.9814
2.98587
2.98296
2.97234
2.95461
2.93103
2.90006
2.87224
2.84545
2.81952
2.79694
2.77506
2.75429
2.7342
2.71446
2.69629
2.67798
2.66186
2.64534
2.63092
2.61638
2.60308
2.59062
2.57818
2.56776
2.55624
2.54727
2.53642
2.52814
2.5177
2.51048
2.50073
2.49377
2.48336
2.47618
2.46612
2.45948
2.45
2.4434
2.43429
2.42748
2.41872
2.41168
2.40318
2.39592
2.38753
2.38012
2.37174
2.36425
2.35585
2.34827
2.33987
2.33216
2.3238
2.31595
2.30768
2.29975
2.29156
2.28369
2.27551
2.26788
2.25965
2.2524
2.24406
2.23726
2.22877
2.22223
2.21362
2.20722
2.19872
2.19235
2.1841
2.17765
2.16973
2.16319
2.15559
2.14903
2.14178
2.13536
2.1286
2.1227
2.11702
2.11269
2.10996
2.30373
2.26186
2.23821
2.23658
2.24547
2.26501
2.29426
2.32744
2.3664
2.41085
2.46134
2.5173
2.58069
2.63671
2.69773
2.75153
2.78749
2.80976
2.8051
2.78935
2.75811
2.72494
2.6864
2.65374
2.62798
2.60487
2.58856
2.57233
2.55964
2.54561
2.53491
2.5232
2.51494
2.50611
2.49972
2.49287
2.48725
2.48159
2.47624
2.47128
2.46591
2.46123
2.45585
2.45099
2.4454
2.43994
2.43458
2.42911
2.42366
2.41711
2.4108
2.40383
2.39767
2.39075
2.38448
2.37741
2.37085
2.36361
2.35679
2.3494
2.34237
2.33482
2.32761
2.31994
2.31258
2.30479
2.29728
2.28939
2.2817
2.27372
2.26587
2.25775
2.24978
2.24149
2.23348
2.225
2.2171
2.20843
2.20072
2.19182
2.18425
2.17529
2.16796
2.15913
2.15191
2.14334
2.13611
2.12792
2.1206
2.11284
2.10546
2.09815
2.09084
2.08404
2.07699
2.07083
2.06443
2.0594
2.05466
2.05257
2.29745
2.25338
2.22098
2.20374
2.19957
2.20478
2.21893
2.23745
2.26327
2.28931
2.32342
2.35946
2.4023
2.44885
2.49357
2.53711
2.56717
2.5861
2.58191
2.56412
2.53003
2.49582
2.45951
2.43453
2.41575
2.40538
2.40447
2.40469
2.40498
2.4061
2.40574
2.40594
2.40605
2.40637
2.40632
2.40611
2.4056
2.40454
2.40329
2.40072
2.39887
2.39527
2.39286
2.38828
2.38501
2.37942
2.37581
2.37027
2.36642
2.36017
2.35489
2.34805
2.34231
2.33559
2.32959
2.32293
2.31662
2.30987
2.30328
2.29637
2.28959
2.28252
2.27561
2.26843
2.26138
2.25412
2.24694
2.23961
2.23231
2.22493
2.21749
2.21008
2.20255
2.19504
2.18752
2.17984
2.17238
2.1644
2.15703
2.14891
2.14173
2.1336
2.12656
2.11854
2.11155
2.10374
2.09674
2.08919
2.08217
2.07495
2.06792
2.06105
2.05411
2.04761
2.0409
2.03489
2.0287
2.02362
2.01889
2.01662
2.29433
2.24916
2.21315
2.18743
2.1725
2.16704
2.16914
2.17762
2.19018
2.20942
2.23034
2.25954
2.29264
2.32997
2.36645
2.40322
2.4323
2.44627
2.44086
2.42233
2.39651
2.36412
2.33766
2.31853
2.305
2.30365
2.30753
2.31659
2.32615
2.33392
2.33937
2.3432
2.34533
2.34713
2.34727
2.34696
2.34613
2.34434
2.34222
2.33954
2.33647
2.33269
2.3292
2.32484
2.32091
2.31615
2.31196
2.30735
2.30303
2.2979
2.29241
2.28638
2.2804
2.27447
2.26832
2.26244
2.25601
2.25001
2.24325
2.23706
2.23008
2.22376
2.21668
2.21029
2.20315
2.19667
2.18941
2.18281
2.17539
2.16864
2.16115
2.15424
2.14681
2.13978
2.13248
2.12523
2.11806
2.11069
2.10367
2.09623
2.08927
2.0818
2.07482
2.0674
2.06035
2.05309
2.04597
2.03894
2.03177
2.02501
2.01785
2.01137
2.00434
1.99818
1.99143
1.98569
1.9795
1.97458
1.96978
1.96756
2.28976
2.24651
2.20875
2.17921
2.15747
2.14439
2.13818
2.1383
2.14392
2.15394
2.17211
2.19628
2.22527
2.25907
2.29333
2.33307
2.35999
2.36644
2.35934
2.34175
2.31205
2.27925
2.25186
2.23287
2.22168
2.21366
2.21331
2.21855
2.22839
2.23873
2.24717
2.25342
2.25796
2.26098
2.26305
2.26435
2.26571
2.26637
2.2671
2.26701
2.26677
2.26611
2.26522
2.26335
2.26187
2.25888
2.2567
2.25334
2.25102
2.24734
2.24392
2.23911
2.23483
2.22973
2.22512
2.21981
2.21488
2.20931
2.20409
2.19828
2.19279
2.18674
2.18098
2.17469
2.16869
2.16222
2.15604
2.14943
2.14309
2.13631
2.12982
2.12279
2.11617
2.1088
2.10208
2.09447
2.08781
2.07999
2.07341
2.06551
2.059
2.05115
2.0447
2.03702
2.03055
2.02308
2.01653
2.00929
2.00266
1.99568
1.98901
1.98231
1.97568
1.96928
1.96283
1.95681
1.95077
1.94554
1.94073
1.93812
2.28493
2.24418
2.20686
2.17515
2.14983
2.13142
2.11952
2.11416
2.11444
2.12145
2.13704
2.16173
2.1866
2.22122
2.2624
2.30171
2.3199
2.32116
2.31181
2.29013
2.25759
2.22386
2.19543
2.17588
2.16381
2.15541
2.15271
2.1539
2.16067
2.1715
2.18383
2.19569
2.20558
2.21377
2.21964
2.22437
2.2278
2.23036
2.23261
2.23363
2.23515
2.23513
2.2349
2.23421
2.23318
2.23107
2.22901
2.22618
2.22386
2.22085
2.21767
2.21361
2.20938
2.20479
2.20012
2.19527
2.1903
2.18515
2.17988
2.1744
2.16881
2.16298
2.15714
2.15105
2.14502
2.13873
2.1325
2.12599
2.11957
2.11283
2.10628
2.09933
2.09268
2.0856
2.07904
2.07186
2.06538
2.05811
2.05163
2.0443
2.03774
2.03041
2.0237
2.01642
2.00956
2.0024
1.99544
1.98846
1.98148
1.97475
1.96782
1.96138
1.9546
1.94851
1.94199
1.93634
1.9303
1.92543
1.92061
1.91832
2.27831
2.24125
2.2054
2.17369
2.14672
2.12541
2.11038
2.10118
2.10018
2.10778
2.12401
2.14618
2.17497
2.21599
2.2628
2.29296
2.30218
2.29854
2.28462
2.25657
2.22277
2.19008
2.16249
2.14093
2.12597
2.11701
2.11044
2.1084
2.10953
2.11487
2.12401
2.13565
2.14812
2.15888
2.16759
2.17413
2.17895
2.18251
2.18506
2.18704
2.18815
2.18889
2.18894
2.18853
2.18775
2.1861
2.18457
2.18226
2.18054
2.17825
2.17594
2.17274
2.16922
2.16532
2.16116
2.15688
2.15221
2.14758
2.14248
2.13755
2.13212
2.12695
2.12123
2.11585
2.10985
2.10422
2.09794
2.09199
2.08547
2.07919
2.0725
2.06588
2.05922
2.0524
2.04581
2.03885
2.03234
2.02533
2.01889
2.01192
2.00552
1.99865
1.99224
1.98547
1.97901
1.97231
1.96577
1.95914
1.95255
1.94602
1.93944
1.93309
1.9266
1.92053
1.91425
1.90861
1.90276
1.89792
1.89323
1.89091
2.27093
2.23687
2.20349
2.17213
2.14566
2.12308
2.10741
2.09792
2.0985
2.10915
2.1253
2.14996
2.18688
2.23536
2.27578
2.29085
2.29277
2.28472
2.26502
2.2324
2.19909
2.16918
2.14399
2.1224
2.10579
2.0927
2.08517
2.07897
2.07648
2.0769
2.08096
2.08836
2.09977
2.11229
2.12424
2.13426
2.14257
2.14866
2.15355
2.1569
2.15952
2.16152
2.16257
2.1638
2.16384
2.1636
2.16299
2.1616
2.16041
2.15855
2.15687
2.15419
2.15125
2.1476
2.14387
2.13966
2.13535
2.13068
2.12595
2.12097
2.11598
2.11078
2.10556
2.10012
2.09462
2.08887
2.08307
2.07694
2.07085
2.06436
2.05811
2.05141
2.04511
2.03821
2.03186
2.02479
2.01841
2.01126
2.00483
1.99768
1.99121
1.98411
1.97759
1.97059
1.96402
1.95715
1.95054
1.94383
1.93721
1.93068
1.92412
1.91782
1.91139
1.90538
1.89921
1.89363
1.88792
1.88312
1.87862
1.87623
2.26264
2.23214
2.20173
2.17198
2.14635
2.12455
2.10987
2.10398
2.10881
2.12234
2.14259
2.17383
2.22185
2.26718
2.29043
2.29461
2.29038
2.2759
2.24969
2.21761
2.18796
2.16092
2.13733
2.11588
2.09781
2.08237
2.07061
2.06194
2.05689
2.05335
2.05344
2.05525
2.06059
2.06971
2.08129
2.09331
2.10394
2.11287
2.11958
2.12463
2.12807
2.13043
2.13207
2.13293
2.13357
2.13341
2.13287
2.13174
2.13034
2.12869
2.12704
2.12498
2.1223
2.1191
2.11541
2.11156
2.10724
2.10296
2.09829
2.09375
2.08885
2.08406
2.07892
2.07379
2.06833
2.0628
2.05699
2.05103
2.04491
2.03865
2.03246
2.02603
2.01983
2.01327
2.00712
2.00047
1.99434
1.98765
1.9815
1.97483
1.96863
1.96202
1.95574
1.94921
1.94284
1.9364
1.92996
1.92362
1.91718
1.91096
1.90458
1.89856
1.89235
1.88663
1.88069
1.87542
1.86999
1.86556
1.86138
1.85926
2.25103
2.2246
2.1978
2.17158
2.14828
2.12965
2.11888
2.11988
2.13067
2.14642
2.17419
2.22041
2.26608
2.29343
2.30159
2.29932
2.28855
2.26628
2.23809
2.20995
2.18411
2.15975
2.13745
2.11654
2.0976
2.08071
2.06592
2.05451
2.04458
2.03934
2.03478
2.03334
2.03359
2.03662
2.04351
2.05392
2.06533
2.07635
2.08572
2.0934
2.09887
2.10322
2.10575
2.10797
2.10882
2.10974
2.1096
2.10912
2.10823
2.10689
2.10565
2.10404
2.10198
2.0992
2.09589
2.09232
2.0883
2.08423
2.07978
2.0754
2.07069
2.06607
2.06109
2.05614
2.05084
2.04548
2.03982
2.03401
2.02812
2.02202
2.01602
2.00967
2.00362
1.99711
1.99104
1.98445
1.97835
1.97174
1.96558
1.959
1.95275
1.94623
1.9399
1.93343
1.92704
1.92062
1.91422
1.90787
1.90151
1.89531
1.88905
1.88308
1.87703
1.87143
1.86574
1.86071
1.85566
1.85161
1.84793
1.84608
2.24089
2.21639
2.19348
2.17078
2.15252
2.13869
2.13722
2.14492
2.15806
2.18399
2.22619
2.27149
2.3011
2.31076
2.30959
2.30174
2.28422
2.25832
2.23204
2.20794
2.18504
2.16336
2.14209
2.12183
2.10244
2.08446
2.06805
2.05366
2.04076
2.03107
2.02234
2.01867
2.01506
2.01489
2.01592
2.02057
2.02868
2.03889
2.04938
2.05893
2.06694
2.07314
2.07769
2.08062
2.08282
2.08381
2.08464
2.08438
2.08377
2.08257
2.08128
2.07978
2.07797
2.07564
2.07262
2.06933
2.06553
2.06172
2.05748
2.05332
2.04877
2.04431
2.03949
2.03466
2.02952
2.02425
2.01878
2.01313
2.0075
2.00157
1.99582
1.98969
1.98387
1.9776
1.97173
1.9654
1.95946
1.95312
1.94709
1.94077
1.93464
1.92834
1.92215
1.91589
1.90966
1.90346
1.89726
1.89115
1.88504
1.8791
1.87315
1.8675
1.86179
1.8566
1.85127
1.84678
1.84219
1.8388
1.8356
1.83409
2.22884
2.20887
2.18842
2.17119
2.15863
2.15693
2.16307
2.17618
2.20014
2.23955
2.28307
2.31233
2.32239
2.32191
2.31564
2.30041
2.27684
2.25346
2.23102
2.21051
2.18951
2.16927
2.14867
2.12885
2.10923
2.09072
2.07282
2.05666
2.04122
2.0285
2.01698
2.00887
2.00228
1.99917
1.99691
1.99706
1.99921
2.00509
2.01354
2.02321
2.03267
2.04129
2.04795
2.05326
2.0565
2.0589
2.05978
2.06035
2.05996
2.05915
2.05799
2.05678
2.0554
2.05371
2.05128
2.04846
2.04503
2.04149
2.03742
2.0334
2.02894
2.02458
2.01983
2.01513
2.0101
2.00497
1.99967
1.99424
1.98876
1.98304
1.97743
1.97148
1.96579
1.95968
1.95394
1.94777
1.94198
1.9358
1.92993
1.92377
1.9178
1.91168
1.90561
1.89954
1.8934
1.8874
1.88127
1.87539
1.86936
1.8637
1.85788
1.85256
1.84712
1.84234
1.83749
1.83364
1.82971
1.82705
1.82465
1.82377
2.217
2.20048
2.18661
2.17501
2.17324
2.1797
2.19354
2.21776
2.25746
2.29904
2.32647
2.33585
2.33507
2.32859
2.31378
2.29349
2.27201
2.25249
2.23324
2.21451
2.1951
2.17563
2.1559
2.13609
2.11674
2.09759
2.07928
2.06161
2.04486
2.02998
2.01602
2.0047
1.99479
1.98758
1.98274
1.97983
1.97808
1.97829
1.98125
1.98785
1.99632
2.00534
2.01398
2.02122
2.02706
2.03089
2.03366
2.03475
2.03545
2.03504
2.03417
2.03306
2.03177
2.03039
2.02834
2.02593
2.02265
2.01935
2.01542
2.01165
2.00737
2.00328
1.99876
1.99433
1.98951
1.98467
1.97965
1.97447
1.96925
1.96379
1.95838
1.95269
1.94713
1.94129
1.9356
1.92968
1.9239
1.91795
1.9121
1.90617
1.90028
1.89438
1.8885
1.88266
1.87682
1.87107
1.8653
1.85974
1.85404
1.84882
1.84327
1.83854
1.83336
1.82934
1.82498
1.82196
1.8187
1.81697
1.81572
1.8154
2.20678
2.19285
2.18578
2.1865
2.1949
2.21009
2.23497
2.27595
2.31587
2.34069
2.34958
2.34819
2.3405
2.32545
2.30598
2.28724
2.26945
2.25277
2.23599
2.21848
2.20055
2.18158
2.16253
2.14309
2.1238
2.10467
2.08564
2.06741
2.0497
2.03332
2.01768
2.00372
1.99103
1.98017
1.97191
1.9654
1.96169
1.95815
1.95746
1.95785
1.96204
1.96903
1.97751
1.9862
1.99379
2.00011
2.00449
2.00765
2.00906
2.00994
2.00953
2.00871
2.00744
2.00635
2.00463
2.00283
1.99994
1.99714
1.9935
1.99013
1.98604
1.9822
1.9778
1.9735
1.96883
1.96415
1.95933
1.95433
1.94938
1.94406
1.93897
1.93337
1.92816
1.92237
1.91706
1.91122
1.90582
1.90003
1.89451
1.88883
1.88316
1.87765
1.87182
1.86649
1.86054
1.85542
1.84946
1.84456
1.8388
1.83414
1.82885
1.82461
1.82011
1.8167
1.81334
1.81112
1.80906
1.80891
1.80944
1.80893
2.19765
2.19099
2.19364
2.20422
2.22378
2.25095
2.29357
2.33416
2.35655
2.36422
2.36218
2.35282
2.33548
2.31697
2.29952
2.28353
2.26873
2.25355
2.23832
2.22158
2.20452
2.18605
2.16767
2.14842
2.12944
2.10997
2.09099
2.07211
2.05377
2.03615
2.01924
2.00354
1.98916
1.97603
1.96493
1.95497
1.94811
1.94215
1.93839
1.93512
1.93481
1.93615
1.94112
1.94857
1.95672
1.96469
1.97176
1.97711
1.98109
1.98312
1.98416
1.98385
1.98289
1.98183
1.98044
1.97894
1.97672
1.97409
1.971
1.96777
1.96413
1.96045
1.95635
1.95224
1.9478
1.94341
1.93873
1.93403
1.92917
1.92419
1.91921
1.91401
1.90891
1.90353
1.89831
1.89286
1.88751
1.8821
1.87663
1.87129
1.86576
1.86049
1.85495
1.84976
1.8443
1.83919
1.83394
1.82896
1.82409
1.81942
1.81516
1.81116
1.80793
1.80503
1.80304
1.80167
1.80179
1.80273
1.8047
1.80477
2.19424
2.19595
2.20923
2.23207
2.26501
2.31061
2.35223
2.37299
2.37818
2.37521
2.36332
2.34385
2.3251
2.30869
2.29416
2.28083
2.26768
2.25376
2.23893
2.22294
2.20604
2.18837
2.17022
2.15162
2.13284
2.11371
2.09482
2.07571
2.05715
2.03887
2.02126
2.00458
1.98865
1.97403
1.96055
1.94827
1.9381
1.92911
1.92273
1.91685
1.91343
1.91102
1.91108
1.9134
1.91918
1.92689
1.93503
1.94246
1.9487
1.95313
1.95588
1.95719
1.95714
1.95649
1.9552
1.95429
1.95236
1.95074
1.94767
1.94522
1.94163
1.93854
1.93447
1.93078
1.92645
1.92233
1.91781
1.91332
1.90868
1.90393
1.89919
1.8943
1.88936
1.88442
1.8792
1.8743
1.86882
1.86401
1.85839
1.85368
1.84809
1.8434
1.83794
1.83324
1.82802
1.82325
1.81843
1.81372
1.80942
1.80513
1.80167
1.79832
1.79624
1.79412
1.79383
1.79421
1.79559
1.79857
1.80229
1.80518
2.19617
2.20961
2.2346
2.27483
2.32481
2.3675
2.38724
2.39142
2.38739
2.37312
2.35242
2.33308
2.31676
2.30294
2.29039
2.27839
2.2658
2.25254
2.23799
2.22266
2.20612
2.18915
2.1713
2.1533
2.13453
2.1159
2.09659
2.07769
2.05875
2.04032
2.02235
2.00497
1.98835
1.9724
1.95764
1.94355
1.93103
1.91958
1.9099
1.90224
1.89548
1.89046
1.88686
1.88597
1.88632
1.88994
1.89642
1.90426
1.91209
1.91918
1.92462
1.92843
1.93048
1.93104
1.93033
1.92957
1.92808
1.92686
1.92439
1.92212
1.91894
1.91598
1.91238
1.90881
1.90501
1.90095
1.89693
1.89247
1.88829
1.88359
1.87928
1.87446
1.86998
1.86509
1.86039
1.8555
1.85056
1.84575
1.84062
1.83594
1.8307
1.82618
1.82097
1.81661
1.81158
1.80742
1.80274
1.79896
1.79496
1.79188
1.7891
1.78731
1.78584
1.78591
1.78683
1.78865
1.79159
1.79791
1.80628
1.81203
2.20658
2.23838
2.28868
2.34077
2.3824
2.40054
2.40462
2.39824
2.3809
2.35928
2.33912
2.32268
2.30929
2.29787
2.28681
2.27569
2.26357
2.25044
2.23609
2.22091
2.20473
2.18802
2.17048
2.15266
2.1341
2.11556
2.09655
2.0779
2.05902
2.04059
2.02242
2.0045
1.98752
1.97062
1.95492
1.93956
1.92536
1.91211
1.90009
1.88965
1.88078
1.87373
1.86719
1.86326
1.86067
1.86072
1.86227
1.86716
1.87438
1.88224
1.88979
1.89605
1.90078
1.90345
1.90472
1.90453
1.90363
1.90274
1.90141
1.89945
1.89685
1.89394
1.89082
1.88747
1.88403
1.88026
1.87646
1.87226
1.86821
1.86367
1.85953
1.85475
1.85058
1.84566
1.84149
1.8365
1.83232
1.82732
1.82306
1.81817
1.81377
1.8091
1.80468
1.80027
1.79605
1.79205
1.78825
1.78493
1.78193
1.77989
1.77819
1.77752
1.77778
1.7791
1.78127
1.78599
1.79255
1.80308
1.81521
1.82265
2.23671
2.29805
2.3567
2.39729
2.41238
2.41617
2.4068
2.38738
2.36429
2.34437
2.32793
2.31504
2.30357
2.29308
2.28214
2.2705
2.25826
2.24479
2.23085
2.21556
2.20018
2.18341
2.1669
2.14897
2.13161
2.11302
2.09506
2.07626
2.05795
2.03939
2.02117
2.00324
1.98566
1.96857
1.95206
1.93602
1.9209
1.90632
1.89297
1.88057
1.86964
1.86042
1.85245
1.84583
1.84036
1.8374
1.83661
1.83681
1.83961
1.84535
1.85309
1.86087
1.86831
1.87393
1.87793
1.87982
1.88024
1.87972
1.87873
1.87763
1.87556
1.87301
1.87002
1.86702
1.8638
1.86044
1.85691
1.8531
1.84925
1.84508
1.841
1.83658
1.83237
1.82779
1.82359
1.81896
1.81478
1.81019
1.80597
1.8015
1.79726
1.79292
1.78886
1.78475
1.78109
1.77751
1.77457
1.77203
1.77048
1.76933
1.76938
1.77024
1.77187
1.7755
1.78015
1.78957
1.80031
1.8134
1.82691
1.83409
2.30334
2.38087
2.41929
2.43239
2.42926
2.41504
2.3917
2.36807
2.34685
2.33092
2.31812
2.30773
2.29766
2.28731
2.27686
2.26533
2.25353
2.24008
2.22656
2.21127
2.19641
2.17969
2.16362
2.14583
2.12866
2.11025
2.09218
2.07359
2.05519
2.03688
2.01877
2.00097
1.98346
1.96631
1.94952
1.93337
1.91747
1.90272
1.88815
1.8752
1.86244
1.85165
1.84159
1.83346
1.82603
1.81989
1.81556
1.81369
1.81354
1.81481
1.81885
1.82538
1.8334
1.84106
1.84803
1.85291
1.85624
1.85773
1.8577
1.85716
1.85602
1.85456
1.85183
1.84929
1.84592
1.84309
1.83943
1.83632
1.83227
1.82881
1.82444
1.82065
1.81609
1.81203
1.80753
1.80333
1.799
1.79483
1.79063
1.78651
1.78245
1.77847
1.77464
1.77106
1.76776
1.76496
1.76281
1.76143
1.76092
1.76121
1.76242
1.76484
1.76859
1.77633
1.7858
1.79854
1.81188
1.82525
1.8375
1.84307
2.40334
2.45097
2.45932
2.45043
2.42792
2.40006
2.37551
2.3544
2.33709
2.3237
2.31274
2.30293
2.29299
2.28228
2.27077
2.25818
2.24522
2.23148
2.21751
2.20283
2.18768
2.17197
2.15557
2.13882
2.12132
2.10387
2.08587
2.06816
2.05036
2.03279
2.01537
1.99796
1.98103
1.9641
1.94769
1.93151
1.91575
1.90067
1.88584
1.87211
1.85864
1.84656
1.835
1.82507
1.8162
1.80838
1.80166
1.79648
1.79373
1.7931
1.79357
1.79597
1.80124
1.80894
1.81688
1.8251
1.83113
1.83614
1.83837
1.83926
1.83872
1.83791
1.83673
1.83441
1.83152
1.82845
1.82514
1.822
1.81826
1.81486
1.81071
1.80702
1.8027
1.79872
1.79439
1.79021
1.78594
1.78178
1.77768
1.77369
1.76992
1.76621
1.76295
1.7598
1.7574
1.7555
1.7546
1.75433
1.75502
1.75651
1.75929
1.76494
1.77306
1.78446
1.79718
1.8111
1.82423
1.83535
1.84447
1.84776
2.52784
2.52252
2.49878
2.46077
2.42182
2.39052
2.36654
2.34814
2.33312
2.32062
2.30969
2.2996
2.28926
2.27812
2.26612
2.25306
2.23953
2.22536
2.21098
2.19623
2.18122
2.16584
2.15007
2.13379
2.11711
2.09998
2.08283
2.06541
2.04819
2.03074
2.01384
1.99669
1.98013
1.96338
1.94725
1.93121
1.91562
1.90057
1.88574
1.87182
1.85806
1.84542
1.83313
1.8221
1.81179
1.80295
1.79506
1.78738
1.78155
1.77752
1.77609
1.77659
1.77834
1.78232
1.78906
1.79744
1.80578
1.81368
1.81936
1.82309
1.82495
1.82484
1.82429
1.82316
1.82158
1.81835
1.81558
1.81169
1.80846
1.80449
1.80092
1.79679
1.79281
1.78856
1.78429
1.78013
1.77577
1.77185
1.76767
1.76404
1.76034
1.75716
1.75427
1.75197
1.75051
1.74982
1.74996
1.75087
1.75279
1.7568
1.76329
1.7732
1.78493
1.79839
1.81178
1.82436
1.83467
1.84213
1.84751
1.84858
2.65316
2.61162
2.55871
2.49176
2.44231
2.40676
2.38144
2.36184
2.34502
2.33016
2.31669
2.30423
2.29191
2.27908
2.2659
2.25184
2.23754
2.22277
2.20784
2.19276
2.17738
2.16192
2.14605
2.13019
2.11383
2.09743
2.08075
2.06387
2.0473
2.03021
2.01403
1.99704
1.98136
1.96489
1.94961
1.93404
1.91911
1.9045
1.89004
1.87626
1.86257
1.84958
1.83696
1.825
1.81381
1.80339
1.79421
1.78592
1.7787
1.77226
1.76812
1.76577
1.76529
1.76643
1.76922
1.77424
1.78286
1.79139
1.80069
1.80719
1.81292
1.81518
1.81657
1.81585
1.81488
1.8132
1.81036
1.80691
1.80311