/*--------------------------------*- C++ -*----------------------------------*\
  =========                 |
  \\      /  F ield         | OpenFOAM: The Open Source CFD Toolbox
   \\    /   O peration     | Website:  https://openfoam.org
    \\  /    A nd           | Version:  13
     \\/     M anipulation  |
\*---------------------------------------------------------------------------*/
FoamFile
{
    format      ascii;
    class       volVectorField;
    location    "8";
    object      U;
}
// * * * * * * * * * * * * * * * * * * * * * * * * * * * * * * * * * * * * * //

dimensions      [0 1 -1 0 0 0 0];

internalField   nonuniform List<vector> 
5250
(
(2.99999 2.27959e-08 0)
(2.99998 3.52405e-08 0)
(2.99996 2.66108e-07 0)
(2.99989 4.24083e-07 0)
(2.99972 2.09313e-06 0)
(2.99931 2.18261e-06 0)
(2.99831 1.76651e-05 0)
(2.99578 7.23692e-06 0)
(2.98961 0.00011155 0)
(2.97387 9.54778e-05 0)
(2.93271 0.000528493 0)
(2.81803 0.0010492 0)
(2.48167 0.00329893 0)
(1.54688 0.00929384 0)
(0.692222 0.0227803 0)
(0.535586 0.0231329 0)
(0.563277 0.0238019 0)
(0.557861 0.0254736 0)
(0.504575 0.0272892 0)
(0.4184 0.0293093 0)
(0.336462 0.0317735 0)
(0.267623 0.0346486 0)
(0.198046 0.0376968 0)
(0.118853 0.0412576 0)
(0.0520412 0.0463262 0)
(2.99999 4.77584e-08 0)
(2.99998 2.01247e-07 0)
(2.99996 8.07677e-07 0)
(2.99989 2.0271e-06 0)
(2.99972 6.00988e-06 0)
(2.99932 1.27561e-05 0)
(2.99831 4.14818e-05 0)
(2.99586 7.0358e-05 0)
(2.98968 0.000256415 0)
(2.97421 0.000466384 0)
(2.93354 0.00144366 0)
(2.82022 0.00347932 0)
(2.48869 0.0100378 0)
(1.56223 0.0289097 0)
(0.701843 0.0691637 0)
(0.533552 0.0667779 0)
(0.562327 0.0658935 0)
(0.557668 0.0685717 0)
(0.504344 0.0715968 0)
(0.418292 0.0752004 0)
(0.33634 0.0794708 0)
(0.266928 0.0841263 0)
(0.196364 0.088504 0)
(0.115902 0.0927759 0)
(0.0487019 0.0970161 0)
(3 6.69537e-08 0)
(2.99998 3.45259e-07 0)
(2.99996 1.44072e-06 0)
(2.99989 3.2797e-06 0)
(2.99973 1.05384e-05 0)
(2.99934 2.19158e-05 0)
(2.99836 6.44242e-05 0)
(2.99596 0.000140169 0)
(2.98994 0.000379147 0)
(2.97485 0.000896625 0)
(2.93526 0.00233162 0)
(2.82508 0.00608086 0)
(2.50313 0.0169893 0)
(1.59694 0.049503 0)
(0.724045 0.119615 0)
(0.530999 0.11299 0)
(0.562811 0.110375 0)
(0.560423 0.115272 0)
(0.507602 0.121005 0)
(0.422312 0.128166 0)
(0.340724 0.136092 0)
(0.270905 0.14449 0)
(0.199353 0.152562 0)
(0.117467 0.159972 0)
(0.0483665 0.165534 0)
(3 6.08078e-08 0)
(2.99998 5.65167e-07 0)
(2.99996 1.57249e-06 0)
(2.9999 5.45327e-06 0)
(2.99974 1.19433e-05 0)
(2.99936 3.63094e-05 0)
(2.99841 7.44272e-05 0)
(2.99612 0.000228431 0)
(2.99031 0.000466613 0)
(2.97584 0.00135993 0)
(2.93784 0.00315093 0)
(2.8325 0.00867873 0)
(2.52493 0.0238109 0)
(1.65103 0.0695222 0)
(0.75821 0.171052 0)
(0.526859 0.158895 0)
(0.564688 0.153997 0)
(0.566489 0.16126 0)
(0.514737 0.169888 0)
(0.430758 0.180931 0)
(0.34971 0.192898 0)
(0.279602 0.205578 0)
(0.206962 0.218127 0)
(0.122824 0.229483 0)
(0.0502342 0.23684 0)
(3 1.00656e-07 0)
(2.99999 6.63792e-07 0)
(2.99996 2.26822e-06 0)
(2.9999 6.49773e-06 0)
(2.99976 1.69347e-05 0)
(2.99939 4.39477e-05 0)
(2.99852 0.000106554 0)
(2.99629 0.00027362 0)
(2.99088 0.000657134 0)
(2.97709 0.00166127 0)
(2.94134 0.00418637 0)
(2.84237 0.0110014 0)
(2.55397 0.0306235 0)
(1.72492 0.0887985 0)
(0.804778 0.223861 0)
(0.521345 0.204717 0)
(0.568095 0.196935 0)
(0.57594 0.206457 0)
(0.525694 0.217886 0)
(0.443551 0.232805 0)
(0.363277 0.249083 0)
(0.293034 0.266562 0)
(0.219132 0.284315 0)
(0.131788 0.300651 0)
(0.0539772 0.310773 0)
(3 1.31028e-07 0)
(2.99999 7.97145e-07 0)
(2.99996 2.79724e-06 0)
(2.99991 7.83998e-06 0)
(2.99977 2.07835e-05 0)
(2.99944 5.18567e-05 0)
(2.9986 0.000132784 0)
(2.99658 0.000319537 0)
(2.99147 0.000816091 0)
(2.97879 0.00198483 0)
(2.94562 0.0050914 0)
(2.85459 0.0132674 0)
(2.59009 0.0369569 0)
(1.81977 0.106895 0)
(0.86497 0.277523 0)
(0.516053 0.250463 0)
(0.574693 0.239548 0)
(0.590109 0.251329 0)
(0.541521 0.265548 0)
(0.461663 0.284539 0)
(0.382369 0.305642 0)
(0.312129 0.32885 0)
(0.236903 0.353289 0)
(0.145419 0.376745 0)
(0.0603157 0.392024 0)
(3 1.39972e-07 0)
(2.99999 9.51586e-07 0)
(2.99997 3.11401e-06 0)
(2.99992 9.28972e-06 0)
(2.99979 2.3251e-05 0)
(2.99948 6.13767e-05 0)
(2.99874 0.000146087 0)
(2.99685 0.000380552 0)
(2.99227 0.000901133 0)
(2.98065 0.00233527 0)
(2.95076 0.00574345 0)
(2.86894 0.0152533 0)
(2.63263 0.042022 0)
(1.93596 0.12186 0)
(0.941255 0.32734 0)
(0.515807 0.296561 0)
(0.587528 0.282777 0)
(0.611077 0.29597 0)
(0.563918 0.312616 0)
(0.486658 0.336044 0)
(0.40862 0.362725 0)
(0.338728 0.39298 0)
(0.262538 0.426206 0)
(0.166349 0.460377 0)
(0.0709787 0.485774 0)
(3 1.62351e-07 0)
(2.99999 9.37657e-07 0)
(2.99997 3.50772e-06 0)
(2.99993 9.15532e-06 0)
(2.99981 2.61023e-05 0)
(2.99954 6.1786e-05 0)
(2.99887 0.000163577 0)
(2.99721 0.000389619 0)
(2.9931 0.000998574 0)
(2.98282 0.00244938 0)
(2.95638 0.006252 0)
(2.88491 0.0162727 0)
(2.6796 0.0450537 0)
(2.07095 0.130749 0)
(1.03734 0.366996 0)
(0.530811 0.345378 0)
(0.610572 0.331209 0)
(0.641058 0.342671 0)
(0.595293 0.360068 0)
(0.521007 0.3876 0)
(0.4444 0.420434 0)
(0.375376 0.459186 0)
(0.299291 0.503741 0)
(0.19927 0.553996 0)
(0.089803 0.600193 0)
(3 1.48465e-07 0)
(2.99999 9.29435e-07 0)
(2.99997 3.21436e-06 0)
(2.99993 9.12455e-06 0)
(2.99984 2.40025e-05 0)
(2.9996 6.08703e-05 0)
(2.99901 0.000153658 0)
(2.99755 0.000377271 0)
(2.99399 0.000952862 0)
(2.98504 0.00234217 0)
(2.96227 0.00596231 0)
(2.90142 0.0153948 0)
(2.72881 0.0422731 0)
(2.22006 0.121954 0)
(1.16619 0.356569 0)
(0.5841 0.382828 0)
(0.65321 0.382897 0)
(0.68377 0.390436 0)
(0.639211 0.409151 0)
(0.567986 0.439508 0)
(0.492923 0.479172 0)
(0.425417 0.526806 0)
(0.352119 0.584997 0)
(0.253504 0.66049 0)
(0.125223 0.750001 0)
(3 1.4221e-07 0)
(2.99999 8.0729e-07 0)
(2.99998 2.98811e-06 0)
(2.99994 7.88951e-06 0)
(2.99986 2.20473e-05 0)
(2.99965 5.22055e-05 0)
(2.99913 0.000139098 0)
(2.99787 0.000320954 0)
(2.99474 0.000847335 0)
(2.987 0.00197999 0)
(2.96728 0.00513827 0)
(2.91521 0.0128674 0)
(2.76886 0.0348561 0)
(2.3398 0.0983974 0)
(1.30215 0.293492 0)
(0.640477 0.413189 0)
(0.686568 0.440844 0)
(0.718851 0.440329 0)
(0.684487 0.460353 0)
(0.621688 0.491673 0)
(0.552329 0.537766 0)
(0.48961 0.593621 0)
(0.427622 0.669928 0)
(0.346124 0.787318 0)
(0.193754 0.994101 0)
(3 1.09412e-07 0)
(2.99999 7.83273e-07 0)
(2.99998 2.42235e-06 0)
(2.99995 7.63715e-06 0)
(2.99987 1.79789e-05 0)
(2.99969 4.99906e-05 0)
(2.99924 0.000113158 0)
(2.99814 0.00030519 0)
(2.99537 0.000697698 0)
(2.98861 0.001828 0)
(2.97135 0.00435538 0)
(2.92613 0.0113111 0)
(2.79965 0.0296101 0)
(2.42954 0.082837 0)
(1.45254 0.24477 0)
(0.717071 0.460078 0)
(0.700846 0.493173 0)
(0.730702 0.489813 0)
(0.719058 0.508932 0)
(0.672876 0.541056 0)
(0.61703 0.590579 0)
(0.56846 0.654663 0)
(0.536634 0.746648 0)
(0.534048 0.890518 0)
(0.568235 1.13229 0)
(3 1.10059e-07 0)
(2.99999 7.09101e-07 0)
(2.99998 2.38304e-06 0)
(2.99996 6.90277e-06 0)
(2.99989 1.76745e-05 0)
(2.99973 4.5453e-05 0)
(2.99934 0.000111724 0)
(2.99836 0.000279284 0)
(2.99601 0.00068596 0)
(2.99004 0.00169447 0)
(2.97518 0.00421663 0)
(2.93618 0.0106432 0)
(2.82812 0.0280588 0)
(2.51339 0.0780021 0)
(1.63579 0.227815 0)
(0.826558 0.509202 0)
(0.70818 0.526976 0)
(0.738783 0.528973 0)
(0.746113 0.547502 0)
(0.718703 0.583044 0)
(0.682274 0.634139 0)
(0.654845 0.704114 0)
(0.655077 0.801679 0)
(0.707838 0.938294 0)
(0.83448 1.11639 0)
(3 1.17847e-07 0)
(2.99999 6.46384e-07 0)
(2.99999 2.48194e-06 0)
(2.99996 6.32006e-06 0)
(2.99991 1.83761e-05 0)
(2.99977 4.21499e-05 0)
(2.99943 0.000115762 0)
(2.99862 0.000260876 0)
(2.99655 0.00070217 0)
(2.99155 0.00161549 0)
(2.97881 0.0042275 0)
(2.94598 0.0103577 0)
(2.85569 0.0275177 0)
(2.59436 0.0758946 0)
(1.8394 0.220249 0)
(0.962549 0.548833 0)
(0.719888 0.554441 0)
(0.750616 0.558044 0)
(0.772785 0.575925 0)
(0.762861 0.615465 0)
(0.745102 0.668675 0)
(0.740057 0.738722 0)
(0.763667 0.829848 0)
(0.83699 0.940926 0)
(0.977981 1.04999 0)
(3 1.00573e-07 0)
(3 6.73907e-07 0)
(2.99999 2.2105e-06 0)
(2.99997 6.60887e-06 0)
(2.99992 1.65257e-05 0)
(2.99981 4.38683e-05 0)
(2.99953 0.000105138 0)
(2.99885 0.000270274 0)
(2.99713 0.000651461 0)
(2.99298 0.00165052 0)
(2.98247 0.00405608 0)
(2.95559 0.0103179 0)
(2.88271 0.0268707 0)
(2.6739 0.0741833 0)
(2.05786 0.215128 0)
(1.12525 0.581046 0)
(0.750654 0.589435 0)
(0.775195 0.591633 0)
(0.806128 0.602024 0)
(0.810292 0.640427 0)
(0.805831 0.693939 0)
(0.816196 0.759412 0)
(0.853974 0.836909 0)
(0.931605 0.922237 0)
(1.06416 0.992944 0)
(3 8.73926e-08 0)
(3 6.13086e-07 0)
(2.99999 1.95706e-06 0)
(2.99997 5.98701e-06 0)
(2.99994 1.46085e-05 0)
(2.99985 3.97768e-05 0)
(2.99962 9.25168e-05 0)
(2.99907 0.000246736 0)
(2.9977 0.000571225 0)
(2.99439 0.00150433 0)
(2.98603 0.00356157 0)
(2.96499 0.00924186 0)
(2.90905 0.0234819 0)
(2.75208 0.0643721 0)
(2.29265 0.184866 0)
(1.34093 0.534622 0)
(0.83575 0.6134 0)
(0.826646 0.628846 0)
(0.851696 0.634287 0)
(0.865356 0.664224 0)
(0.867547 0.712283 0)
(0.884615 0.770313 0)
(0.928147 0.834478 0)
(1.00411 0.899917 0)
(1.12323 0.950902 0)
(3 7.36552e-08 0)
(3 5.00358e-07 0)
(2.99999 1.64876e-06 0)
(2.99998 4.8681e-06 0)
(2.99995 1.22721e-05 0)
(2.99988 3.22472e-05 0)
(2.9997 7.69108e-05 0)
(2.99925 0.000199353 0)
(2.99818 0.00046651 0)
(2.99547 0.00120885 0)
(2.98892 0.00285651 0)
(2.9722 0.00731662 0)
(2.92868 0.0182731 0)
(2.80824 0.0488101 0)
(2.45924 0.136706 0)
(1.56605 0.4089 0)
(0.93105 0.636774 0)
(0.87397 0.666665 0)
(0.893203 0.675912 0)
(0.916184 0.691802 0)
(0.926029 0.729129 0)
(0.946469 0.777512 0)
(0.990787 0.82985 0)
(1.06249 0.880664 0)
(1.16764 0.919487 0)
(3 6.88572e-08 0)
(3 3.99924e-07 0)
(2.99999 1.45894e-06 0)
(2.99998 3.90254e-06 0)
(2.99996 1.0775e-05 0)
(2.9999 2.57453e-05 0)
(2.99976 6.77475e-05 0)
(2.9994 0.000157278 0)
(2.99854 0.000410687 0)
(2.99638 0.000954098 0)
(2.99112 0.00246634 0)
(2.97782 0.00588689 0)
(2.94351 0.0151329 0)
(2.8494 0.039089 0)
(2.57857 0.108101 0)
(1.8177 0.31801 0)
(1.06384 0.673593 0)
(0.904812 0.700563 0)
(0.919974 0.711919 0)
(0.951438 0.717482 0)
(0.975073 0.744579 0)
(1.00048 0.783754 0)
(1.04424 0.826086 0)
(1.11088 0.865792 0)
(1.20337 0.895727 0)
(3 5.76791e-08 0)
(3 3.5289e-07 0)
(2.99999 1.24166e-06 0)
(2.99999 3.4404e-06 0)
(2.99997 9.20412e-06 0)
(2.99992 2.27346e-05 0)
(2.99981 5.79835e-05 0)
(2.99953 0.000140022 0)
(2.99885 0.000353612 0)
(2.99718 0.000853246 0)
(2.99303 0.00214967 0)
(2.98275 0.00525327 0)
(2.95628 0.0133417 0)
(2.88506 0.0345008 0)
(2.68191 0.0948078 0)
(2.0866 0.275094 0)
(1.24461 0.697505 0)
(0.944934 0.732722 0)
(0.948253 0.739792 0)
(0.9819 0.739887 0)
(1.01737 0.756657 0)
(1.04794 0.788111 0)
(1.09063 0.822922 0)
(1.15197 0.854521 0)
(1.2336 0.877794 0)
(3 4.43411e-08 0)
(3 3.03536e-07 0)
(3 9.81172e-07 0)
(2.99999 2.95949e-06 0)
(2.99998 7.31196e-06 0)
(2.99994 1.94871e-05 0)
(2.99986 4.60653e-05 0)
(2.99965 0.000119663 0)
(2.99914 0.000282375 0)
(2.99788 0.000724952 0)
(2.99479 0.00172958 0)
(2.98715 0.00440072 0)
(2.96788 0.0107986 0)
(2.9172 0.0280769 0)
(2.77701 0.0753932 0)
(2.36788 0.216701 0)
(1.50333 0.61429 0)
(1.04241 0.741519 0)
(1.00035 0.760272 0)
(1.02072 0.764388 0)
(1.05955 0.770745 0)
(1.09399 0.793394 0)
(1.13405 0.821219 0)
(1.18911 0.846425 0)
(1.2609 0.864571 0)
(3 3.67231e-08 0)
(3 2.26507e-07 0)
(3 7.95246e-07 0)
(2.99999 2.20841e-06 0)
(2.99998 5.87184e-06 0)
(2.99996 1.46192e-05 0)
(2.99989 3.65595e-05 0)
(2.99973 8.96884e-05 0)
(2.99935 0.00022035 0)
(2.99839 0.000542597 0)
(2.99609 0.00132161 0)
(2.99031 0.0032775 0)
(2.97601 0.00803449 0)
(2.93876 0.0203742 0)
(2.83729 0.0532183 0)
(2.54617 0.147943 0)
(1.77467 0.440068 0)
(1.15556 0.743958 0)
(1.04822 0.778897 0)
(1.05716 0.792031 0)
(1.0951 0.791355 0)
(1.13499 0.803259 0)
(1.17399 0.82309 0)
(1.22343 0.842217 0)
(1.28657 0.855848 0)
(3 2.97513e-08 0)
(3 1.7705e-07 0)
(3 6.37143e-07 0)
(2.99999 1.72542e-06 0)
(2.99999 4.70309e-06 0)
(2.99997 1.14137e-05 0)
(2.99992 2.93983e-05 0)
(2.9998 7.00704e-05 0)
(2.99951 0.000177378 0)
(2.99879 0.000424344 0)
(2.99707 0.00106348 0)
(2.99274 0.002581 0)
(2.9821 0.00642847 0)
(2.95469 0.0160354 0)
(2.88112 0.0415645 0)
(2.67222 0.113401 0)
(2.06927 0.332292 0)
(1.32478 0.759448 0)
(1.09193 0.80842 0)
(1.0877 0.819289 0)
(1.12127 0.815304 0)
(1.16751 0.815179 0)
(1.2088 0.827025 0)
(1.25461 0.840836 0)
(1.31073 0.85067 0)
(3 2.34477e-08 0)
(3 1.38473e-07 0)
(3 4.99233e-07 0)
(3 1.35006e-06 0)
(2.99999 3.69085e-06 0)
(2.99998 8.91526e-06 0)
(2.99994 2.3176e-05 0)
(2.99985 5.46076e-05 0)
(2.99965 0.000140422 0)
(2.99913 0.000331127 0)
(2.99789 0.000844745 0)
(2.99478 0.00201614 0)
(2.98721 0.00510468 0)
(2.968 0.0125138 0)
(2.91774 0.0323961 0)
(2.77914 0.0866989 0)
(2.37417 0.249404 0)
(1.58305 0.67535 0)
(1.18261 0.814638 0)
(1.13522 0.83463 0)
(1.15263 0.837507 0)
(1.19694 0.830241 0)
(1.24158 0.83328 0)
(1.28468 0.841629 0)
(1.33457 0.848131 0)
(3 1.67771e-08 0)
(3 1.06718e-07 0)
(3 3.63361e-07 0)
(3 1.03919e-06 0)
(2.99999 2.68902e-06 0)
(2.99998 6.82678e-06 0)
(2.99996 1.68826e-05 0)
(2.9999 4.14975e-05 0)
(2.99974 0.000102198 0)
(2.99938 0.000248904 0)
(2.99847 0.000614915 0)
(2.99629 0.0014921 0)
(2.99085 0.00369983 0)
(2.97742 0.00907895 0)
(2.94268 0.0229215 0)
(2.84895 0.0598558 0)
(2.58128 0.166186 0)
(1.88023 0.487405 0)
(1.30733 0.804382 0)
(1.18567 0.844624 0)
(1.18662 0.858669 0)
(1.2228 0.851357 0)
(1.2697 0.844054 0)
(1.31272 0.845274 0)
(1.35812 0.847999 0)
(3 1.24268e-08 0)
(3 7.97413e-08 0)
(3 2.71868e-07 0)
(3 7.76348e-07 0)
(2.99999 2.00925e-06 0)
(2.99999 5.12574e-06 0)
(2.99997 1.25241e-05 0)
(2.99993 3.1393e-05 0)
(2.99982 7.55381e-05 0)
(2.99956 0.000188907 0)
(2.99892 0.000453883 0)
(2.99735 0.00113373 0)
(2.99353 0.00273807 0)
(2.98399 0.00684416 0)
(2.95984 0.0169092 0)
(2.89566 0.0437079 0)
(2.71555 0.118096 0)
(2.19479 0.34508 0)
(1.49385 0.78874 0)
(1.24224 0.864513 0)
(1.22232 0.877371 0)
(1.24424 0.872876 0)
(1.29003 0.85942 0)
(1.33652 0.85317 0)
(1.3805 0.851207 0)
(3 9.20608e-09 0)
(3 5.88206e-08 0)
(3 1.99754e-07 0)
(3 5.72572e-07 0)
(3 1.47422e-06 0)
(2.99999 3.76271e-06 0)
(2.99998 9.20643e-06 0)
(2.99995 2.29366e-05 0)
(2.99988 5.57227e-05 0)
(2.9997 0.000137367 0)
(2.99926 0.000334828 0)
(2.9982 0.000822241 0)
(2.99561 0.00201478 0)
(2.98921 0.00496088 0)
(2.97334 0.0122807 0)
(2.93232 0.0312128 0)
(2.82135 0.0827632 0)
(2.50099 0.235527 0)
(1.78272 0.64505 0)
(1.35101 0.853441 0)
(1.27477 0.881261 0)
(1.27765 0.888468 0)
(1.31339 0.876499 0)
(1.35933 0.8639 0)
(1.40223 0.85754 0)
(3 6.45506e-09 0)
(3 4.21358e-08 0)
(3 1.41164e-07 0)
(3 4.09002e-07 0)
(3 1.04271e-06 0)
(2.99999 2.67773e-06 0)
(2.99999 6.49081e-06 0)
(2.99996 1.62371e-05 0)
(2.99991 3.89949e-05 0)
(2.99979 9.66721e-05 0)
(2.99949 0.000232752 0)
(2.99875 0.00057342 0)
(2.99698 0.00138807 0)
(2.99253 0.00341438 0)
(2.9817 0.0083455 0)
(2.95393 0.0208525 0)
(2.88011 0.0535673 0)
(2.67261 0.145664 0)
(2.09747 0.424884 0)
(1.49705 0.829778 0)
(1.32386 0.890659 0)
(1.31044 0.902156 0)
(1.3333 0.89442 0)
(1.37777 0.877 0)
(1.42211 0.865884 0)
(3 4.69914e-09 0)
(3 2.96833e-08 0)
(3 1.01267e-07 0)
(3 2.88322e-07 0)
(3 7.47616e-07 0)
(3 1.88037e-06 0)
(2.99999 4.67447e-06 0)
(2.99998 1.13456e-05 0)
(2.99994 2.81714e-05 0)
(2.99986 6.74261e-05 0)
(2.99966 0.000168506 0)
(2.99916 0.000400323 0)
(2.99798 0.00100474 0)
(2.995 0.00239534 0)
(2.98785 0.0060025 0)
(2.96976 0.0146506 0)
(2.92295 0.0375108 0)
(2.79545 0.0993741 0)
(2.42483 0.285567 0)
(1.74816 0.721054 0)
(1.4083 0.881799 0)
(1.35389 0.906083 0)
(1.35995 0.909669 0)
(1.39627 0.89371 0)
(1.44073 0.875544 0)
(3 3.23206e-09 0)
(3 2.05186e-08 0)
(3 6.99433e-08 0)
(3 1.99304e-07 0)
(3 5.14903e-07 0)
(3 1.30216e-06 0)
(2.99999 3.20564e-06 0)
(2.99998 7.85574e-06 0)
(2.99996 1.92474e-05 0)
(2.99991 4.66178e-05 0)
(2.99977 0.000114636 0)
(2.99944 0.000275925 0)
(2.99864 0.00068146 0)
(2.9967 0.00163973 0)
(2.99191 0.00405618 0)
(2.98012 0.00989189 0)
(2.95004 0.0248003 0)
(2.87013 0.0641317 0)
(2.64397 0.176522 0)
(2.05675 0.503638 0)
(1.53878 0.853424 0)
(1.40301 0.910166 0)
(1.39065 0.920833 0)
(1.41227 0.911293 0)
(1.45371 0.888229 0)
(3 2.17546e-09 0)
(3 1.40778e-08 0)
(3 4.76742e-08 0)
(3 1.366e-07 0)
(3 3.50763e-07 0)
(3 8.96086e-07 0)
(3 2.16838e-06 0)
(2.99999 5.43966e-06 0)
(2.99997 1.29493e-05 0)
(2.99994 3.23664e-05 0)
(2.99985 7.69227e-05 0)
(2.99963 0.000191738 0)
(2.99911 0.000456892 0)
(2.99781 0.00113578 0)
(2.99473 0.00272916 0)
(2.987 0.00677382 0)
(2.96787 0.0166084 0)
(2.91792 0.0423889 0)
(2.78147 0.112632 0)
(2.38878 0.324355 0)
(1.76277 0.760354 0)
(1.4747 0.902976 0)
(1.42749 0.924857 0)
(1.43285 0.92527 0)
(1.46515 0.904603 0)
(3 1.50427e-09 0)
(3 9.53058e-09 0)
(3 3.24672e-08 0)
(3 9.25177e-08 0)
(3 2.38495e-07 0)
(3 6.03182e-07 0)
(3 1.48322e-06 0)
(2.99999 3.6301e-06 0)
(2.99998 8.89181e-06 0)
(2.99996 2.14854e-05 0)
(2.9999 5.28365e-05 0)
(2.99976 0.000126672 0)
(2.99943 0.000313634 0)
(2.99859 0.000748629 0)
(2.99661 0.00185853 0)
(2.99167 0.00447272 0)
(2.97964 0.0110971 0)
(2.94889 0.0275853 0)
(2.8675 0.0717022 0)
(2.63701 0.198387 0)
(2.06589 0.550832 0)
(1.5995 0.871941 0)
(1.47533 0.926738 0)
(1.45975 0.933222 0)
(1.47454 0.919002 0)
(3 9.90098e-10 0)
(3 6.38812e-09 0)
(3 2.14164e-08 0)
(3 6.18757e-08 0)
(3 1.57723e-07 0)
(3 4.01496e-07 0)
(3 9.82241e-07 0)
(3 2.40617e-06 0)
(2.99999 5.88984e-06 0)
(2.99997 1.41724e-05 0)
(2.99994 3.50388e-05 0)
(2.99985 8.31978e-05 0)
(2.99963 0.000207598 0)
(2.9991 0.000490063 0)
(2.99783 0.00122667 0)
(2.99469 0.00290665 0)
(2.98709 0.00726511 0)
(2.968 0.0176204 0)
(2.91865 0.0450685 0)
(2.7844 0.119144 0)
(2.40112 0.342072 0)
(1.81482 0.770402 0)
(1.54209 0.913544 0)
(1.49097 0.932219 0)
(1.4878 0.922341 0)
(3 6.42427e-10 0)
(3 4.17232e-09 0)
(3 1.40196e-08 0)
(3 4.03879e-08 0)
(3 1.03098e-07 0)
(3 2.63077e-07 0)
(3 6.36111e-07 0)
(3 1.58558e-06 0)
(2.99999 3.79046e-06 0)
(2.99998 9.37489e-06 0)
(2.99996 2.24093e-05 0)
(2.9999 5.51631e-05 0)
(2.99977 0.000132419 0)
(2.99944 0.000323991 0)
(2.99862 0.000783277 0)
(2.9967 0.00190806 0)
(2.99189 0.00465256 0)
(2.98024 0.0114046 0)
(2.95052 0.0284037 0)
(2.87234 0.0734407 0)
(2.65138 0.202694 0)
(2.11205 0.553189 0)
(1.66175 0.876928 0)
(1.52781 0.92965 0)
(1.50035 0.916896 0)
(3 4.24605e-10 0)
(3 2.62721e-09 0)
(3 9.15911e-09 0)
(3 2.54713e-08 0)
(3 6.70602e-08 0)
(3 1.66319e-07 0)
(3 4.12238e-07 0)
(3 1.00184e-06 0)
(3 2.43903e-06 0)
(2.99999 5.93819e-06 0)
(2.99998 1.42973e-05 0)
(2.99994 3.50068e-05 0)
(2.99985 8.37393e-05 0)
(2.99964 0.000206008 0)
(2.99915 0.000491121 0)
(2.99792 0.0012111 0)
(2.995 0.00289749 0)
(2.98774 0.0071586 0)
(2.96992 0.0174381 0)
(2.92387 0.0442142 0)
(2.7997 0.116715 0)
(2.44807 0.332578 0)
(1.87872 0.750394 0)
(1.58277 0.902092 0)
(1.50493 0.902727 0)
(3 2.59839e-10 0)
(3 1.69043e-09 0)
(3 5.63897e-09 0)
(3 1.63643e-08 0)
(3 4.13114e-08 0)
(3 1.06021e-07 0)
(3 2.55229e-07 0)
(3 6.3277e-07 0)
(3 1.51984e-06 0)
(2.99999 3.70572e-06 0)
(2.99998 8.96728e-06 0)
(2.99996 2.15891e-05 0)
(2.99991 5.28542e-05 0)
(2.99978 0.000125733 0)
(2.99946 0.000310553 0)
(2.9987 0.00073514 0)
(2.99684 0.0018231 0)
(2.99234 0.00433297 0)
(2.98125 0.0107651 0)
(2.9533 0.0263564 0)
(2.87989 0.0681087 0)
(2.67455 0.185875 0)
(2.16357 0.508564 0)
(1.68362 0.849132 0)
(1.49223 0.878237 0)
(3 1.58904e-10 0)
(3 1.00907e-09 0)
(3 3.46781e-09 0)
(3 9.74548e-09 0)
(3 2.53071e-08 0)
(3 6.34638e-08 0)
(3 1.54206e-07 0)
(3 3.80749e-07 0)
(3 9.04282e-07 0)
(3 2.23879e-06 0)
(2.99999 5.26479e-06 0)
(2.99998 1.306e-05 0)
(2.99994 3.06518e-05 0)
(2.99986 7.59757e-05 0)
(2.99966 0.000178432 0)
(2.99918 0.000441449 0)
(2.998 0.0010423 0)
(2.99519 0.00256676 0)
(2.98823 0.00614181 0)
(2.97119 0.015176 0)
(2.92746 0.0378822 0)
(2.81075 0.100021 0)
(2.48481 0.284584 0)
(1.87884 0.665308 0)
(1.45845 0.788084 0)
(3 9.53865e-11 0)
(3 5.70539e-10 0)
(3 2.0245e-09 0)
(3 5.5021e-09 0)
(3 1.47039e-08 0)
(3 3.53807e-08 0)
(3 8.96399e-08 0)
(3 2.0865e-07 0)
(3 5.2228e-07 0)
(3 1.20853e-06 0)
(2.99999 3.00214e-06 0)
(2.99998 6.96346e-06 0)
(2.99996 1.71317e-05 0)
(2.9999 4.01162e-05 0)
(2.99976 9.73005e-05 0)
(2.99942 0.000230415 0)
(2.99861 0.000551483 0)
(2.99658 0.00132247 0)
(2.99174 0.00313703 0)
(2.97959 0.00760983 0)
(2.94894 0.0184321 0)
(2.8675 0.0466794 0)
(2.64185 0.125514 0)
(2.07005 0.348197 0)
(1.37751 0.614081 0)
(3 4.84991e-11 0)
(3 3.22987e-10 0)
(3 1.05016e-09 0)
(3 3.10414e-09 0)
(3 7.62275e-09 0)
(3 1.96348e-08 0)
(3 4.6221e-08 0)
(3 1.13679e-07 0)
(3 2.68582e-07 0)
(3 6.40931e-07 0)
(2.99999 1.54333e-06 0)
(2.99999 3.57784e-06 0)
(2.99997 8.81409e-06 0)
(2.99993 1.98962e-05 0)
(2.99982 5.00562e-05 0)
(2.99956 0.000110556 0)
(2.99891 0.000281768 0)
(2.99734 0.000617657 0)
(2.99346 0.0015678 0)
(2.98389 0.00351179 0)
(2.95954 0.00875688 0)
(2.89513 0.0210899 0)
(2.71606 0.0548248 0)
(2.21985 0.15192 0)
(1.28362 0.361642 0)
(3 2.52335e-11 0)
(3 1.62429e-10 0)
(3 5.48222e-10 0)
(3 1.55208e-09 0)
(3 3.93857e-09 0)
(3 9.87019e-09 0)
(3 2.32731e-08 0)
(3 5.71487e-08 0)
(3 1.31276e-07 0)
(3 3.19227e-07 0)
(3 7.33649e-07 0)
(2.99999 1.76078e-06 0)
(2.99997 4.06958e-06 0)
(2.99994 9.59802e-06 0)
(2.99984 2.24989e-05 0)
(2.99961 5.18514e-05 0)
(2.99904 0.000123221 0)
(2.99765 0.000278266 0)
(2.99415 0.000667635 0)
(2.98556 0.00149903 0)
(2.96345 0.00359124 0)
(2.90462 0.00837634 0)
(2.73834 0.0205848 0)
(2.25532 0.0513461 0)
(1.17678 0.126158 0)
(3 1.31078e-11 0)
(3 8.24442e-11 0)
(3 2.82977e-10 0)
(3 7.89415e-10 0)
(3 2.01707e-09 0)
(3 5.02856e-09 0)
(3 1.17903e-08 0)
(3 2.88829e-08 0)
(3 6.57528e-08 0)
(3 1.60476e-07 0)
(3 3.59785e-07 0)
(2.99999 8.88809e-07 0)
(2.99998 1.96203e-06 0)
(2.99994 4.80933e-06 0)
(2.99985 1.07702e-05 0)
(2.99964 2.58364e-05 0)
(2.9991 5.87152e-05 0)
(2.99779 0.000137376 0)
(2.99448 0.000319501 0)
(2.98631 0.000735563 0)
(2.96523 0.00173084 0)
(2.90888 0.00409646 0)
(2.74828 0.0100592 0)
(2.27074 0.025111 0)
(1.13693 0.0595886 0)
(3 7.39955e-12 0)
(3 4.20579e-11 0)
(3 1.551e-10 0)
(3 3.95971e-10 0)
(3 1.11097e-09 0)
(3 2.44755e-09 0)
(3 6.56499e-09 0)
(3 1.39587e-08 0)
(3 3.64517e-08 0)
(3 7.89281e-08 0)
(3 1.95802e-07 0)
(2.99999 4.43269e-07 0)
(2.99998 1.04219e-06 0)
(2.99994 2.4983e-06 0)
(2.99986 5.52404e-06 0)
(2.99965 1.41358e-05 0)
(2.99913 2.95172e-05 0)
(2.99787 8.03732e-05 0)
(2.99465 0.000164557 0)
(2.98673 0.000446521 0)
(2.96623 0.000978217 0)
(2.91139 0.00252556 0)
(2.75479 0.00634799 0)
(2.28578 0.0170485 0)
(1.14656 0.0457955 0)
(3 3.62672e-12 0)
(3 2.61767e-11 0)
(3 8.39258e-11 0)
(3 2.46362e-10 0)
(3 5.99787e-10 0)
(3 1.54921e-09 0)
(3 3.39021e-09 0)
(3 9.15175e-09 0)
(3 1.83418e-08 0)
(3 5.29753e-08 0)
(3 9.85507e-08 0)
(2.99999 2.99496e-07 0)
(2.99998 5.27476e-07 0)
(2.99994 1.72048e-06 0)
(2.99986 2.92154e-06 0)
(2.99966 9.62793e-06 0)
(2.99915 1.70742e-05 0)
(2.99791 5.46192e-05 0)
(2.99478 0.000105551 0)
(2.98699 0.000307764 0)
(2.96695 0.00067691 0)
(2.91332 0.00183772 0)
(2.76 0.00480756 0)
(2.30113 0.0136873 0)
(1.16939 0.0403538 0)
(3 2.45114e-12 0)
(3 1.91597e-11 0)
(3 5.63099e-11 0)
(3 1.84121e-10 0)
(3 3.95239e-10 0)
(3 1.17579e-09 0)
(3 2.26849e-09 0)
(3 6.59497e-09 0)
(3 1.29969e-08 0)
(3 3.50849e-08 0)
(3 7.56195e-08 0)
(2.99999 1.87387e-07 0)
(2.99998 4.45642e-07 0)
(2.99995 9.99334e-07 0)
(2.99986 2.71301e-06 0)
(2.99967 5.43374e-06 0)
(2.99917 1.63402e-05 0)
(2.99794 3.0617e-05 0)
(2.99486 9.66203e-05 0)
(2.98721 0.000191553 0)
(2.96751 0.000560991 0)
(2.9148 0.00136065 0)
(2.76472 0.00388096 0)
(2.31525 0.0113856 0)
(1.19514 0.0354835 0)
(3 3.85904e-12 0)
(3 8.35548e-12 0)
(3 6.7187e-11 0)
(3 7.939e-11 0)
(3 4.72758e-10 0)
(3 4.77531e-10 0)
(3 2.86755e-09 0)
(3 2.47761e-09 0)
(3 1.62249e-08 0)
(3 1.32994e-08 0)
(3 8.76382e-08 0)
(2.99999 8.02004e-08 0)
(2.99998 4.52161e-07 0)
(2.99995 5.38005e-07 0)
(2.99987 2.22284e-06 0)
(2.99967 3.89443e-06 0)
(2.99917 1.0367e-05 0)
(2.99797 2.77842e-05 0)
(2.99492 5.26422e-05 0)
(2.98738 0.000181093 0)
(2.96793 0.000374056 0)
(2.91609 0.00112285 0)
(2.7685 0.00303792 0)
(2.32831 0.00942741 0)
(1.21978 0.0301487 0)
(3 1.8324e-12 0)
(3 9.12587e-12 0)
(3 4.43677e-11 0)
(3 8.43686e-11 0)
(3 3.09157e-10 0)
(3 5.55062e-10 0)
(3 1.52772e-09 0)
(3 3.67006e-09 0)
(3 6.28291e-09 0)
(3 2.42109e-08 0)
(3 2.38326e-08 0)
(2.99999 1.51069e-07 0)
(2.99998 6.83333e-08 0)
(2.99995 9.57933e-07 0)
(2.99987 6.2804e-08 0)
(2.99967 5.89523e-06 0)
(2.99919 -2.37826e-07 0)
(2.99798 3.45375e-05 0)
(2.99499 7.83114e-06 0)
(2.98748 0.000181244 0)
(2.96828 0.000205241 0)
(2.9171 0.000940595 0)
(2.77165 0.00231247 0)
(2.33936 0.00758268 0)
(1.24197 0.0246632 0)
(3 8.74553e-13 0)
(3 9.85891e-12 0)
(3 2.76278e-11 0)
(3 8.8105e-11 0)
(3 1.93162e-10 0)
(3 5.44695e-10 0)
(3 8.8306e-10 0)
(3 3.19855e-09 0)
(3 3.01814e-09 0)
(3 1.85955e-08 0)
(3 8.69696e-09 0)
(2.99999 1.04871e-07 0)
(2.99998 1.23123e-08 0)
(2.99995 6.26655e-07 0)
(2.99987 -9.00747e-08 0)
(2.99967 3.80224e-06 0)
(2.9992 5.47347e-08 0)
(2.99798 2.13255e-05 0)
(2.99504 1.08915e-05 0)
(2.98754 0.000114215 0)
(2.96857 0.000169552 0)
(2.91787 0.000677225 0)
(2.77426 0.00181319 0)
(2.34829 0.00594539 0)
(1.2608 0.0194276 0)
(3 3.55376e-13 0)
(3 7.68921e-12 0)
(3 1.28094e-11 0)
(3 7.19998e-11 0)
(3 8.24057e-11 0)
(3 4.01255e-10 0)
(3 4.27026e-10 0)
(3 1.79976e-09 0)
(3 1.52194e-09 0)
(3 8.8114e-09 0)
(3 2.02815e-09 0)
(2.99999 4.44298e-08 0)
(2.99998 1.28843e-08 0)
(2.99995 1.9601e-07 0)
(2.99987 2.06712e-07 0)
(2.99967 1.0011e-06 0)
(2.9992 2.47616e-06 0)
(2.99799 6.2448e-06 0)
(2.99506 2.22323e-05 0)
(2.98761 5.02822e-05 0)
(2.96877 0.000165888 0)
(2.91848 0.000451155 0)
(2.77632 0.00145336 0)
(2.35538 0.004592 0)
(1.27561 0.0147664 0)
(3 4.88075e-13 0)
(3 3.45556e-12 0)
(3 1.04547e-11 0)
(3 3.14145e-11 0)
(3 5.58251e-11 0)
(3 1.60192e-10 0)
(3 2.06565e-10 0)
(3 6.8686e-10 0)
(3 6.57116e-10 0)
(3 2.28545e-09 0)
(3 5.36701e-11 0)
(2.99999 9.11141e-09 0)
(2.99998 -9.18864e-09 0)
(2.99995 4.38374e-08 0)
(2.99987 1.0403e-08 0)
(2.99967 2.68108e-07 0)
(2.9992 7.63696e-07 0)
(2.998 3.36471e-06 0)
(2.99508 1.11043e-05 0)
(2.98766 3.59388e-05 0)
(2.96891 0.000117509 0)
(2.91896 0.000344535 0)
(2.77798 0.00115412 0)
(2.36068 0.00359613 0)
(1.28679 0.010927 0)
(3 1.49937e-12 0)
(3 -2.92472e-13 0)
(3 1.88138e-11 0)
(3 -5.75798e-12 0)
(3 1.12725e-10 0)
(3 -9.49179e-11 0)
(3 7.05728e-10 0)
(3 -1.06073e-09 0)
(3 4.94219e-09 0)
(3 -9.31947e-09 0)
(3 3.11616e-08 0)
(2.99999 -6.31686e-08 0)
(2.99998 1.77011e-07 0)
(2.99995 -3.61529e-07 0)
(2.99987 1.00468e-06 0)
(2.99967 -1.76722e-06 0)
(2.9992 4.96261e-06 0)
(2.998 -5.30607e-06 0)
(2.99509 2.38922e-05 0)
(2.9877 6.09238e-06 0)
(2.96903 0.000123345 0)
(2.91938 0.000227043 0)
(2.77925 0.00092117 0)
(2.36477 0.00268607 0)
(1.29525 0.00761142 0)
(3 -8.2082e-13 0)
(3 3.72393e-12 0)
(3 -1.09549e-11 0)
(3 3.67686e-11 0)
(3 -7.44487e-11 0)
(3 2.22718e-10 0)
(3 -4.71585e-10 0)
(3 1.12442e-09 0)
(3 -2.93821e-09 0)
(3 4.81076e-09 0)
(3 -1.65258e-08 0)
(2.99999 1.63624e-08 0)
(2.99998 -6.1941e-08 0)
(2.99995 -6.77006e-09 0)
(2.99987 -5.17628e-08 0)
(2.99968 -5.7066e-07 0)
(2.9992 1.63459e-06 0)
(2.99801 -3.95541e-06 0)
(2.99508 1.59154e-05 0)
(2.98775 -5.08023e-06 0)
(2.96909 8.17679e-05 0)
(2.91969 0.000126496 0)
(2.7801 0.00057921 0)
(2.36749 0.00160805 0)
(1.30066 0.00443453 0)
(3 -1.50036e-12 0)
(3 4.43672e-12 0)
(3 -1.68768e-11 0)
(3 4.40121e-11 0)
(3 -1.08142e-10 0)
(3 3.13473e-10 0)
(3 -8.00665e-10 0)
(3 2.16574e-09 0)
(3 -5.67709e-09 0)
(3 1.27643e-08 0)
(3 -3.45409e-08 0)
(2.99999 6.82951e-08 0)
(2.99998 -1.8564e-07 0)
(2.99995 3.30478e-07 0)
(2.99987 -8.72052e-07 0)
(2.99967 1.23755e-06 0)
(2.9992 -2.83308e-06 0)
(2.99801 3.41315e-06 0)
(2.99509 -5.08413e-06 0)
(2.98775 9.70036e-06 0)
(2.96915 4.89418e-06 0)
(2.91978 6.32761e-05 0)
(2.78067 0.000174432 0)
(2.36853 0.000529886 0)
(1.30342 0.00144932 0)
(1.13177 1.00415 0)
(1.04368 0.715881 0)
(0.176578 0.455313 0)
(-0.430619 0.0359801 0)
(-0.5255 -0.0123455 0)
(-0.689054 -0.0238971 0)
(-0.747178 -0.0150157 0)
(-0.792482 0.00807438 0)
(-0.853785 0.0197999 0)
(-0.919606 0.0190682 0)
(-0.976762 0.0127865 0)
(-1.02609 0.00732448 0)
(-1.07333 0.00431298 0)
(-1.12111 0.00163407 0)
(-1.16948 0.000681062 0)
(-1.20655 0.00341058 0)
(-1.22412 0.00362824 0)
(-1.22947 0.00181331 0)
(-1.22539 -0.000875338 0)
(-1.20536 -0.00437809 0)
(-1.16624 -0.00810659 0)
(-1.11106 -0.0118333 0)
(-1.04494 -0.0150464 0)
(-0.973331 -0.0172601 0)
(-0.900286 -0.018517 0)
(-0.828001 -0.0191519 0)
(-0.757711 -0.0193815 0)
(-0.690314 -0.0193506 0)
(-0.625847 -0.0191276 0)
(-0.564015 -0.0189389 0)
(-0.504272 -0.0189913 0)
(-0.44626 -0.0192337 0)
(-0.38936 -0.0199621 0)
(-0.332448 -0.0215912 0)
(-0.277065 -0.0227423 0)
(-0.223261 -0.0233247 0)
(-0.171144 -0.023616 0)
(-0.120264 -0.0240538 0)
(-0.0704536 -0.0246791 0)
(-0.0236096 -0.0265756 0)
(0.0288061 -0.0270342 0)
(0.0777901 -0.0251251 0)
(0.121986 -0.0233252 0)
(0.165301 -0.0222599 0)
(0.206892 -0.0213497 0)
(0.245514 -0.0202972 0)
(0.2825 -0.0195685 0)
(0.320433 -0.0193995 0)
(0.358518 -0.0192287 0)
(0.395101 -0.0185361 0)
(0.430342 -0.0178263 0)
(0.464436 -0.0171958 0)
(0.49757 -0.0166252 0)
(0.529845 -0.0160556 0)
(0.56134 -0.0155026 0)
(0.592062 -0.014957 0)
(0.622061 -0.0144233 0)
(0.651374 -0.013893 0)
(0.680034 -0.0133812 0)
(0.708074 -0.0128619 0)
(0.735542 -0.0123636 0)
(0.762447 -0.0118605 0)
(0.788843 -0.0113748 0)
(0.814743 -0.0108912 0)
(0.840185 -0.0104237 0)
(0.865184 -0.00996318 0)
(0.889775 -0.00951554 0)
(0.913974 -0.0090804 0)
(0.937802 -0.00865551 0)
(0.961282 -0.00824386 0)
(0.984425 -0.00784383 0)
(1.00725 -0.00745456 0)
(1.02976 -0.0070773 0)
(1.05198 -0.00670946 0)
(1.07389 -0.00635172 0)
(1.0955 -0.00600322 0)
(1.11681 -0.00566314 0)
(1.13782 -0.00533236 0)
(1.1585 -0.00500997 0)
(1.17887 -0.00469744 0)
(1.19891 -0.00439342 0)
(1.21863 -0.00409969 0)
(1.23802 -0.00381409 0)
(1.25708 -0.00353855 0)
(1.27582 -0.00326942 0)
(1.29424 -0.00301065 0)
(1.31234 -0.00275353 0)
(1.33011 -0.00250273 0)
(1.34756 -0.00225374 0)
(1.36466 -0.00200566 0)
(1.38139 -0.00174487 0)
(1.39772 -0.00148184 0)
(1.4136 -0.00121504 0)
(1.42894 -0.000958813 0)
(1.44364 -0.000686325 0)
(1.45748 -0.000378972 0)
(1.47014 -1.30711e-05 0)
(1.48108 0.00044187 0)