/*--------------------------------*- C++ -*----------------------------------*\
  =========                 |
  \\      /  F ield         | OpenFOAM: The Open Source CFD Toolbox
   \\    /   O peration     | Website:  https://openfoam.org
    \\  /    A nd           | Version:  13
     \\/     M anipulation  |
\*---------------------------------------------------------------------------*/
FoamFile
{
    format      ascii;
    class       volScalarField;
    location    "67";
    object      p;
}
// * * * * * * * * * * * * * * * * * * * * * * * * * * * * * * * * * * * * * //

dimensions      [0 2 -2 0 0 0 0];

internalField   nonuniform List<scalar> 
918
(
0.556549
1.182
0.00085675
0.555999
-0.0094606
1.14903
-0.511037
0.661338
0.53675
-0.109422
-0.0494132
0.53895
1.00954
0.77543
-1.12472
-0.0110012
0.65115
-0.382099
0.535864
-0.0585372
0.689792
0.543288
0.546313
0.536891
0.597605
0.750742
0.890428
0.0234798
0.0116431
0.00510311
-0.0144642
-0.0361233
-0.030871
1.03269
1.08376
1.10645
0.504495
0.332643
-0.376475
-0.449277
-0.436929
-0.545609
0.659021
0.657889
-0.211942
0.66459
0.666689
0.52377
0.536119
0.537031
0.538049
0.537035
0.538415
0.403834
-0.109529
-0.140864
-0.0907264
-0.0840387
0.0525658
-0.0513054
-0.0534991
-0.0475517
-0.0476018
0.45361
0.53315
0.529545
0.543174
0.553113
1.12155
1.09348
1.11963
1.03322
1.04977
0.98754
0.960206
0.796224
0.817872
0.760256
0.748727
-1.55608
-2.50711
-0.53516
-0.284579
-0.0153717
-0.00888845
-0.00310697
0.648107
0.649442
0.650611
0.652871
1.07932
-0.379627
-0.479984
0.536006
0.534817
0.543135
0.543836
0.539856
0.538946
-0.0500455
-0.0470046
-0.0490952
-0.0549439
-0.0530837
0.677718
0.678364
0.537419
0.534422
0.560698
0.580486
0.570682
0.277182
0.608314
0.624187
0.582214
0.745276
0.737511
0.74713
0.863933
0.827398
0.927721
0.950854
0.0173646
-0.00114047
-0.0157323
-0.0193047
-0.0180401
0.500322
0.492857
0.520325
0.507934
0.510444
0.249366
0.116
0.417606
0.442441
-0.295467
-0.36183
-0.429729
-0.460395
-0.56889
0.611308
0.656421
0.654907
-0.222254
-0.150382
-0.28358
-0.0772945
-0.140204
0.514026
0.521046
0.516041
0.531605
0.526069
0.528033
0.540391
0.537461
0.539021
0.465954
0.589502
0.330092
0.294718
-0.243377
-0.155885
-0.243121
-0.073215
-0.0700765
0.0666537
0.0922719
0.039392
0.0276004
-0.0647099
-0.0572762
-0.0606961
-0.0457326
-0.0453864
0.446355
0.435141
0.466308
0.473876
0.519568
0.521116
0.525571
0.523319
0.91105
0.93328
0.940913
0.914808
-3.49624
-6.27735
0.0399825
0.176325
-0.00647248
-0.0109011
0.00454837
-0.0104583
-0.00326873
-0.0044382
-0.00815509
-0.00916702
-0.00387134
-0.00251864
0.642585
0.643771
1.00149
1.00828
0.977182
0.930118
0.524227
0.526297
0.531793
0.527677
-0.0450321
-0.0454644
-0.0445532
0.670036
0.675415
0.672943
0.23868
0.148932
0.328257
0.3574
0.636364
0.624765
0.634526
0.641749
0.67797
0.958208
0.976433
0.974715
0.983157
1.02727
1.04374
1.00897
0.479721
0.489728
0.484661
0.52342
0.521197
0.522094
0.518191
0.519285
0.517378
-0.0344354
-0.414292
0.489707
0.506617
0.492003
0.494425
0.691475
0.770125
0.652575
0.654204
0.653689
-0.00813942
-0.0666331
0.24996
0.215823
0.385862
0.422301
0.401258
0.882124
0.842767
0.892804
0.866103
0.827618
0.853064
-0.365814
-1.86507
-0.984335
0.525277
0.339795
0.426587
0.00945028
-0.00737092
-0.00280964
1.00093
1.07325
0.645231
0.820034
0.822754
0.715729
0.745691
0.800509
0.727073
0.761103
0.795363
0.77662
0.567258
0.502777
0.518712
0.839283
0.895062
0.118812
0.0572614
0.0133855
0.1112
0.168552
0.142629
1.03327
0.948867
1.01911
0.534183
0.534905
-0.00458285
-0.0188677
0.539153
0.539209
-0.016618
-0.00387709
0.410186
-0.832282
0.0982545
0.527737
0.517625
0.534767
-0.0939088
0.355289
-0.0493529
0.0480879
-0.00811525
0.529639
0.464757
0.423816
-0.000391281
-0.0198864
-0.0501861
-0.213773
0.531853
0.530157
0.534234
0.535175
0.535856
-0.0187363
-0.0138039
-0.0101622
-0.0469896
-0.0408148
-0.0524146
0.498654
0.518011
-0.170977
0.534381
0.536517
0.536335
0.529599
0.535229
0.533482
-0.0112452
-0.0171168
-0.0184849
0.219011
0.350957
0.649497
0.736271
0.621237
0.397453
0.162734
0.553013
0.616245
0.522056
0.67555
0.652305
0.661586
0.163767
0.0135109
0.17254
0.114196
0.525597
0.524316
0.515879
0.512837
0.529634
0.527747
0.532307
0.529329
0.53228
0.53366
-0.0499692
-0.0778707
-0.0865791
-0.154043
0.309915
0.571084
0.254197
0.28398
0.141681
-0.043963
-0.0448777
-0.0478079
-0.0565442
0.000493813
-0.0235952
0.0430019
0.0431928
0.0150363
-0.0105238
-0.00800064
-0.018811
-0.0134883
0.523132
0.523088
0.526887
0.535733
0.474416
0.478205
0.443028
0.463786
0.44904
0.387728
0.423045
0.39826
-0.0082827
0.00148798
-0.00542032
-0.0175773
-0.0134563
-0.0333879
-0.0299546
-0.0255927
-0.0215513
-0.0282598
-0.0444787
-0.0466271
-0.171811
-0.287737
0.987759
0.909089
0.136278
0.520997
0.527456
0.524215
0.529145
0.532273
0.533072
0.53078
0.527327
0.518258
0.519684
0.516654
0.517657
-0.102475
-0.243787
-0.0720755
-0.146443
0.144373
0.627593
0.36286
0.298319
0.293613
0.522299
0.91659
0.699741
0.670431
0.672529
-0.343852
0.0450565
-0.280337
0.334829
0.161918
0.648735
0.698201
0.720544
0.668021
0.62099
-0.101841
0.555108
-0.0737885
-0.0216581
0.179768
0.0559863
0.662371
0.639889
0.646639
0.654706
0.66933
0.643755
0.627376
0.62673
0.649211
0.652227
0.483369
0.24973
0.200477
0.162014
0.641858
0.517464
0.568621
0.489903
0.520864
0.523416
0.522063
0.503495
0.511093
0.506606
0.513206
0.516807
0.525352
0.525826
0.52109
0.523221
-0.0574079
-0.0637653
-0.0278796
-0.136124
-0.128891
-0.191005
-0.061439
0.0748028
0.0356434
0.236724
0.341035
0.0517203
-0.0578761
-0.0308018
0.0116756
0.179507
0.207647
0.0747763
0.16201
0.153456
0.134955
0.237318
0.240674
-0.0281953
-0.0307819
-0.0349482
-0.0366677
0.0188317
0.089988
0.0995269
-0.00631025
-0.012235
-0.042661
-0.0430936
-0.0211598
-0.0274686
-0.0223632
0.00619565
-0.052826
-0.0202616
-0.00633558
-0.00352798
-0.00511472
-0.0105631
0.517673
0.519559
0.519901
0.526583
0.539949
0.55479
0.519986
0.496652
0.487425
0.490448
0.463299
0.473621
0.469367
0.483031
0.504042
0.513172
0.511284
0.514155
0.49617
0.497984
0.484542
0.488211
0.463226
0.443916
0.431993
-0.0427037
-0.004624
-0.0121677
-0.0385045
-0.00954345
-0.0212836
-0.0102503
0.00817614
-0.00804663
-0.00910951
-0.0189637
-0.0259296
-0.0255446
-0.0737319
0.0129053
-0.184901
-0.220633
-0.293523
0.889929
1.01407
0.809504
0.582569
0.602742
0.845846
0.930499
0.542862
0.735077
0.758305
0.586068
0.853597
0.525848
0.525444
0.523043
0.522523
0.523744
-0.00786675
0.0982728
0.0968339
0.159922
0.276102
0.3878
0.318347
0.193415
0.323577
0.326066
0.620252
0.632513
0.587861
0.612046
0.612032
0.424501
0.500118
0.551808
0.512524
0.564599
0.586044
0.540056
0.572965
0.522789
0.478115
0.47418
0.424011
0.443667
0.419361
0.402462
0.514855
0.492534
0.503045
0.493677
0.51408
0.542309
0.538716
0.560843
0.575744
0.497267
0.452191
0.46158
0.491787
0.453119
0.468635
0.484789
0.231662
0.133565
0.21651
-0.0688465
0.00239464
-0.0102257
-0.0588789
-0.00781845
0.276453
-0.414771
-0.391234
-1.01855
0.502724
0.953539
0.595546
0.570445
0.669395
0.653558
0.659639
0.676494
0.676419
0.630302
0.639868
0.644713
0.59865
0.619426
0.638239
0.634529
0.52388
0.382294
0.381246
0.329426
0.199599
0.239312
0.435792
0.35982
0.284845
0.285018
0.456071
0.342749
0.41258
0.446298
0.377656
0.33227
0.534771
0.600896
0.594575
0.56765
0.479194
0.491526
0.515915
0.549543
0.57394
0.605965
0.512604
0.518547
0.519778
0.517247
0.514526
0.517619
0.517901
0.520459
0.521058
0.52407
0.523131
-0.0512315
-0.0371826
-0.0509081
-0.0619537
-0.0194685
-0.0215979
0.0218873
0.0090452
-0.0147608
-0.00977619
-0.0326532
-0.0370431
-0.0336142
-0.0252494
0.101735
0.114105
0.09791
0.0587047
0.250654
0.380194
0.454581
0.329929
0.223735
0.247113
0.266323
-0.0114465
0.0133977
0.000608349
0.0402033
0.032535
-0.0375176
-0.0409778
-0.0374499
-0.0301674
-0.0213346
-0.0370262
-0.0420968
-0.0330473
-0.0376692
-0.0402709
-0.0437015
0.498916
0.492355
0.493997
0.487834
0.486562
0.500993
0.505308
0.507252
0.512802
0.515247
0.505045
0.510684
0.514711
-0.0114248
-0.0344554
-0.0380184
-0.0284348
-0.0308189
-0.0284099
-0.029855
0.122648
0.0535576
0.0574807
0.0100592
-0.12204
-0.0640454
0.490752
0.489497
0.47895
0.720209
0.569459
0.490126
0.587152
0.692873
0.275234
0.472097
0.307105
0.887692
0.784164
0.930516
0.541594
0.244717
0.408236
0.451277
0.264595
0.340129
0.324117
0.21313
0.243909
0.281827
0.380802
0.264798
0.241523
-0.001851
0.188702
0.300856
0.282691
0.407352
0.46802
0.265606
0.185347
0.140427
0.605241
0.624697
0.637714
0.610632
0.631805
0.580111
0.572187
0.587629
0.595548
0.590161
-0.746875
-0.453342
-1.39993
-0.722008
-0.266914
0.533192
0.504736
0.768569
0.645308
0.681901
0.666811
0.62552
0.595265
0.619204
0.642216
0.340607
0.451351
0.426536
0.432181
0.334692
0.265063
0.562913
0.559829
0.59308
0.616335
0.588308
0.618056
0.510431
0.510158
0.509607
0.505839
0.504102
0.506475
0.0587235
0.0264151
0.0657923
0.0482892
0.0252707
0.0130809
-0.00948178
-0.0193897
-0.0265769
-0.0262998
-0.0121622
-0.0081195
0.170769
0.108355
0.0289043
0.0578552
-0.00284899
-0.0712402
-0.0902351
0.0149427
0.111002
0.101209
0.404579
0.654335
0.474336
0.641818
0.484267
0.540129
0.467473
0.458867
0.483829
0.37884
0.459244
0.248088
-0.259909
-0.168942
0.793335
0.804382
0.580245
0.404728
0.172775
0.350997
0.540983
0.471305
0.506799
0.575729
0.563027
0.0277775
0.0857969
0.371635
0.598449
0.239605
0.230685
0.224161
0.408096
0.326532
)
;

boundaryField
{
    wall-4
    {
        type            zeroGradient;
    }
    velocity-inlet-5
    {
        type            zeroGradient;
    }
    velocity-inlet-6
    {
        type            zeroGradient;
    }
    pressure-outlet-7
    {
        type            fixedValue;
        value           uniform 0;
    }
    wall-8
    {
        type            zeroGradient;
    }
    frontAndBackPlanes
    {
        type            empty;
    }
}


// ************************************************************************* //
