/*--------------------------------*- C++ -*----------------------------------*\
  =========                 |
  \\      /  F ield         | OpenFOAM: The Open Source CFD Toolbox
   \\    /   O peration     | Website:  https://openfoam.org
    \\  /    A nd           | Version:  13
     \\/     M anipulation  |
\*---------------------------------------------------------------------------*/
FoamFile
{
    format      ascii;
    class       surfaceScalarField;
    location    "67";
    object      phi;
}
// * * * * * * * * * * * * * * * * * * * * * * * * * * * * * * * * * * * * * //

dimensions      [0 3 -1 0 0 0 0];

internalField   nonuniform List<scalar> 
1300
(
3.75095
5.62643
-3.3274
3.75095
-7.72824
5.62643
-4.38775
4.38775
-0.393827
0.393827
1.87639
1.87457
-2.68268
2.68268
-2.12512
2.12512
-2.52357
2.52357
-5.24647
5.24647
-5.06929
5.06929
4.65507
-4.65507
-6.30857
6.30857
-0.943383
0.943383
-3.68256
3.68256
3.16962
-3.16962
-2.08503
2.08503
0.0206446
-0.0206446
-0.553475
4.30443
3.19748
3.19748
-2.01387
2.01387
-4.86832
4.86832
6.21805
-6.21805
5.31022
-5.31022
-1.98282
-2.44749
1.7878
-11.5123
-5.94043
-5.94043
-8.44037
8.44037
-2.81394
2.81249
2.94618
-2.94618
-1.77367
1.77367
-4.34787
-0.0398827
-4.34787
4.35909
0.0286644
4.35909
-0.473843
0.0800167
-0.473843
3.98903
-3.98903
0.30931
0.0845164
0.30931
3.06534
-3.06534
-1.87712
3.7535
1.87384
-1.8719
6.17632
-1.87906
3.75362
-6.01579
6.01579
-2.92767
0.244991
-2.92767
2.47304
0.20964
2.47304
-6.85025
6.85025
-2.15246
0.0273457
-2.15246
2.0937
0.0314128
2.0937
2.88087
-2.88087
-2.6337
0.110133
-2.6337
2.39424
0.129327
2.39424
0.353513
5.27292
-5.97994
8.79243
-5.27292
0.0264432
5.20833
0.0381397
5.20833
-5.10606
0.0367725
-5.10606
5.01219
0.0571051
5.01219
4.74068
-0.085611
4.74068
-4.77354
0.118466
-4.77354
-3.38581
-4.05358
-6.46072
0.152151
-6.46072
-1.03533
0.0919456
-1.03533
0.827611
0.115772
0.827611
-3.68476
3.68476
-4.10324
0.420685
-4.10324
3.12398
0.0456323
3.12398
1.86849
1.88246
5.61944
-5.61944
2.44983
-2.05659
-0.0284368
-2.05659
-2.14567
-3.16456
2.14567
-0.0606386
-0.20969
0.230335
-0.20969
3.15943
0.0380469
3.15943
2.23548
0.158759
-2.23548
0.221616
3.27439
-3.27439
1.34041
0.673458
1.34041
-5.56366
5.56366
4.95618
0.056005
-4.95618
0.0878601
6.15686
0.0611952
6.15686
-6.19955
-0.0185052
-6.19955
2.53117
-4.97866
-2.6163
6.12511
0.183457
-6.12511
0.184675
2.91806
0.0281242
2.91806
-2.91977
2.91977
-2.98468
0.0385002
-2.98468
-2.17253
0.398855
-2.17253
1.475
0.298669
1.475
-4.24775
-0.100117
-4.24775
-4.24974
0.146499
4.24974
0.109346
1.12852
-1.12852
-0.598021
0.124178
-0.598021
-4.11246
-0.135287
4.11246
-0.123436
-3.8792
-0.109825
-3.8792
-3.02451
0.0398301
3.02451
0.0408283
3.11288
0.0465553
-3.11288
0.0475378
-1.87082
3.75328
-1.88014
3.75397
-5.63547
-0.380323
-5.63547
6.32672
-0.310926
6.32672
3.32301
0.359545
-3.32301
0.39534
2.31518
0.157855
2.31518
-6.8126
-0.0376549
-6.8126
6.83504
0.0152068
6.83504
2.21044
0.10474
-2.21044
0.0579835
2.07073
0.0229749
2.07073
2.90065
-0.0197858
2.90065
-2.87516
-0.00570312
-2.87516
2.79482
-2.79482
2.72151
0.0733085
-2.72151
0.0878109
-11.1331
11.1146
-0.0352634
-11.0978
5.17307
5.17307
4.16803
0.572647
4.16803
-4.99161
0.218069
-4.99161
2.67881
-5.29511
3.06353
-6.44934
4.66756
-16.1799
4.3061
-8.35968
6.70138
-6.70138
6.59035
0.11103
-6.59035
0.129636
-1.15431
0.118985
-1.15431
-3.08233
-0.602436
-3.08233
4.32743
-0.642669
4.32743
-3.02814
3.02814
-3.07745
0.049311
3.07745
0.0465344
2.05472
0.0160099
-2.05472
-0.00187579
0.254088
0.0552225
-0.254088
0.0443975
3.48631
-0.21192
3.48631
-3.07681
-0.19758
-3.07681
-1.25297
0.0986549
1.25297
0.0874398
-5.81392
0.250256
-5.81392
-11.1908
0.0929311
-11.1526
-6.10661
-6.10661
2.33376
11.1262
-2.89327
0.0181107
2.89327
0.0247825
2.97514
0.0529991
-2.97514
0.0553703
-2.86051
0.065685
2.86051
0.0592631
-2.54748
0.374954
-2.54748
-1.07267
1.07267
-1.2387
0.166022
1.2387
0.236307
1.40027
-0.271744
1.40027
0.716765
0.110845
-0.716765
0.118744
-3.78077
-0.0984283
-3.78077
6.56187
-0.235156
6.56187
-2.96237
-0.114448
2.96237
-0.0617145
-0.0333166
11.1479
-5.13975
0.0336901
5.13975
-11.2091
11.2428
-3.21828
0.670796
3.21828
0.949758
5.28455
0.279113
-5.28455
0.292943
6.78523
0.0498154
-6.78523
0.0838472
-2.58972
-0.492605
-2.58972
-5.05323
-0.582241
5.05323
-0.725795
-11.4747
-0.204931
11.6796
-11.4176
6.01885
0.138008
-6.01885
11.3808
-1.02991
-0.0986127
1.02991
0.0427629
1.7278
-0.327535
1.7278
3.6808
-0.194485
-3.6808
-0.0999758
-6.71592
-0.0966735
6.71592
-0.15405
-2.14484
-0.444885
2.14484
-0.417036
-4.26711
4.30516
1.90921
-2.38632
-2.59234
-5.55087
1.85185
1.90143
4.30168
-10.1546
-6.02526
-9.96996
7.26213
-6.96919
-9.24434
9.15873
7.87575
-7.98557
-5.78486
5.83139
6.48286
-6.44203
1.87881
1.87469
8.01788
-7.77289
-15.6001
15.2198
7.51462
-7.48727
15.7528
-15.7904
-17.8369
17.8868
-5.70092
5.81105
-6.73946
6.73376
-6.9742
6.91248
-2.83732
-3.61202
13.1126
-12.9605
8.55938
-8.58782
-8.6143
9.03498
3.38259
0.922572
3.42915
-1.88215
3.76096
-1.87147
3.78068
2.71131
-5.54863
2.5838
-5.17614
4.34207
4.21731
-4.28143
-1.26944
-5.92457
5.9527
-5.81386
5.87312
9.12449
-9.16437
-1.88516
3.75986
-1.86881
3.77024
-3.42502
-2.35984
3.37938
0.922298
8.07045
5.0422
-8.2539
-1.71606
-8.03421
7.83973
-8.22789
8.03031
-0.435135
5.8188
-5.38366
4.43319
-1.56243
7.38123
5.6997
5.91777
5.86573
-5.58662
1.10346
-6.48712
-6.39926
-2.29972
2.4239
2.19836
-2.11384
6.12919
1.74656
6.00575
-5.75403
-2.23154
-5.85246
3.82065
2.01074
3.86996
4.07837
2.40449
4.1182
3.03047
-3.03594
0.00546687
-3.05661
6.08709
0.723919
-5.41645
-4.49416
4.97446
3.04342
5.1841
-5.55723
-2.21566
-5.16189
-9.53513
-6.065
-10.1174
10.0791
5.14068
9.76821
-11.9507
11.7966
4.79106
2.72355
4.82248
-4.92425
-2.56302
-4.86627
11.6423
-2.63716
-9.00518
-10.3108
-7.52616
10.2956
5.45718
10.9552
6.93157
11.039
4.4243
7.21804
-9.88148
2.35532
-3.867
-1.83391
-3.77919
3.66927
2.14178
3.7986
-4.2173
-2.52216
-4.19919
-4.29542
-2.67878
4.3152
2.41856
-4.4164
-3.81149
4.53084
2.38164
4.03733
-10.0626
4.32236
-7.93438
-9.19304
-3.76746
-9.0634
3.50996
2.60891
-6.11887
-2.03867
8.48424
-4.26693
7.2148
-5.17917
-3.40864
-5.18105
-6.87852
-1.73578
-6.73202
-8.87643
8.38383
-9.1722
8.52953
12.5172
-5.64436
-6.87287
-3.96843
-2.4736
3.92089
-0.491748
-3.71052
3.71598
0.0504486
3.83113
4.7537
4.26195
-3.88431
-1.92955
-3.82894
3.82438
2.04875
3.89006
6.8329
2.29159
6.86156
-6.6
-2.56437
-6.70012
9.04038
-8.64152
2.83901
-2.74036
5.39399
2.63632
-5.18207
-2.85214
6.21206
-3.21782
-2.99424
-12.1971
10.5292
1.66791
-4.81587
-0.382684
-0.403329
-5.48942
-3.75492
5.37096
0.546813
11.076
7.32108
-5.5116
5.76186
6.16801
6.22402
-0.175238
5.80808
-5.13729
5.25942
-2.5869
-2.67252
5.46203
-5.59731
-1.23809
-5.50961
4.27151
0.408438
1.50898
-1.27864
-1.80441
-0.495313
-1.68566
1.30044
0.897916
1.35567
0.941836
1.48206
-2.96016
0.551765
2.4084
-2.01833
-1.56208
-3.80584
-1.14345
4.94929
5.73178
2.10794
-5.63181
-0.220652
2.54419
-2.42842
-0.766329
-3.03951
2.24818
-3.01451
-3.6739
-2.06493
5.73883
-3.36977
-0.459171
3.31677
0.55319
-3.82713
-2.09745
3.78863
0.329575
-3.12795
6.19079
-3.06284
-5.0575
2.52765
3.55944
4.53839
-4.78951
2.44756
2.34195
-1.23007
4.24651
0.937591
4.40436
-6.93658
4.72093
5.80096
3.23402
-6.16051
0.998614
-5.93797
8.54072
-7.36781
-1.17292
4.15372
4.38701
7.06416
5.45307
-5.67362
12.7378
-1.19958
-6.16823
7.13755
-3.90353
4.84447
-8.748
-10.2975
4.12931
-9.13313
10.9078
-1.77471
-3.62188
-8.3288
12.755
-1.20425
-11.5508
8.56396
-4.2682
-4.36007
8.62827
-6.90536
6.92309
-1.99376
-4.92932
-10.0977
-5.69274
10.1943
1.60229
-9.91078
12.2661
-2.69275
4.11044
0.71204
4.13341
3.29963
-5.48742
2.18779
3.60573
-5.5995
2.08102
-7.56845
-6.72823
12.0619
-5.33369
-10.4957
-9.51293
-0.982753
2.53607
9.73004
-9.46764
7.42627
2.04137
3.30077
0.589294
-3.37408
-0.405117
0.239948
4.52267
-4.76262
4.03854
4.1973
3.27645
1.24622
3.84528
2.10742
-3.87006
-0.329134
-4.16345
1.48467
-1.74489
-3.69375
5.17842
-4.06732
0.373564
-2.74761
-3.49857
6.24618
-4.58152
3.03565
3.15514
5.0844
-4.91346
1.41489
-2.39266
-2.5208
2.65243
-4.39732
1.99179
3.18663
4.37343
0.561937
5.87305
6.18888
-8.48195
0.547577
11.2311
-9.51501
2.46362
8.57542
-9.88989
0.376951
-8.68645
0.994991
-5.26192
-5.12388
5.18781
-6.92359
-3.56018
6.21038
0.651183
-6.31973
-0.41229
-6.03302
-2.84341
-6.47791
-3.0426
-6.1296
-8.71622
-1.6518
-7.06443
6.73203
-6.6784
-3.43897
7.4042
1.12533
-7.40931
7.3107
-7.48728
7.15975
0.0953746
3.62061
4.35732
1.88373
-2.39053
4.27426
-5.11911
7.4107
-8.70802
3.58891
4.19027
-6.75464
-4.51775
5.02252
4.01786
5.32119
8.88516
-10.3546
1.4694
-10.6563
11.9884
-1.33206
-16.4168
5.76054
-7.53167
2.44275
0.396262
2.56173
0.545155
2.49809
-3.04325
-2.1952
-2.10776
-2.43513
-3.46611
5.90124
1.09909
-3.52601
2.42692
-3.56905
4.66814
-0.207728
-3.31828
5.27426
-2.77616
5.67052
-3.77678
1.89374
3.43589
5.75341
-2.31752
4.39497
-1.75865
1.92328
-4.2408
-1.54283
-2.9627
5.10448
-3.28348
3.65704
-0.341861
3.99891
-4.05117
0.833355
-0.774722
3.42258
3.6442
4.31449
-3.06827
2.92055
-4.6792
-1.32025
-4.11726
-0.930635
-0.261521
-3.70611
3.96763
5.9833
-6.24482
-5.23482
9.52811
-4.29329
7.6933
-5.38192
-2.31138
-4.25314
-4.38839
3.87818
1.9299
9.62321
0.209288
-5.59121
-4.928
-3.97824
3.11115
2.14827
-1.7658
3.43371
2.16913
-0.660152
0.433955
0.921712
1.78484
-1.35088
0.312532
1.47231
-0.96611
1.74068
0.803512
-1.85152
0.165859
-1.3089
3.55708
1.0995
-1.99741
0.646529
0.979013
-3.56591
5.04067
-2.67471
-2.36595
6.01968
1.13869
-3.81341
4.37091
-3.96247
2.38289
-3.52634
-1.43052
-5.39299
-3.64643
-2.52565
4.95257
-3.37559
5.48353
1.27867
-5.26288
6.54155
-3.72535
1.66042
-3.0618
3.86531
-0.942795
-2.119
2.90241
2.83641
-3.06585
0.0263424
-0.163436
2.40832
-2.57176
-0.606189
-2.62451
-4.57341
4.90298
-2.10534
4.5529
2.16892
-1.91685
6.46975
1.80897
-3.72582
-3.24853
-3.7077
-1.38387
3.15452
-0.594731
-4.27154
-5.52405
4.1668
0.237568
-7.05658
7.86737
-0.810783
-4.01316
-0.707763
4.86148
-6.07596
0.476468
-3.99494
3.87243
4.81002
5.04759
-11.3331
-0.217664
-6.19241
1.12311
-7.31553
5.51012
-3.53947
7.66878
-10.3236
6.88467
-9.19831
6.49586
-0.819668
6.24785
-4.06006
2.75732
-8.45006
-6.84777
5.51017
-2.78662
6.22221
-3.1489
9.37111
-5.84165
5.29678
4.07434
-1.02112
-4.15992
-5.28627
4.26515
0.0105035
4.14391
4.98029
-2.87287
4.65116
2.26831
-4.66098
-2.129
-6.49472
1.83374
-3.33958
-1.92085
3.75459
3.16355
3.75284
1.2338
-3.34772
7.18865
-8.1714
-1.85495
-3.26893
5.26853
-1.00338
3.40204
-6.67096
-1.85989
4.79699
-0.78467
-4.01232
0.847365
-4.40755
1.67525
-6.0828
5.24834
-5.66063
2.22179
-9.75347
-5.18752
-5.14476
-2.25861
-5.22867
-7.57083
5.31221
-1.81029
5.50041
-8.50703
7.72236
-3.48133
8.79354
-5.42767
-1.05024
5.8447
1.31504
10.1086
0.215231
-4.73298
-1.91472
3.85642
-1.94169
1.19643
-3.49088
0.365537
2.4887
3.53098
-6.76021
0.00557012
-4.72741
-3.91708
7.93494
5.61102
11.5943
1.23976
9.11644
-1.1815
10.3562
4.13969
4.37599
-2.99142
4.46082
0.976211
4.56512
-0.922913
2.81665
1.63882
1.73077
0.69765
2.30368
1.34052
3.13703
0.0937859
-2.01398
4.62177
-8.60001
-0.96944
-8.02737
1.13136
5.70894
-4.57758
2.95983
-0.81156
1.01814
-0.0904357
-1.27023
1.36066
-2.76296
-1.93038
-0.458073
-1.69002
2.33655
1.86706
-1.87847
-0.884483
0.358869
-4.0053
3.16747
-3.14112
-0.304712
6.23684
-2.82164
0.249878
-1.16122
-2.37464
-2.86995
2.70409
6.17598
0.293777
3.11314
5.19676
3.09931
0.226444
3.88809
-5.66279
-3.68036
-5.88046
-0.370338
4.49114
1.75514
7.9749
5.82947
4.82609
-1.84487
-10.0163
6.51845
-2.05763
5.18639
-1.17406
-4.90874
5.04575
2.36496
-5.69693
0.0362975
-4.87244
-6.93008
-0.51379
8.23615
-9.59479
8.54455
5.70115
1.36328
-4.40541
-0.739348
4.23939
0.136608
10.4928
-1.12833
-6.72632
7.85464
-4.58061
3.61117
0.753314
2.6804
2.11398
1.30242
-5.4239
-10.0015
-2.04795
-1.51796
-4.41391
0.535379
-2.40244
6.22364
-2.61247
3.91226
5.24217
6.26031
-2.13288
-4.11194
6.42617
-2.5139
3.74641
)
;

boundaryField
{
    wall-4
    {
        type            calculated;
        value           uniform 0;
    }
    velocity-inlet-5
    {
        type            calculated;
        value           uniform -3.75095;
    }
    velocity-inlet-6
    {
        type            calculated;
        value           uniform -5.62643;
    }
    pressure-outlet-7
    {
        type            calculated;
        value           nonuniform List<scalar> 8(3.3274 7.72824 4.43031 9.72454 7.43939 5.14746 5.74235 8.97366);
    }
    wall-8
    {
        type            calculated;
        value           uniform 0;
    }
    frontAndBackPlanes
    {
        type            empty;
    }
}


// ************************************************************************* //
