/*--------------------------------*- C++ -*----------------------------------*\
  =========                 |
  \\      /  F ield         | OpenFOAM: The Open Source CFD Toolbox
   \\    /   O peration     | Website:  https://openfoam.org
    \\  /    A nd           | Version:  13
     \\/     M anipulation  |
\*---------------------------------------------------------------------------*/
FoamFile
{
    format      ascii;
    class       volScalarField;
    location    "44";
    object      p;
}
// * * * * * * * * * * * * * * * * * * * * * * * * * * * * * * * * * * * * * //

dimensions      [0 2 -2 0 0 0 0];

internalField   nonuniform List<scalar> 
918
(
0.568614
1.21764
0.00550359
0.567986
-0.00874649
1.18466
-0.487414
0.719567
0.548769
-0.0833881
-0.0153801
0.545001
1.04532
0.810303
-1.11128
-0.00419933
0.671456
-0.366001
0.547822
-0.024002
0.75463
0.555348
0.558378
0.548963
0.613926
0.788889
0.926072
0.0207013
0.00421504
0.00230978
-0.013494
-0.0348133
-0.026028
1.06831
1.11938
1.14207
0.516932
0.344696
-0.35307
-0.420017
-0.412757
-0.531249
0.713333
0.712745
-0.173892
0.72244
0.728888
0.535922
0.548133
0.54904
0.550107
0.549064
0.550457
0.426252
-0.0863601
-0.118465
-0.0629182
-0.0551408
0.0775507
-0.0176891
-0.0186706
-0.0142553
-0.0165854
0.467256
0.540497
0.537598
0.550243
0.559348
1.15719
1.12912
1.15525
1.0689
1.0854
1.02332
0.995873
0.831807
0.853475
0.794532
0.782357
-1.54824
-2.5091
-0.516355
-0.263105
-0.0170855
0.00117059
0.0161766
0.664368
0.66352
0.673338
0.682946
1.09682
-0.364411
-0.472807
0.547954
0.546754
0.555127
0.555823
0.551838
0.55093
-0.0233423
-0.0223377
-0.0211413
-0.0241384
-0.0249682
0.743664
0.741307
0.549501
0.546516
0.566042
0.587032
0.578725
0.295533
0.617338
0.630637
0.614293
0.779149
0.773695
0.782452
0.899686
0.862421
0.963279
0.986632
0.0165207
0.0024891
-0.00713712
-0.0149001
-0.012608
0.512841
0.505512
0.532071
0.520308
0.522761
0.260473
0.125558
0.430326
0.455418
-0.267419
-0.327518
-0.417243
-0.441346
-0.555321
0.616078
0.703787
0.701726
-0.190868
-0.116834
-0.246142
-0.0435358
-0.104188
0.526286
0.533223
0.528264
0.543707
0.538199
0.540151
0.552388
0.549467
0.551023
0.488771
0.612356
0.352463
0.317991
-0.225213
-0.136785
-0.227878
-0.0417632
-0.0358674
0.0921211
0.117895
0.0644053
0.0538505
-0.0299287
-0.0212713
-0.0255632
-0.016059
-0.0190067
0.460162
0.449268
0.479704
0.487071
0.530319
0.531523
0.534961
0.533381
0.946749
0.969145
0.976571
0.950345
-3.50879
-6.30936
0.0653717
0.20366
-0.00356639
-0.0108667
0.00595001
-0.00882579
-0.00243054
-0.00354112
0.0133513
0.0114713
0.0177873
0.019691
0.653717
0.653714
1.01633
1.01821
0.996368
0.947152
0.536073
0.538181
0.543715
0.539578
-0.0195028
-0.0219384
-0.0224473
0.730399
0.737469
0.735474
0.258073
0.170573
0.345289
0.37355
0.645575
0.633998
0.64381
0.675722
0.710916
0.994071
1.01223
1.01054
1.01883
1.06289
1.07931
1.04459
0.492729
0.502468
0.497556
0.535245
0.532967
0.533893
0.529465
0.53092
0.528752
-0.0262396
-0.40951
0.504654
0.523093
0.504436
0.510015
0.69568
0.773079
0.684641
0.694119
0.691979
0.0231668
-0.0344207
0.274077
0.240428
0.401083
0.436774
0.416111
0.917902
0.878286
0.928314
0.901854
0.863164
0.889361
-0.361095
-1.87217
-0.984962
0.556761
0.369364
0.457339
0.0351064
0.0162974
0.0229356
1.01107
1.08772
0.668171
0.837699
0.844234
0.749096
0.780099
0.835444
0.759204
0.795171
0.831583
0.813341
0.572996
0.516925
0.528002
0.843103
0.89982
0.142767
0.085112
0.0408262
0.137101
0.193507
0.16802
1.04965
0.955734
1.02775
0.546267
0.54697
0.00679613
0.000663631
0.55115
0.551198
-0.0123485
-0.0005636
0.440247
-0.820663
0.126829
0.539649
0.529801
0.54678
-0.0656652
0.380652
-0.0165123
0.0738544
0.0156334
0.542867
0.477955
0.438089
0.0101406
-0.0116042
-0.0197837
-0.194893
0.54394
0.542248
0.54625
0.547219
0.547884
-0.00644893
-0.000813049
-0.0025953
-0.0214523
-0.01888
-0.0233548
0.511159
0.529136
-0.150424
0.546393
0.548518
0.548342
0.541543
0.547198
0.545431
-0.001815
-0.00962283
-0.0105697
0.241551
0.367341
0.684737
0.776208
0.654032
0.427234
0.189323
0.585387
0.650255
0.553892
0.710166
0.698817
0.716026
0.192325
0.0425999
0.200303
0.141848
0.537511
0.536201
0.528061
0.525093
0.541649
0.539762
0.544312
0.54131
0.544255
0.54565
-0.0240291
-0.0484488
-0.0617814
-0.128361
0.336986
0.59722
0.277175
0.307389
0.168289
-0.0107362
-0.0109226
-0.0150276
-0.0208955
0.0276908
0.000607818
0.068018
0.0686445
0.0372382
0.0110896
0.0191952
0.00624655
0.0105098
0.536108
0.534472
0.540812
0.549616
0.487352
0.491106
0.456701
0.477059
0.462509
0.403025
0.437314
0.412833
0.00141014
0.0140797
0.00327652
-0.00549979
-0.00044615
-0.0159174
-0.0122234
-0.013702
-0.00565184
-0.011632
-0.0165127
-0.0231245
-0.154503
-0.2685
1.00238
0.934104
0.143623
0.53313
0.539553
0.536334
0.54116
0.544285
0.545125
0.542865
0.539431
0.529619
0.531289
0.527861
0.528567
-0.0861622
-0.223015
-0.051685
-0.12243
0.154477
0.636433
0.379126
0.317606
0.311924
0.536779
0.944965
0.736036
0.719403
0.738459
-0.326228
0.0692941
-0.25995
0.35994
0.182054
0.683553
0.733181
0.754769
0.702394
0.654684
-0.0959834
0.56788
-0.046858
0.00217548
0.200038
0.0841351
0.719946
0.682211
0.686272
0.705257
0.723493
0.688482
0.671244
0.665918
0.70073
0.704387
0.511946
0.272684
0.225585
0.187248
0.664764
0.549657
0.605094
0.516812
0.532564
0.535279
0.533879
0.515897
0.523366
0.51898
0.525126
0.528464
0.537363
0.537751
0.533123
0.535282
-0.0288933
-0.0318369
-0.00703707
-0.11676
-0.107379
-0.167055
-0.0439704
0.0958771
0.059116
0.252703
0.35883
0.0713824
-0.0428906
-0.0138134
0.0220091
0.197413
0.222803
0.100489
0.188032
0.17714
0.160809
0.261944
0.26704
0.000269992
-0.00354591
-0.00390059
-0.00639682
0.0446827
0.117142
0.126961
0.0191704
0.0145942
-0.011594
-0.0135486
0.00394264
-4.61152e-05
0.00276457
0.039022
-0.0379652
-0.00542287
0.00969584
0.0212342
0.0164181
0.0114649
0.528651
0.53085
0.530504
0.538164
0.555939
0.571921
0.529238
0.509171
0.500126
0.503108
0.47667
0.486819
0.482723
0.496141
0.516583
0.525693
0.523297
0.525961
0.508786
0.510411
0.49741
0.501025
0.476553
0.457726
0.446225
-0.028687
0.00873643
0.00149225
-0.026145
0.00360194
-0.00916918
0.00788502
0.0245097
0.0108432
0.00653876
-0.00295346
-0.0108149
-0.00744868
-0.0590409
0.0242527
-0.167855
-0.202601
-0.271597
0.906015
1.02695
0.828641
0.603787
0.618242
0.859013
0.945778
0.566095
0.752341
0.776233
0.590688
0.858364
0.537931
0.537545
0.535145
0.534623
0.535845
0.00383038
0.106007
0.112795
0.169703
0.285913
0.399257
0.321589
0.197784
0.330504
0.334374
0.630112
0.643705
0.59802
0.620886
0.621514
0.442599
0.518957
0.572326
0.528093
0.577724
0.598826
0.556507
0.587742
0.537459
0.493035
0.48962
0.438683
0.460108
0.436933
0.418701
0.527773
0.505479
0.515828
0.506057
0.525575
0.549604
0.546413
0.578527
0.589609
0.51013
0.46701
0.47693
0.506517
0.467218
0.481741
0.497557
0.237045
0.136755
0.221945
-0.0671082
0.0109945
-0.0037441
-0.0509594
-0.00410843
0.28131
-0.414179
-0.388785
-1.02039
0.50857
0.975058
0.671735
0.644908
0.720395
0.700645
0.70544
0.726285
0.731082
0.655267
0.672414
0.675875
0.637615
0.660882
0.683133
0.680206
0.538117
0.40645
0.401013
0.354898
0.226516
0.262833
0.46506
0.386807
0.311781
0.313505
0.47732
0.364046
0.432479
0.470367
0.401741
0.355861
0.561033
0.625772
0.615679
0.590412
0.508608
0.523181
0.547403
0.583153
0.609652
0.641394
0.524798
0.530604
0.531857
0.529391
0.526593
0.529562
0.529707
0.532239
0.533011
0.535949
0.534963
-0.0161832
-0.0043731
-0.0183434
-0.0249725
0.00464583
0.000251248
0.0446873
0.0305687
0.0152909
0.0217628
-0.0046578
-0.00906899
-0.00380726
0.0055157
0.121951
0.135019
0.119075
0.0795373
0.266497
0.39728
0.467858
0.346152
0.239304
0.263299
0.285779
0.0131673
0.0396494
0.026711
0.0667704
0.0587473
-0.00789024
-0.0121433
-0.0101025
-0.00371537
0.00707606
-0.0123906
-0.0187324
-0.00856125
-0.013549
-0.0157865
-0.0202101
0.511373
0.504917
0.506416
0.500449
0.499203
0.513217
0.517456
0.519339
0.524687
0.526785
0.517196
0.522726
0.52638
0.00636432
-0.0168702
-0.0216079
-0.00500699
-0.0103817
-0.00974541
-0.00798582
0.132365
0.0621158
0.0665554
0.0212275
-0.106929
-0.0496062
0.496688
0.495064
0.490368
0.726873
0.577207
0.496247
0.592205
0.697589
0.282846
0.481578
0.31456
0.898175
0.791347
0.937908
0.552378
0.250841
0.40903
0.458874
0.266215
0.338957
0.340839
0.227824
0.260041
0.293597
0.395334
0.272651
0.247683
0.00492994
0.192908
0.309448
0.290329
0.418875
0.481257
0.26917
0.190007
0.144897
0.62096
0.638721
0.655187
0.628287
0.650956
0.587915
0.576184
0.59428
0.603985
0.599803
-0.747744
-0.454835
-1.39949
-0.715038
-0.263444
0.539656
0.503803
0.780248
0.663403
0.722701
0.707061
0.663879
0.630634
0.646677
0.676409
0.369439
0.481581
0.456081
0.461098
0.361613
0.2933
0.595513
0.589504
0.624982
0.648576
0.616682
0.64859
0.522543
0.522208
0.521791
0.518129
0.516435
0.518696
0.0831164
0.0519563
0.0869589
0.0679034
0.0452902
0.0337511
0.0158803
0.00685005
-0.00230791
-0.00339008
0.00845529
0.0142939
0.174734
0.115376
0.0382476
0.067083
0.00791386
-0.0585417
-0.0767745
0.0242954
0.117542
0.107989
0.414438
0.666455
0.486958
0.655705
0.495052
0.550961
0.480759
0.473657
0.500418
0.387753
0.467067
0.24315
-0.263501
-0.171389
0.796591
0.812851
0.595779
0.41304
0.18235
0.368035
0.561736
0.495523
0.533777
0.603339
0.593796
0.0248812
0.0887723
0.357363
0.584702
0.24326
0.23535
0.22951
0.406754
0.328732
)
;

boundaryField
{
    wall-4
    {
        type            zeroGradient;
    }
    velocity-inlet-5
    {
        type            zeroGradient;
    }
    velocity-inlet-6
    {
        type            zeroGradient;
    }
    pressure-outlet-7
    {
        type            fixedValue;
        value           uniform 0;
    }
    wall-8
    {
        type            zeroGradient;
    }
    frontAndBackPlanes
    {
        type            empty;
    }
}


// ************************************************************************* //
