/*--------------------------------*- C++ -*----------------------------------*\
  =========                 |
  \\      /  F ield         | OpenFOAM: The Open Source CFD Toolbox
   \\    /   O peration     | Website:  https://openfoam.org
    \\  /    A nd           | Version:  13
     \\/     M anipulation  |
\*---------------------------------------------------------------------------*/
FoamFile
{
    format      ascii;
    class       volVectorField;
    location    "44";
    object      U;
}
// * * * * * * * * * * * * * * * * * * * * * * * * * * * * * * * * * * * * * //

dimensions      [0 1 -1 0 0 0 0];

internalField   nonuniform List<vector> 
918
(
(0.985163 -0.000503164 0)
(0.00501081 2.96625 0)
(0.00785349 0.844526 0)
(0.979703 0.00214799 0)
(-0.0144311 2.04398 3.1484e-20)
(-0.00704485 2.94879 -2.53765e-18)
(0.818703 1.15687 4.29389e-19)
(0.250266 0.120767 -1.59893e-20)
(0.999907 -0.000283472 0)
(0.0608618 0.801388 0)
(0.0129814 0.611348 0)
(0.734788 -0.0165845 0)
(0.0111395 2.93032 0)
(0.00255801 2.79517 0)
(-0.0175609 3.15454 7.66e-19)
(-0.0186257 1.90172 1.44091e-21)
(0.316282 0.032722 1.04917e-18)
(0.189313 1.16891 3.00243e-19)
(0.962767 0.00501881 0)
(-0.0136744 0.561305 0)
(0.0480521 0.16229 -7.57415e-19)
(1.00198 -0.00497979 0)
(1.00022 -0.00979083 0)
(0.975728 -0.00643997 0)
(0.584013 -0.0384129 0)
(0.0157841 2.6395 0)
(-0.0149049 2.91004 9.38182e-19)
(0.0087253 0.91469 0)
(0.00399445 1.15254 0)
(0.00578284 0.890013 0)
(-0.0178977 2.61075 0)
(-0.0036897 2.09851 -2.5135e-20)
(-0.00932951 1.86851 0)
(-0.0206 2.9876 -9.1423e-23)
(-0.0166881 3.00529 1.97218e-18)
(0.00210264 3.00018 0)
(0.870844 -0.00953007 0)
(0.404791 0.938385 1.87196e-19)
(0.797039 1.17458 -4.76447e-19)
(0.94271 1.01288 5.20068e-19)
(0.66894 1.26722 -9.88191e-20)
(0.669194 1.2523 5.71343e-19)
(0.288615 0.195296 1.55989e-20)
(0.264528 0.0932331 0)
(1.13087 0.548451 0)
(0.25535 0.18739 7.12743e-20)
(0.221175 0.120757 -7.39607e-20)
(0.919801 -0.00744894 0)
(1.00027 0.000154852 0)
(0.999909 0.000336757 0)
(1.00363 -0.00776837 0)
(1.00096 -0.000924694 0)
(1.00017 3.07756e-05 0)
(0.0767739 1.81467 -8.15357e-19)
(0.0300035 0.983167 0)
(0.0970291 0.867449 0)
(0.0131275 0.934568 0)
(0.0356271 0.736667 0)
(0.0147981 2.00219 0)
(0.00840095 0.834203 0)
(0.00907317 0.63045 0)
(0.0108637 0.821115 0)
(0.018376 0.591553 0)
(0.839048 -0.0157994 0)
(0.845756 0.0295757 0)
(0.767708 -0.00520334 0)
(0.815492 0.0391493 0)
(0.703897 -0.0190286 0)
(0.0146895 3.00041 9.41637e-19)
(0.0115013 3.00805 0)
(0.00611052 3.00277 0)
(0.0135547 2.99737 1.06989e-23)
(0.00796366 2.95846 -1.3995e-18)
(0.0144974 2.98199 0)
(0.0108659 2.90357 0)
(0.0244308 2.9305 2.16398e-24)
(0.00456147 2.82525 0)
(0.0310449 2.91635 0)
(-0.00516013 2.74548 0)
(0.308174 3.55107 0)
(-0.131769 3.63249 0)
(0.139467 3.24496 -7.12847e-19)
(-0.0128577 2.98077 0)
(-0.020204 2.00126 0)
(-0.00868178 2.16126 -1.42115e-21)
(-0.010249 1.90394 -1.55082e-20)
(0.417648 0.142917 -3.63135e-19)
(0.321528 0.0178648 -3.50727e-19)
(0.39566 0.154984 -1.09323e-18)
(0.299582 0.045679 -7.20218e-19)
(0.223733 0.96484 0)
(0.271034 1.315 -3.58955e-19)
(0.366914 1.24984 5.99548e-19)
(0.987473 0.00855572 0)
(0.941916 0.00583646 0)
(1.0003 0.000578367 0)
(1.00286 0.00930588 0)
(1.00302 0.00846157 -2.80274e-18)
(0.991913 0.00969968 2.11654e-18)
(-0.0106441 0.801201 0)
(-0.00383342 0.55589 0)
(-0.0196062 0.969423 0)
(-0.00464778 0.818741 0)
(-0.00600648 0.553244 0)
(0.0783839 0.164521 2.34055e-19)
(0.137507 0.1403 0)
(0.993541 -0.00837919 0)
(0.954429 -0.00652139 0)
(0.762032 0.0464941 0)
(0.697689 0.0570814 0)
(0.664141 -0.0312365 0)
(0.963576 -0.00821992 0)
(0.614239 0.0762293 0)
(0.444697 -0.0108876 1.5596e-18)
(-0.0366996 2.86321 7.04793e-19)
(0.0414025 2.90984 0)
(0.0543531 2.88527 0)
(-0.00436202 2.69976 0)
(-0.0131292 2.98514 8.90196e-19)
(-0.017973 2.89508 0)
(-0.0154416 2.98805 -2.75646e-18)
(-0.0132827 2.92518 9.43266e-19)
(0.0126953 1.34903 0)
(0.0304848 1.38635 0)
(-0.00849285 2.11952 2.64083e-22)
(-0.006613 2.08067 0)
(-0.0194742 1.88381 0)
(0.938118 -0.00759114 0)
(0.856625 -0.00977339 0)
(0.863356 0.00613447 0)
(0.949299 -0.008003 0)
(0.883738 -0.00810973 0)
(0.516942 1.13199 -2.36085e-19)
(0.566295 1.18334 0)
(0.368686 0.88281 3.46759e-20)
(0.310833 0.741749 0)
(0.902749 1.05208 -1.42157e-19)
(1.01313 0.85533 2.83501e-19)
(0.359974 1.36405 0)
(0.524812 1.32917 0)
(0.54279 1.28088 0)
(0.116729 0.181577 -3.0405e-19)
(0.321471 0.187585 0)
(0.287858 0.0866497 2.03671e-19)
(0.984991 0.911356 0)
(1.05405 0.763483 0)
(1.07741 0.703716 -2.16263e-19)
(1.11195 0.608579 0)
(1.16422 0.395305 5.52806e-20)
(0.957582 -0.00883006 0)
(0.962411 -0.0100894 0)
(0.90156 -0.00794628 0)
(0.984177 -0.00916691 0)
(0.974659 -0.00936781 0)
(0.937075 -0.00636604 0)
(1.00019 0.00233663 0)
(1.0009 0.00140772 0)
(0.99991 0.000852729 0)
(0.035262 2.0663 4.50094e-19)
(0.120374 1.75686 0)
(0.0167934 2.18162 7.0141e-19)
(0.0505656 1.86925 -5.91906e-19)
(0.104707 1.17709 -2.45465e-19)
(0.0447779 1.06278 0)
(0.143731 1.01867 0)
(0.00466249 0.894667 0)
(0.0160591 0.685684 0)
(-0.002033 2.23693 -1.16882e-21)
(0.023533 2.00759 0)
(-0.00267571 2.24029 -5.15048e-20)
(0.0169443 2.01112 9.00293e-20)
(0.00586993 0.868587 0)
(0.00610533 0.847934 0)
(0.00615249 0.653842 0)
(0.00153837 0.802576 0)
(0.00153503 0.57846 0)
(0.936171 0.00918239 0)
(0.846893 -0.0152593 0)
(0.925985 -4.27386e-05 0)
(0.840769 -0.012863 0)
(0.811992 0.000693655 0)
(0.901081 0.0202274 0)
(0.876817 0.0247508 0)
(0.788791 -0.00163498 0)
(0.00562078 3.06471 -8.81936e-21)
(0.0165721 3.05782 0)
(0.0146172 2.96905 0)
(0.00859932 2.87625 0)
(0.925106 3.96728 0)
(1.23961 3.30008 9.30065e-19)
(0.0697897 3.07303 0)
(-0.0287986 2.90482 0)
(0.00820601 1.40403 0)
(-0.0232212 1.71056 0)
(0.00246053 1.55507 0)
(-0.0301749 2.5688 -9.30161e-21)
(-0.01325 2.26031 0)
(-0.0200415 2.40573 0)
(0.00938529 1.93456 2.1116e-21)
(-0.00417432 2.23677 1.09428e-20)
(-0.00444117 2.1943 1.5604e-20)
(-0.00202538 1.91721 0)
(0.450518 0.12301 5.48267e-19)
(0.357383 0.00796678 -5.38324e-19)
(0.259902 1.5776 0)
(0.272168 0.739404 -3.18646e-19)
(0.177247 1.66328 -1.06762e-18)
(0.227215 1.20548 1.07019e-18)
(0.902185 0.00646788 0)
(0.967478 0.0110721 0)
(0.974603 0.0107874 0)
(0.923411 0.00647281 0)
(-0.000436302 0.78995 0)
(-0.0145601 0.791274 0)
(0.000717435 0.560432 0)
(0.219198 0.181026 6.57359e-19)
(0.183322 0.167431 -7.78341e-19)
(0.184893 0.128589 0)
(1.08789 0.0832044 2.89688e-20)
(1.07049 0.0377607 0)
(1.00559 0.0387041 0)
(0.901505 -0.00686454 0)
(0.4874 0.105007 0)
(0.535791 0.0872589 -2.49363e-18)
(0.396445 0.0051474 9.33635e-19)
(0.00897239 2.9807 7.51852e-19)
(-0.0331653 2.86538 4.55883e-20)
(0.00368098 3.05025 -1.86464e-20)
(0.0201427 3.04337 6.62982e-19)
(-0.0149891 2.99656 3.09521e-20)
(-0.0129768 2.94946 -1.24455e-22)
(-0.0172846 3.01193 -5.71615e-19)
(0.0149028 3.02372 4.13967e-19)
(0.007403 3.03689 -6.56916e-19)
(0.932938 -0.00165548 0)
(0.93876 -0.00353106 0)
(0.844719 -0.00929644 0)
(0.956677 0.0117972 0)
(0.942945 0.0130534 0)
(0.881735 0.00601803 0)
(0.917798 0.0165878 0)
(0.926366 0.0147909 0)
(0.83856 0.0033684 0)
(0.720164 1.41034 3.36615e-20)
(0.753611 1.51935 0)
(0.186902 0.325465 7.25491e-20)
(0.22054 0.660985 5.86373e-19)
(0.26073 0.720797 -3.41335e-19)
(0.26565 0.533958 6.78555e-19)
(0.33815 0.793571 1.59888e-18)
(0.135481 0.222775 3.76207e-19)
(0.369495 0.173221 7.64009e-19)
(0.348362 0.18357 1.99195e-19)
(0.295195 0.0660519 3.79841e-19)
(1.15434 0.453218 3.5841e-20)
(1.17382 0.250628 3.07931e-20)
(0.00804015 2.22962 2.75185e-19)
(0.0465874 1.93784 0)
(0.965891 0.0284622 0)
(0.939931 0.0132398 0)
(0.86465 -0.0185273 0)
(0.0113524 3.07455 0)
(0.0198116 2.94407 1.21862e-18)
(0.0164383 2.95642 0)
(0.0062633 2.85061 -1.20909e-18)
(0.00618181 3.09107 2.96256e-19)
(0.00713658 3.08227 0)
(0.786654 1.82185 -1.58435e-19)
(1.24741 2.49952 4.02963e-19)
(0.768789 1.9615 -1.23334e-18)
(0.0201587 2.98173 -6.51246e-19)
(0.0355761 3.00136 0)
(-0.0339411 2.87849 0)
(-0.00578323 2.21821 -1.32193e-20)
(-0.00657727 2.24042 -3.00959e-20)
(0.0119807 1.97078 -8.11328e-21)
(0.276614 1.38548 1.03642e-18)
(0.230907 0.52752 -7.10885e-19)
(0.0636768 1.99061 7.85259e-19)
(0.136253 1.87863 -9.31449e-19)
(0.179747 1.4978 9.22191e-20)
(0.00236137 3.11914 -1.85008e-18)
(0.0129978 3.11906 2.00826e-18)
(-0.00894235 2.98113 8.20553e-19)
(-0.00415832 2.97755 -7.76517e-19)
(-0.0211354 2.88101 -8.35717e-19)
(0.00858646 3.10025 -2.20643e-18)
(0.00221844 3.10496 2.18202e-18)
(0.274649 0.684826 0)
(0.239941 0.675036 -1.20856e-18)
(0.096203 0.22391 5.35941e-19)
(0.35247 0.91947 1.11746e-18)
(0.190809 0.267675 -1.72284e-18)
(1.17011 0.170596 7.23878e-20)
(1.17448 0.304294 0)
(1.15879 0.119554 -1.81217e-20)
(-0.00136583 2.24834 -1.83834e-21)
(0.00209435 2.23926 0)
(0.0322604 1.97323 0)
(0.340065 1.29367 -3.72944e-19)
(0.370503 1.13156 -8.06296e-19)
(0.204655 0.366989 1.43576e-18)
(1.00587 -0.0108565 0)
(1.00766 -0.00764959 5.1725e-19)
(0.0105343 1.32254 0)
(-0.0126413 1.29668 0)
(1.00222 0.00350379 1.80415e-21)
(1.00366 0.00944822 1.05572e-18)
(-0.0204461 2.55259 1.17831e-20)
(-0.0263341 2.59457 0)
(0.0353544 3.17834 4.36893e-19)
(0.394966 3.49017 0)
(1.16182 0.647075 -6.94555e-20)
(1.01292 0.0130806 -2.15164e-21)
(1.02126 -0.0103795 0)
(1.0017 0.00011602 7.61776e-23)
(0.102709 1.35964 0)
(0.145236 2.57379 0)
(0.0214313 1.3007 0)
(0.00156946 2.62651 5.08988e-20)
(-0.0195175 2.58558 2.11035e-20)
(1.0011 0.0288245 2.46109e-21)
(1.06192 0.00367466 0)
(1.09498 0.0234368 0)
(-0.022353 1.7429 0)
(-0.0215576 2.59424 0)
(-0.00151348 1.28999 0)
(0.295489 1.47161 -1.53031e-19)
(1.01127 -0.00964676 0)
(1.00939 -0.0149312 0)
(1.00238 0.000735606 6.61073e-19)
(1.00547 -0.00482307 -7.76852e-19)
(1.00118 -0.000998666 0)
(-0.00519981 1.46222 0)
(0.00189104 1.36722 0)
(0.00952685 1.42319 0)
(-0.00211835 1.27748 0)
(-0.00442145 1.25554 0)
(-0.00540224 1.23002 0)
(1.03465 -0.00635217 0)
(1.02036 0.0157041 -9.08456e-22)
(0.801314 1.26555 2.42049e-19)
(1.00222 0.00030654 -6.5806e-19)
(1.00407 0.00524671 7.70703e-19)
(1.00117 0.0020661 0)
(1.01278 0.0103061 6.553e-19)
(1.00801 0.00829419 -7.93746e-19)
(1.00858 0.0146906 0)
(-0.0259772 2.62204 0)
(-0.0273701 2.6019 -1.0934e-20)
(-0.0259305 2.61504 8.08397e-21)
(1.22899 0.260222 6.264e-19)
(1.15682 0.0841384 0)
(0.042679 3.07724 -9.61849e-19)
(0.065276 2.85405 -6.99384e-20)
(0.141191 3.19257 1.47076e-18)
(0.135924 3.22147 -2.164e-19)
(0.134543 3.2335 0)
(0.0199493 3.13767 2.49147e-19)
(0.0761031 3.16004 9.49018e-19)
(0.0685449 3.18614 -4.6929e-19)
(0.0227907 3.12939 0)
(0.628312 0.283437 0)
(0.557978 0.332114 0)
(1.12845 0.683599 1.68089e-19)
(1.12331 0.807815 -1.63782e-19)
(1.18849 0.570522 0)
(1.21891 0.506562 0)
(1.01613 0.0133028 -1.22171e-18)
(1.01499 0.0142449 1.5335e-18)
(1.02524 -0.00991259 0)
(1.02332 -0.0118929 0)
(1.00643 0.00256987 0)
(1.01041 0.00369777 0)
(1.00458 0.00182761 0)
(1.0098 0.00619799 0)
(1.00785 0.00597031 0)
(1.0045 0.00465934 0)
(0.0910327 1.35682 0)
(0.0851312 1.32749 0)
(0.122658 1.39298 0)
(0.137255 1.40396 0)
(0.145418 2.59824 0)
(0.185585 2.6659 -4.41773e-19)
(0.101032 2.65436 0)
(0.0866205 2.65747 2.16514e-19)
(0.0407486 2.67974 -1.82585e-19)
(0.0167945 1.31234 0)
(0.0223075 1.23982 0)
(0.0253024 1.32381 0)
(0.0262327 1.26666 0)
(0.00454413 1.98017 -1.80581e-20)
(-0.0184195 2.61326 3.42419e-21)
(-0.00683036 2.66828 4.11766e-20)
(-0.0166739 2.68861 0)
(-0.0219218 2.62062 -4.70446e-20)
(-0.0223258 2.61552 -1.17208e-20)
(0.0140676 1.97932 1.6433e-20)
(-0.00481479 2.39903 -4.59506e-21)
(-0.0111002 2.42049 -4.67023e-20)
(1.01107 0.0366227 1.24559e-18)
(1.00648 0.0162061 -1.53843e-18)
(1.00233 0.043537 -1.24633e-18)
(0.980007 0.022411 1.58889e-18)
(1.06317 0.00751614 0)
(1.04858 -0.00862323 0)
(1.0924 0.0332664 0)
(1.07284 0.0117692 0)
(1.07064 -0.000202454 0)
(1.13751 0.0800478 0)
(1.10904 0.0425424 0)
(1.1121 0.030596 0)
(-0.0247127 2.44392 -4.1949e-22)
(-0.0125506 2.01869 0)
(-0.0136971 2.22613 0)
(-0.0227304 2.61453 -3.22359e-21)
(-0.0209919 2.62314 -2.0515e-22)
(0.00585945 1.5695 -1.61401e-20)
(0.00283378 1.49701 1.63988e-20)
(-0.00627359 1.38276 0)
(-0.00847582 1.38939 0)
(-0.0113646 1.38521 0)
(0.00253008 1.29248 0)
(0.00921054 1.23594 0)
(0.377662 1.48714 2.46126e-19)
(0.418 1.49063 1.35624e-19)
(0.597228 2.44833 -2.42198e-19)
(0.401003 2.54257 7.14501e-19)
(0.350442 2.06594 7.58222e-20)
(1.02098 -0.00819159 0)
(1.01546 -0.00978986 0)
(1.01489 -0.0155234 0)
(1.00745 -0.00116518 0)
(1.00494 -0.000940939 0)
(1.00776 -0.00475502 0)
(1.00924 -0.00370075 0)
(1.01417 -0.0044671 0)
(1.02108 0.0161289 1.19623e-18)
(1.01795 0.0157041 -1.53282e-18)
(1.02151 0.0180919 -1.20487e-18)
(1.01936 0.0167804 1.50697e-18)
(0.766664 1.31505 0)
(0.703111 1.36635 2.25536e-19)
(0.877622 1.21216 7.91605e-20)
(0.921067 1.16196 -1.05273e-19)
(1.1579 2.60795 3.00905e-19)
(0.798269 0.114749 6.08363e-19)
(1.16011 0.105265 0)
(1.20634 0.189462 -5.03385e-19)
(1.19075 0.151373 -2.12852e-20)
(1.00458 0.149371 0)
(0.134622 2.96024 5.64566e-19)
(0.111712 2.86588 -1.22e-18)
(0.0217741 2.37393 8.21544e-19)
(0.09051 -0.0445021 -3.66138e-19)
(0.339859 3.41938 -2.0242e-19)
(0.19385 3.31214 0)
(0.237117 3.35392 2.63619e-19)
(0.244371 3.03343 -1.86062e-18)
(0.33915 3.19274 0)
(0.00741618 3.12078 4.83002e-20)
(0.0169863 3.12975 -5.67807e-19)
(0.0155895 3.1258 8.35723e-19)
(0.0358279 3.13966 0)
(0.0341373 3.15062 0)
(1.21599 2.60683 0)
(0.543592 0.83053 -5.41232e-19)
(1.04596 0.984037 9.19241e-21)
(0.980525 1.06533 0)
(0.835431 0.969201 -1.18741e-19)
(1.07187 0.87813 2.85627e-20)
(0.360277 0.380173 -9.42323e-19)
(0.678505 0.312362 -2.09331e-20)
(0.633258 0.223004 4.33369e-19)
(0.579551 0.365936 3.20172e-20)
(0.491403 0.331429 -1.28905e-18)
(0.649895 0.326341 0)
(0.701908 0.416591 7.36206e-19)
(0.710289 0.417502 0)
(0.614108 0.354713 0)
(0.572389 0.276309 0)
(0.808211 0.613076 4.35101e-19)
(1.22936 0.282491 -5.28655e-19)
(1.2278 0.418112 0)
(1.23666 0.358639 0)
(0.72949 0.186664 6.43101e-19)
(0.854975 0.535973 -3.99873e-19)
(0.749968 0.506675 7.08854e-19)
(0.951754 0.42775 -7.78712e-19)
(1.01961 0.0147655 8.22132e-19)
(1.01778 0.0142368 -8.26846e-19)
(1.01593 0.015495 0)
(1.0361 -0.00589865 0)
(1.02968 -0.0085502 -7.74804e-19)
(1.02771 -0.0120825 7.67128e-19)
(1.02499 0.0100082 0)
(1.02361 0.0136182 0)
(1.01142 0.00408166 0)
(1.01427 0.00902734 0)
(1.01514 0.00399525 0)
(1.01424 0.00277993 0)
(0.062055 1.34169 0)
(0.0628499 1.29744 0)
(0.143423 1.36711 -1.3315e-20)
(0.269879 1.46867 7.79645e-20)
(0.163926 1.4404 1.61703e-19)
(0.19562 1.44742 -2.65245e-19)
(0.165217 1.39104 0)
(0.129608 1.59452 -9.28653e-20)
(0.114147 1.56752 0)
(0.34795 2.01822 -1.10222e-19)
(0.344773 2.35007 6.38451e-19)
(0.186269 1.45143 8.09843e-20)
(0.261544 1.38116 1.55237e-20)
(0.196163 1.371 -1.25585e-20)
(0.271441 1.32311 -1.18181e-19)
(0.238785 1.57699 0)
(0.260573 1.61644 1.24534e-19)
(0.0323612 2.26366 -4.03468e-20)
(0.0439948 2.66831 0)
(0.0660933 2.40059 1.58895e-19)
(0.0620419 2.42101 0)
(0.0703227 2.67026 -2.39781e-19)
(0.0508981 2.69868 0)
(0.029876 1.41165 3.28898e-21)
(0.0364152 1.46441 0)
(0.0296463 1.38149 0)
(0.0241688 1.38322 -3.71089e-21)
(0.00214032 2.65395 -1.67558e-20)
(0.0311241 2.69738 2.0889e-19)
(0.0124109 2.72341 1.46579e-21)
(0.00707578 1.82737 1.51507e-20)
(-0.000838429 1.67567 6.51529e-21)
(0.0180503 1.29138 0)
(0.0238469 1.22387 0)
(0.0479945 1.57507 8.4835e-21)
(0.0296843 1.44798 2.90759e-21)
(0.038124 1.51327 -3.51874e-21)
(0.0404784 1.59956 0)
(-0.0295349 2.27703 6.08979e-20)
(-0.0287713 2.56051 -2.42929e-20)
(-0.0169538 2.45559 -4.56377e-22)
(-0.000399692 1.84383 -1.83585e-20)
(-0.0234767 2.50553 -5.53067e-21)
(-0.0192509 2.44671 3.12504e-20)
(1.01944 0.0208698 -8.17e-19)
(1.01554 0.0265615 8.21252e-19)
(1.01465 0.0162296 0)
(1.01223 0.0700915 1.15348e-18)
(0.990294 0.0589257 -1.29603e-18)
(0.948817 0.0433642 1.45161e-18)
(1.01371 0.107364 -1.53822e-19)
(1.04238 -0.00594547 0)
(1.05052 -0.00174901 7.4009e-19)
(1.03868 -0.0100286 -7.41575e-19)
(1.06984 0.0413735 -4.40946e-20)
(1.06373 0.0225152 3.79708e-19)
(1.0625 0.0542515 0)
(1.05319 0.0480824 -1.36532e-19)
(1.03241 0.0410997 0)
(1.02592 0.0375296 0)
(1.02783 0.0129873 0)
(1.02419 0.0157722 0)
(1.03995 0.0314261 2.81086e-19)
(1.03907 0.0261885 -6.2078e-19)
(1.05051 0.0327313 -2.98115e-19)
(1.04829 0.0325929 -3.28042e-19)
(1.07008 0.0629468 6.41852e-19)
(1.09491 0.0506048 0)
(1.10299 0.0944173 0)
(-0.0232275 2.28301 3.72682e-20)
(-0.0169918 2.02754 -9.74531e-22)
(-0.0164086 2.03194 0)
(-0.0308538 2.45472 -3.71027e-20)
(-0.0232336 2.41065 1.38656e-21)
(-0.0315266 2.48359 2.93677e-21)
(-0.0206324 2.6302 1.01219e-20)
(-0.0213723 2.57265 -1.26365e-21)
(-0.0201784 2.52222 3.27254e-21)
(-0.017076 2.62559 1.29038e-22)
(-0.0219149 2.62665 1.32318e-21)
(0.00125249 1.48185 -4.79639e-22)
(0.00729783 1.61832 -1.31037e-20)
(0.364031 1.43067 -1.0123e-19)
(0.364064 1.36912 4.9047e-20)
(0.647491 1.41527 -2.18161e-19)
(0.51605 1.48161 -1.32678e-19)
(0.57115 1.45015 0)
(0.592849 2.42472 2.12832e-19)
(0.660788 2.4179 3.41393e-19)
(0.410251 2.51634 8.48902e-20)
(0.402634 2.54401 -6.36793e-19)
(0.511185 2.48881 6.24705e-19)
(0.552236 2.46215 0)
(0.488626 2.51715 -5.69157e-19)
(0.247675 2.59092 1.18482e-18)
(0.353332 2.56474 -8.1007e-20)
(0.283742 2.65239 -1.62803e-18)
(0.944896 2.38128 7.32913e-19)
(0.837001 2.38437 0)
(1.01102 0.000451752 2.68175e-20)
(1.01526 -0.00548058 -2.17685e-20)
(1.01764 -0.00361843 -3.97667e-19)
(1.01495 -0.000947424 3.99602e-19)
(1.01237 0.00108265 0)
(0.635555 1.28535 0)
(0.658125 1.18222 0)
(0.765812 1.09402 0)
(0.65089 1.14579 0)
(1.18719 2.62232 5.8583e-20)
(1.07566 2.3682 0)
(0.83935 2.18477 3.88546e-21)
(0.825922 2.44736 0)
(0.923146 2.53873 -4.30411e-19)
(0.958703 2.49441 2.86467e-19)
(0.814499 0.171925 0)
(0.775234 0.143924 1.65605e-19)
(0.921051 0.143852 9.64334e-19)
(0.837043 0.146336 -3.60335e-19)
(0.803778 0.0836331 -1.11178e-18)
(1.07792 0.232778 -9.28971e-19)
(0.99171 0.290225 -1.58623e-20)
(0.92658 0.290847 8.89968e-19)
(1.00247 0.221173 7.44003e-19)
(0.952453 0.187958 -1.28177e-18)
(0.917126 0.18902 1.60189e-19)
(0.954224 0.253435 -3.42042e-19)
(0.931556 0.215738 0)
(0.992209 0.182877 6.3275e-19)
(1.04385 0.185657 0)
(1.0401 0.211889 0)
(1.10524 0.117125 2.98699e-19)
(1.06733 0.174364 -1.42489e-20)
(1.07261 0.233793 -1.63323e-19)
(1.1037 0.201194 0)
(1.0227 0.0451696 6.34114e-19)
(1.04051 0.0577777 7.90742e-19)
(1.03396 0.0439609 -6.28951e-19)
(1.04327 0.0644978 -5.29865e-19)
(1.01916 0.0723939 -8.11158e-19)
(0.987872 0.156228 0)
(0.999106 0.103681 0)
(0.96615 0.065779 -5.17175e-19)
(0.913989 0.0888819 2.03112e-19)
(1.03852 0.102946 7.3278e-19)
(1.06803 0.120029 -8.62474e-19)
(1.07401 0.152886 7.70686e-19)
(1.02925 0.141793 0)
(1.07419 0.107258 0)
(1.05487 0.0898551 -3.52679e-19)
(1.04465 0.0941921 -6.00029e-19)
(0.581839 1.07613 1.42774e-19)
(0.612676 1.40613 -4.44451e-20)
(1.15765 2.73873 -2.31877e-19)
(1.22404 3.07995 2.42085e-21)
(1.24976 2.72125 -1.41607e-19)
(1.27954 2.70499 -2.56406e-20)
(1.2077 2.34546 -1.03055e-20)
(1.21141 2.98403 -9.66965e-20)
(1.23088 2.94934 2.39922e-19)
(1.21485 3.23339 -1.42253e-19)
(1.37547 2.96529 1.96709e-19)
(1.36569 2.88348 0)
(0.550782 0.838605 -5.0703e-20)
(0.132684 1.24874 5.82784e-19)
(0.536478 0.431146 6.09137e-19)
(0.37511 0.181068 6.71467e-19)
(0.52015 0.366366 7.28338e-19)
(0.546737 0.466335 -1.17188e-18)
(0.548258 0.467397 9.57124e-19)
(0.493064 0.382418 -3.68098e-19)
(0.408193 0.314424 8.33851e-19)
(0.734981 0.250465 -3.68298e-19)
(0.696537 0.276858 0)
(0.67219 0.197329 8.73428e-21)
(0.733605 0.505707 3.87388e-19)
(0.70607 0.47498 -1.41261e-18)
(0.616547 0.464401 1.4617e-20)
(0.624311 0.450461 0)
(0.681663 0.727253 4.09134e-19)
(0.838702 0.772702 4.16702e-19)
(0.761217 0.855765 -4.86964e-19)
(0.883334 0.80846 -1.65621e-19)
(0.912165 0.851394 -4.13858e-20)
(0.919913 0.851701 4.23858e-20)
(0.852818 0.645316 -7.21729e-19)
(0.933519 0.702081 1.53866e-19)
(0.989141 0.71591 0)
(0.980513 0.692063 -2.10404e-19)
(1.02161 0.328149 2.24534e-19)
(1.14392 0.297565 3.08287e-19)
(1.06473 0.268028 3.80012e-19)
(1.00956 0.359678 -4.51622e-19)
(1.05869 0.423765 0)
(1.11385 0.409936 0)
(0.91688 0.360887 5.97395e-21)
(0.840543 0.293176 0)
(0.879231 0.288887 4.19124e-19)
(0.907469 0.297381 -4.85766e-21)
(0.945629 0.430095 2.17113e-18)
(0.904789 0.488093 5.61576e-19)
(0.907663 0.452701 -5.965e-19)
(0.824889 0.436579 6.38814e-19)
(0.808135 0.429853 3.83359e-19)
(0.777782 0.411828 -3.76832e-19)
(1.02717 -0.000484438 6.62466e-19)
(1.01999 -0.000121899 0)
(1.01848 0.000810104 4.31834e-19)
(1.02164 -0.00174072 -9.78292e-19)
(1.0223 0.00425503 4.75208e-19)
(1.0204 0.0111872 -9.95176e-19)
(1.02135 0.0105827 0)
(1.02065 0.0108552 -2.07354e-19)
(1.01598 0.00767502 5.20173e-19)
(1.01671 0.0104312 -2.59537e-19)
(1.01741 0.00977983 1.91152e-19)
(0.0284389 1.31655 0)
(0.0323653 1.35547 0)
(0.0423381 1.31877 0)
(0.0424856 1.27542 0)
(0.0707133 1.38117 2.18342e-21)
(0.077311 1.35251 6.40415e-21)
(0.110426 1.51246 -2.62016e-20)
(0.0935226 1.36256 6.05164e-21)
(0.0341393 1.45323 -2.56156e-20)
(0.0379746 1.44629 2.00539e-20)
(0.0619089 1.3655 -8.00441e-21)
(0.0540843 1.36731 9.57964e-21)
(0.0464255 1.34251 1.24968e-21)
(0.0381611 1.36476 -1.95943e-21)
(0.10704 2.37172 -1.75708e-19)
(0.0958976 2.4187 0)
(0.169789 2.04767 1.1686e-19)
(0.109077 1.71012 5.01105e-20)
(0.229404 2.04455 -9.55892e-20)
(0.204062 2.43736 0)
(0.26459 2.38869 -6.19911e-19)
(0.302434 2.38678 4.39703e-19)
(0.229133 2.00461 -2.66238e-19)
(0.152994 2.16496 1.76225e-19)
(0.14332 2.27641 0)
(0.0197595 1.87398 -3.39388e-20)
(0.000532241 2.3956 -8.11628e-20)
(0.0064176 2.14947 0)
(0.0124407 2.45759 -1.37982e-20)
(0.0281603 2.30216 2.85827e-20)
(0.0215427 1.39392 -1.81033e-21)
(0.0219099 1.38028 3.37686e-20)
(0.0210052 1.38442 -1.35557e-20)
(0.024353 1.38373 -6.51658e-21)
(0.029296 1.41546 0)
(0.0176207 1.3664 0)
(0.00935587 1.28804 -1.99169e-20)
(0.0115237 1.35602 4.88015e-21)
(0.0153459 1.35819 0)
(0.015392 1.28363 -1.48909e-20)
(0.0240208 1.21576 3.11616e-20)
(1.04042 0.0113577 0)
(1.04645 0.00762776 -6.94336e-20)
(1.03854 0.0210474 -5.00534e-19)
(1.04802 0.0199356 0)
(1.05194 0.0197929 0)
(1.03628 0.0114151 -6.6833e-21)
(1.03094 0.0112691 8.03763e-19)
(1.03176 0.0162032 9.74582e-19)
(1.02578 0.0201144 0)
(1.02294 0.0204989 0)
(1.03513 0.0247674 4.992e-19)
(1.02605 0.0260894 0)
(1.02431 0.0261224 0)
(-0.014654 2.02265 0)
(0.00683208 1.64954 -4.88211e-21)
(-0.0023495 1.75751 -2.27877e-20)
(0.00557782 1.36577 0)
(-0.00609908 1.54362 -4.67628e-21)
(0.00461856 1.44611 4.4675e-21)
(0.00389271 1.37489 0)
(0.390365 1.66707 0)
(0.366712 1.29774 -9.18853e-20)
(0.301569 1.34148 0)
(0.420311 1.29724 3.49449e-20)
(0.466429 1.45736 0)
(0.447397 1.4022 1.14179e-20)
(1.03612 2.68674 -1.55916e-20)
(0.966124 2.41149 -9.2134e-19)
(0.916872 2.19353 1.04958e-18)
(0.850555 2.37669 2.44355e-19)
(0.847917 2.49761 0)
(0.9178 2.49375 0)
(0.928217 2.37479 0)
(0.907117 2.36181 -9.5013e-19)
(0.689139 2.46502 -4.03554e-19)
(0.801491 2.45514 -9.93335e-20)
(0.812137 2.42888 7.56744e-20)
(0.695215 2.39269 0)
(0.800102 2.38872 0)
(0.75868 2.40104 -3.7138e-19)
(0.769292 2.48738 0)
(0.618737 1.0994 0)
(0.486395 0.925178 -5.11083e-19)
(0.558176 0.960174 -3.24963e-20)
(0.523607 1.05534 0)
(0.524639 1.00409 7.67253e-19)
(0.783976 0.880632 -1.3696e-19)
(0.791004 1.01794 0)
(0.765547 0.979062 1.99095e-19)
(0.651578 1.03599 0)
(0.656255 0.942753 0)
(1.16555 2.76093 -2.36881e-19)
(1.14333 2.82429 -1.00926e-19)
(0.932813 2.34364 1.06088e-19)
(0.900378 2.32224 -8.5207e-20)
(1.13054 2.73438 0)
(1.08387 2.70447 1.02572e-19)
(1.09054 2.48745 -3.22136e-19)
(0.984785 2.23673 -3.06969e-20)
(0.497634 1.35203 0)
(0.511796 1.07612 -1.2592e-19)
(0.56706 1.16846 0)
(0.857812 0.228723 0)
(0.78378 0.183197 0)
(0.723696 0.143827 0)
(0.852864 0.233514 -6.59702e-19)
(0.75629 0.219517 3.86386e-19)
(0.929672 0.0752351 -4.19541e-19)
(0.945288 0.121435 0)
(0.924844 0.135154 1.79876e-19)
(0.86347 0.110185 7.22107e-19)
(0.832178 0.0676972 -4.51825e-19)
(1.16146 3.35865 -7.18172e-19)
(1.20955 3.27795 0)
(1.15959 3.38685 -1.48149e-18)
(0.647248 3.54766 1.25843e-18)
(0.871615 3.11514 6.68547e-20)
(0.520462 0.842894 6.12096e-19)
(0.434108 0.839482 0)
(0.332926 0.468602 -1.54646e-19)
(0.45651 0.674132 8.78131e-19)
(0.539353 0.436141 -2.10989e-19)
(0.510765 0.49775 2.42299e-19)
(0.664727 0.522367 5.22612e-19)
(0.695684 0.547215 0)
(0.649033 0.60296 0)
(0.605968 0.544044 0)
(0.995007 0.601305 1.01563e-19)
(0.910028 0.537361 -5.46457e-19)
(0.936285 0.571593 4.15589e-19)
(0.969618 0.508155 -4.22226e-19)
(1.07503 0.480817 0)
(1.08174 0.570425 -1.05462e-19)
(0.847825 0.389594 -8.74368e-19)
(0.850582 0.378435 -1.0805e-18)
(0.794928 0.379277 6.81926e-19)
(0.793502 0.350498 -6.972e-19)
(0.842644 0.31205 -5.45109e-19)
(0.793415 0.310012 6.69019e-19)
(1.02669 0.00572054 -5.06799e-19)
(1.02641 0.00594544 1.03221e-18)
(1.02932 -0.000107625 6.42241e-19)
(1.03342 0.000779201 -7.73505e-19)
(1.03356 0.00867866 0)
(1.03006 0.00930616 -1.25826e-18)
(0.063995 1.64461 2.72393e-20)
(0.0457995 1.57655 0)
(0.0851282 1.6952 1.67958e-19)
(0.0951759 1.67698 -1.48933e-19)
(0.0872744 1.52948 4.91459e-20)
(0.0865078 1.51355 0)
(0.0161382 1.67367 0)
(0.00389699 1.47769 -8.3122e-22)
(0.00636134 1.4215 7.47596e-22)
(-0.000297082 1.53769 5.48151e-21)
(0.00435568 1.88023 -1.44954e-21)
(-0.00605383 1.93225 4.47587e-21)
(0.497066 1.37086 -2.85498e-19)
(0.490287 1.37428 3.13194e-19)
(0.445344 1.29435 -4.33054e-20)
(0.434911 1.29231 8.49245e-21)
(0.627555 1.2997 0)
(0.544457 1.38784 8.86668e-20)
(0.559968 1.39579 -8.63215e-20)
(0.456165 1.28031 4.21028e-20)
(0.511559 1.23532 0)
(0.564111 1.20243 0)
(0.655732 2.42394 5.92953e-19)
(0.670065 2.46159 1.28543e-18)
(0.715943 2.4733 -8.85507e-19)
(0.614413 2.44833 -2.07545e-19)
(0.560462 2.54057 2.89221e-19)
(0.509587 2.51384 -7.70766e-19)
(0.97697 2.38096 -5.87404e-19)
(1.01311 2.39435 0)
(0.923523 2.17167 -6.80151e-19)
(1.05407 2.68382 0)
(1.05632 2.67061 0)
(0.610994 2.27108 -1.21114e-19)
(1.04243 3.16168 1.32095e-19)
(0.913428 3.03165 -3.55844e-20)
(0.279014 0.899601 0)
(0.316221 0.756513 -3.23012e-19)
(0.478719 0.713961 -3.25498e-19)
(0.388054 2.01745 0)
(0.46665 2.78411 -4.65396e-20)
(0.422359 2.54778 0)
(0.698088 0.674494 -8.67135e-19)
(0.781562 0.677144 1.1797e-18)
(0.80161 0.619727 -1.16764e-18)
(0.67732 0.636806 -1.12117e-19)
(0.732913 0.589861 -4.63855e-19)
(1.00503 2.76415 -1.00447e-19)
(1.04297 2.82157 -1.69194e-19)
(0.639515 2.14497 6.76608e-19)
(0.596353 1.71227 -4.81993e-19)
(0.700273 1.90571 -4.10563e-19)
(0.990929 2.44769 -1.14296e-19)
(0.996057 2.44073 3.02403e-19)
(0.660412 1.84314 2.84531e-20)
(0.45245 1.3333 1.4743e-19)
)
;

boundaryField
{
    wall-4
    {
        type            noSlip;
    }
    velocity-inlet-5
    {
        type            fixedValue;
        value           uniform (1 0 0);
    }
    velocity-inlet-6
    {
        type            fixedValue;
        value           uniform (0 3 0);
    }
    pressure-outlet-7
    {
        type            zeroGradient;
    }
    wall-8
    {
        type            noSlip;
    }
    frontAndBackPlanes
    {
        type            empty;
    }
}


// ************************************************************************* //
