/*--------------------------------*- C++ -*----------------------------------*\
  =========                 |
  \\      /  F ield         | OpenFOAM: The Open Source CFD Toolbox
   \\    /   O peration     | Website:  https://openfoam.org
    \\  /    A nd           | Version:  13
     \\/     M anipulation  |
\*---------------------------------------------------------------------------*/
FoamFile
{
    format      ascii;
    class       volScalarField;
    location    "32";
    object      p;
}
// * * * * * * * * * * * * * * * * * * * * * * * * * * * * * * * * * * * * * //

dimensions      [0 2 -2 0 0 0 0];

internalField   nonuniform List<scalar> 
918
(
0.525672
1.1763
0.0179606
0.524955
-0.0180079
1.14334
-0.533082
0.696601
0.505786
-0.11847
-0.0568618
0.499728
1.00403
0.771794
-1.16064
0.0613925
0.647621
-0.410519
0.504781
-0.157373
0.729383
0.512399
0.515435
0.506026
0.566039
0.752004
0.885131
-0.0637825
0.00506817
-0.0362968
-0.0594572
-0.0681231
-0.0477153
1.02697
1.07808
1.10077
0.474267
0.300586
-0.391977
-0.463767
-0.454755
-0.58193
0.688279
0.69032
-0.199888
0.697107
0.706953
0.49305
0.505149
0.506045
0.507154
0.506095
0.507499
0.384649
-0.127099
-0.156525
-0.0968008
-0.0895206
0.0608585
-0.0582265
-0.0633791
-0.0558867
-0.0653928
0.426215
0.495995
0.493083
0.504358
0.511891
1.11585
1.08775
1.1139
1.02765
1.04411
0.981976
0.954587
0.791168
0.812828
0.758596
0.745525
-1.59892
-2.56216
-0.564257
-0.309502
-0.0489893
0.0785841
0.0683771
0.638291
0.638557
0.648411
0.660841
1.04723
-0.406413
-0.532363
0.504926
0.503715
0.512101
0.512791
0.508801
0.507895
-0.158974
-0.140719
-0.125898
-0.156336
-0.140829
0.718136
0.717074
0.506571
0.503592
0.519383
0.539317
0.531457
0.260619
0.571037
0.585884
0.573663
0.740354
0.735801
0.743916
0.85866
0.822871
0.922103
0.945222
-0.0394084
-0.0412054
0.0912804
0.0273739
0.0573535
0.470235
0.463004
0.488848
0.477607
0.48001
0.215784
0.0801449
0.386998
0.412485
-0.30256
-0.36579
-0.466749
-0.485777
-0.597302
0.56927
0.676421
0.677368
-0.21942
-0.139822
-0.277457
-0.0663853
-0.128112
0.483509
0.490371
0.48546
0.500787
0.495304
0.497237
0.509371
0.506458
0.508013
0.447661
0.571902
0.311671
0.278466
-0.270872
-0.175132
-0.272538
-0.0781524
-0.0724111
0.0653661
0.0832908
0.053335
0.0434777
-0.0705104
-0.0648572
-0.0700139
-0.0755147
-0.0820946
0.419104
0.408588
0.438184
0.445132
0.486739
0.487773
0.4907
0.489395
0.905254
0.927664
0.93526
0.908969
-3.56428
-6.36966
0.0199797
0.159094
-0.0922881
-0.101128
-0.0528804
-0.0657065
-0.0483313
-0.0175627
0.0345429
0.0305244
0.0438371
0.05443
0.623092
0.623005
0.964065
0.960682
0.948393
0.898595
0.49296
0.495091
0.500654
0.4965
-0.0992803
-0.127542
-0.110561
0.705159
0.712442
0.712171
0.224472
0.140452
0.308647
0.335874
0.608882
0.591313
0.605918
0.635523
0.673541
0.952691
0.971002
0.969148
0.97758
1.02156
1.03792
1.00338
0.450592
0.46005
0.455314
0.492121
0.48977
0.490744
0.486038
0.487667
0.485389
-0.0723771
-0.456804
0.471558
0.487447
0.46168
0.47109
0.645499
0.716915
0.660021
0.668748
0.669169
-0.000326396
-0.057875
0.233967
0.200715
0.362105
0.396576
0.37668
0.876526
0.83688
0.886961
0.860202
0.821372
0.847192
-0.408749
-1.92396
-1.03441
0.515431
0.325793
0.414995
0.0306672
0.0216957
0.0321248
0.952563
1.03223
0.628606
0.791801
0.802175
0.709104
0.739106
0.79701
0.724643
0.758095
0.790671
0.769291
0.526683
0.484112
0.486852
0.784755
0.839923
0.113927
0.0601416
0.0158297
0.102546
0.158278
0.135971
0.9991
0.897133
0.969262
0.503337
0.504024
-0.118866
-0.141121
0.508134
0.508155
-0.0808852
-0.0428963
0.396563
-0.870394
0.102682
0.49658
0.486917
0.503793
-0.105893
0.341036
-0.0585714
0.055063
0.0183064
0.497041
0.435851
0.397635
-0.191524
0.0299443
-0.14594
-0.233649
0.501009
0.499322
0.503259
0.504267
0.504919
-0.23342
-0.18801
-0.17085
-0.199613
-0.184989
-0.177245
0.46866
0.485548
-0.187105
0.503376
0.50552
0.505328
0.498483
0.504135
0.502382
-0.0155822
-0.023376
0.0185277
0.210412
0.32822
0.644052
0.740022
0.609128
0.382257
0.143295
0.543581
0.609204
0.511449
0.670301
0.669762
0.688222
0.165136
0.017374
0.173382
0.116803
0.494454
0.49311
0.485168
0.482289
0.498669
0.496763
0.501307
0.498256
0.501219
0.50266
-0.0617746
-0.0798521
-0.103377
-0.161268
0.299701
0.559944
0.235403
0.267425
0.138595
-0.0489268
-0.0528516
-0.0586664
-0.0676439
-0.0121129
-0.00389704
0.0461367
0.0564123
0.0383231
0.0140403
-0.0127261
-0.0161184
-0.0222347
0.490982
0.489815
0.49571
0.503693
0.444918
0.448841
0.41545
0.435136
0.421037
0.362486
0.396859
0.371977
-0.0855383
-0.162503
-0.0982946
0.00807341
0.0249673
-0.214628
-0.265221
-0.2278
-0.206177
-0.22521
-0.129094
-0.133065
-0.194181
-0.308422
0.950954
0.892161
0.0886146
0.490241
0.496622
0.493445
0.498213
0.501299
0.502177
0.499927
0.49646
0.486176
0.487969
0.484294
0.484844
-0.127021
-0.264166
-0.0885856
-0.15573
0.109325
0.601503
0.341716
0.282691
0.276301
0.496819
0.892063
0.688643
0.686487
0.709965
-0.374746
0.021783
-0.307596
0.310202
0.132889
0.642551
0.691967
0.713909
0.661791
0.613539
-0.143203
0.515899
-0.0756016
-0.0309998
0.160898
0.0537849
0.687461
0.653072
0.658249
0.675477
0.694138
0.658768
0.637845
0.632464
0.671983
0.6774
0.471658
0.243225
0.198626
0.160401
0.636902
0.512863
0.570999
0.484343
0.489351
0.49218
0.490757
0.473354
0.48057
0.476333
0.482036
0.485192
0.494387
0.494723
0.490165
0.49234
-0.0661863
-0.0709217
-0.0469971
-0.158642
-0.145963
-0.203784
-0.0878353
0.0463504
0.0133429
0.202851
0.309585
0.0213713
-0.0917183
-0.0614612
-0.0328876
0.147097
0.172554
0.0564105
0.154548
0.133308
0.120902
0.221558
0.230281
-0.0348061
-0.0392279
-0.048435
-0.0465358
0.0219478
0.0903924
0.10309
-0.0203929
-0.0124913
-0.0467009
-0.0652891
-0.0355324
-0.0395815
-0.0348324
0.00149354
-0.120655
-0.0335084
-0.0212952
-0.018331
0.000427085
-0.0061348
0.484828
0.486645
0.486464
0.493567
0.509771
0.524534
0.486464
0.466723
0.4578
0.460776
0.43498
0.444779
0.441368
0.453578
0.473689
0.48188
0.480236
0.482708
0.466069
0.467616
0.455261
0.458533
0.435501
0.417144
0.405719
-0.14463
-0.13382
-0.149769
-0.102535
-0.102822
-0.0848639
0.0173007
0.0122144
0.00926291
0.0117505
0.0146205
-0.176833
-0.180116
-0.104855
-0.0276166
-0.212548
-0.245102
-0.315262
0.857015
0.973245
0.783234
0.561558
0.569471
0.80684
0.895002
0.525373
0.70449
0.730963
0.541443
0.800739
0.495041
0.494585
0.492229
0.491721
0.492944
-0.0394208
0.0602449
0.0710672
0.124996
0.241565
0.355679
0.274951
0.146866
0.281026
0.287206
0.596196
0.612343
0.558963
0.582829
0.580362
0.408611
0.485928
0.541588
0.494293
0.540057
0.562364
0.522901
0.553288
0.499328
0.456528
0.455267
0.401519
0.422272
0.400396
0.3826
0.484577
0.462637
0.473033
0.463624
0.483269
0.509627
0.504335
0.530947
0.542299
0.468739
0.429
0.4386
0.466829
0.427498
0.440352
0.455937
0.192405
0.0927431
0.176696
-0.115936
-0.0350206
-0.0505053
-0.0972956
-0.0515527
0.234822
-0.464317
-0.437729
-1.07098
0.456564
0.923575
0.641645
0.612754
0.689706
0.668078
0.670743
0.693707
0.701038
0.626627
0.644214
0.64855
0.603098
0.627125
0.648964
0.647517
0.489236
0.364288
0.355195
0.316181
0.192394
0.225423
0.428142
0.350131
0.277444
0.281955
0.44427
0.333942
0.399973
0.438207
0.369941
0.325234
0.527652
0.594572
0.584976
0.560544
0.47601
0.488517
0.514095
0.549873
0.577013
0.608872
0.481838
0.487667
0.488934
0.486481
0.483632
0.486501
0.486546
0.489093
0.48996
0.492877
0.491862
-0.0635292
-0.0529756
-0.0581438
-0.0668687
-0.0373465
-0.0449157
0.000604816
-0.0118125
-0.024341
-0.0164224
-0.044477
-0.0495485
-0.0407509
-0.0328783
0.0765218
0.0918229
0.0772153
0.0334984
0.215394
0.348123
0.415794
0.295183
0.188726
0.212858
0.238558
-0.0257042
0.0117994
-0.00659615
0.034189
0.0177234
-0.0462066
-0.0545401
-0.0613365
-0.029272
-0.0259573
-0.0718473
-0.113978
-0.0859777
-0.0823219
-0.0695071
-0.0946383
0.468929
0.462542
0.463773
0.457914
0.456752
0.470293
0.474451
0.476192
0.481403
0.483207
0.473955
0.479295
0.482721
-0.0490339
-0.128555
-0.0949847
-0.0815006
-0.113557
-0.138778
-0.118563
0.0829617
0.00888596
0.0149086
-0.0264258
-0.150077
-0.0944171
0.449092
0.448666
0.454851
0.674504
0.526458
0.446796
0.543602
0.647869
0.229937
0.430453
0.262299
0.843995
0.735563
0.880117
0.500472
0.204775
0.359544
0.409143
0.218565
0.291373
0.295597
0.185618
0.217696
0.248738
0.348112
0.228806
0.203625
-0.0391895
0.148101
0.265717
0.246375
0.376151
0.440337
0.221043
0.143736
0.0976279
0.588488
0.608328
0.627418
0.597112
0.621898
0.544229
0.535954
0.553995
0.561919
0.555992
-0.799071
-0.506683
-1.45164
-0.766812
-0.316954
0.486616
0.450931
0.724885
0.614832
0.679942
0.665555
0.626419
0.592363
0.603918
0.636426
0.337839
0.44747
0.422003
0.428144
0.330967
0.264386
0.563228
0.55684
0.592985
0.61723
0.584366
0.617859
0.479652
0.479325
0.478753
0.47539
0.473971
0.476031
0.0401732
0.0114672
0.0431048
0.0206916
-0.00136682
-0.0106274
-0.0219789
-0.0358691
-0.0524759
-0.0703435
-0.0457849
-0.0214961
0.124414
0.0665754
-0.00972924
0.0199144
-0.0373147
-0.102433
-0.121504
-0.0230884
0.067914
0.0595271
0.362345
0.613399
0.43591
0.605058
0.443532
0.499336
0.445652
0.436198
0.466406
0.344751
0.422331
0.186853
-0.316571
-0.225489
0.741094
0.759812
0.543271
0.356862
0.127308
0.316002
0.51649
0.453511
0.492395
0.560962
0.553186
-0.0267693
0.0402081
0.301655
0.529956
0.197718
0.188424
0.183763
0.358437
0.282437
)
;

boundaryField
{
    wall-4
    {
        type            zeroGradient;
    }
    velocity-inlet-5
    {
        type            zeroGradient;
    }
    velocity-inlet-6
    {
        type            zeroGradient;
    }
    pressure-outlet-7
    {
        type            fixedValue;
        value           uniform 0;
    }
    wall-8
    {
        type            zeroGradient;
    }
    frontAndBackPlanes
    {
        type            empty;
    }
}


// ************************************************************************* //
