/*--------------------------------*- C++ -*----------------------------------*\
  =========                 |
  \\      /  F ield         | OpenFOAM: The Open Source CFD Toolbox
   \\    /   O peration     | Website:  https://openfoam.org
    \\  /    A nd           | Version:  13
     \\/     M anipulation  |
\*---------------------------------------------------------------------------*/
FoamFile
{
    format      ascii;
    class       volVectorField;
    location    "32";
    object      U;
}
// * * * * * * * * * * * * * * * * * * * * * * * * * * * * * * * * * * * * * //

dimensions      [0 1 -1 0 0 0 0];

internalField   nonuniform List<vector> 
918
(
(0.985167 -0.000495931 0)
(0.00501103 2.96625 0)
(-0.0520322 1.02193 0)
(0.979699 0.0021527 0)
(-0.041525 1.27071 6.35342e-20)
(-0.00704142 2.94879 -2.44692e-18)
(0.833404 1.17759 4.69011e-19)
(0.342665 0.157206 -1.54531e-20)
(0.999906 -0.000292868 0)
(0.0543153 0.852864 0)
(0.00686159 0.679714 0)
(0.734439 -0.0107237 0)
(0.0110955 2.93037 0)
(0.00239733 2.79466 0)
(-0.0176295 3.1575 8.10983e-19)
(-0.110152 1.71665 -6.28015e-20)
(0.420056 0.0522439 1.01012e-18)
(0.189738 1.19499 3.44301e-19)
(0.96278 0.00503215 0)
(-0.0228702 0.64753 0)
(0.0817375 0.196555 -7.29167e-19)
(1.00198 -0.00498377 0)
(1.00022 -0.00979992 0)
(0.975713 -0.0064391 0)
(0.590227 -0.0414977 0)
(0.0161326 2.63814 0)
(-0.0149228 2.91006 8.98826e-19)
(-0.090229 0.898413 0)
(-0.197911 1.2062 0)
(-0.0705125 0.947518 0)
(-0.201198 2.45842 0)
(-0.0306937 1.42271 -4.9989e-20)
(-0.0743667 1.13511 0)
(-0.0206202 2.98759 -8.7885e-23)
(-0.0166929 3.0053 1.90184e-18)
(0.0021032 3.00019 0)
(0.870392 -0.00945486 0)
(0.404309 0.938386 1.58344e-19)
(0.81468 1.19348 -5.39585e-19)
(0.964467 1.03256 5.75381e-19)
(0.684389 1.28681 -1.08382e-19)
(0.683313 1.27119 6.2716e-19)
(0.383213 0.244021 1.50759e-20)
(0.361691 0.127407 0)
(1.14395 0.556435 0)
(0.345939 0.244899 6.89675e-20)
(0.303659 0.163859 -7.15724e-20)
(0.919661 -0.00746639 0)
(1.00027 0.000132804 0)
(0.99991 0.000327624 0)
(1.00364 -0.00778011 0)
(1.00096 -0.000927846 0)
(1.00017 2.72707e-05 0)
(0.0776115 1.78909 -7.36312e-19)
(0.0298013 1.00852 0)
(0.0839487 0.912608 0)
(0.0285237 0.953447 0)
(0.0275834 0.782359 0)
(0.0288272 2.00511 0)
(-0.0204284 0.816401 0)
(0.0106348 0.672593 0)
(-0.00853788 0.809236 0)
(-0.00570625 0.666506 0)
(0.835948 -0.014828 0)
(0.851652 0.0269482 0)
(0.768396 -0.00112788 0)
(0.825949 0.0355767 0)
(0.701863 -0.0150899 0)
(0.0146927 3.0004 9.06714e-19)
(0.0115097 3.00796 0)
(0.0061252 3.0028 0)
(0.0135346 2.99734 1.02826e-23)
(0.00798544 2.95848 -1.3476e-18)
(0.014479 2.98206 0)
(0.0108094 2.90364 0)
(0.0248493 2.93067 2.05501e-24)
(0.00445032 2.82478 0)
(0.030684 2.91607 0)
(-0.00568351 2.74491 0)
(0.308527 3.55444 0)
(-0.131932 3.63601 0)
(0.139704 3.24794 -7.54714e-19)
(-0.0124112 2.98301 0)
(-0.319746 2.28838 0)
(-0.117691 1.87704 6.47574e-20)
(-0.0843148 1.86381 -5.13102e-20)
(0.503386 0.149914 -3.49317e-19)
(0.418722 0.0302398 -3.37521e-19)
(0.488107 0.173476 -1.05238e-18)
(0.40439 0.0741714 -6.95527e-19)
(0.216528 0.929267 0)
(0.271543 1.33301 -4.02577e-19)
(0.378847 1.2781 6.71655e-19)
(0.987485 0.00853547 0)
(0.941939 0.00584702 0)
(1.0003 0.00057414 0)
(1.00287 0.00930015 0)
(1.00303 0.00846173 -2.58396e-18)
(0.991918 0.00969814 1.95133e-18)
(-0.0013313 0.773548 0)
(-0.00828168 0.626343 0)
(-0.0797002 0.90055 0)
(-0.0139458 0.77623 0)
(0.00773808 0.653737 0)
(0.128172 0.204243 2.2551e-19)
(0.183853 0.182759 0)
(0.993531 -0.00839538 0)
(0.954388 -0.00653037 0)
(0.779127 0.0430861 0)
(0.720771 0.0522358 0)
(0.659528 -0.0315008 0)
(0.948807 -0.00808606 0)
(0.643691 0.0643992 0)
(0.475611 -0.0205258 1.45198e-18)
(-0.0366933 2.86372 6.54715e-19)
(0.0422489 2.90904 0)
(0.0546093 2.88487 0)
(-0.00457886 2.69884 0)
(-0.0132851 2.98521 8.50307e-19)
(-0.0180201 2.89523 0)
(-0.0153685 2.98812 -2.63816e-18)
(-0.0133669 2.9252 9.03252e-19)
(-0.271973 1.22141 0)
(-0.295844 1.43414 0)
(-0.137593 1.69992 -1.57895e-21)
(-0.148554 1.50868 0)
(-0.108006 1.46556 0)
(0.93765 -0.00761609 0)
(0.855851 -0.00957311 0)
(0.863661 0.00678635 0)
(0.94895 -0.00805814 0)
(0.883472 -0.00812402 0)
(0.516501 1.1322 -2.01249e-19)
(0.566067 1.1837 0)
(0.368129 0.882713 3.07559e-20)
(0.310303 0.742663 0)
(0.923964 1.07069 -1.58279e-19)
(1.03694 0.873657 3.164e-19)
(0.373551 1.37967 0)
(0.536351 1.35018 0)
(0.546151 1.30391 0)
(0.109114 0.181971 -2.81654e-19)
(0.417962 0.226146 0)
(0.385598 0.11553 1.96339e-19)
(1.00681 0.927801 0)
(1.07211 0.775307 0)
(1.09772 0.717172 -2.43624e-19)
(1.12386 0.61656 0)
(1.16904 0.400229 5.54556e-20)
(0.957364 -0.00890566 0)
(0.962278 -0.0101157 0)
(0.90134 -0.00798917 0)
(0.98415 -0.009186 0)
(0.974593 -0.00937751 0)
(0.937008 -0.00641226 0)
(1.00019 0.00233281 0)
(1.00091 0.00140454 0)
(0.999911 0.000847159 0)
(0.035369 2.0533 4.09633e-19)
(0.119876 1.72946 0)
(0.0153966 2.16748 6.23311e-19)
(0.0538827 1.84969 -5.17522e-19)
(0.110151 1.19622 -2.82467e-19)
(0.0458546 1.08068 0)
(0.141857 1.06083 0)
(0.0174804 0.909938 0)
(0.023268 0.723851 0)
(-0.0113758 2.18818 -8.46643e-22)
(0.0382796 1.99862 0)
(-0.0117059 2.1619 -4.21652e-20)
(0.0254389 2.00107 7.42786e-20)
(0.0205224 0.865267 0)
(0.000633578 0.828699 0)
(0.016412 0.691316 0)
(-0.0102531 0.793017 0)
(-0.0274045 0.648881 0)
(0.933792 0.00847178 0)
(0.843064 -0.015102 0)
(0.924444 -0.000426319 0)
(0.838612 -0.0119257 0)
(0.813194 0.00291442 0)
(0.903097 0.0189047 0)
(0.880744 0.0230428 0)
(0.790001 0.00166853 0)
(0.00582742 3.06495 -8.43888e-21)
(0.0166099 3.05777 0)
(0.0146981 2.96908 0)
(0.00865122 2.87629 0)
(0.925711 3.97108 0)
(1.24053 3.30318 9.42449e-19)
(0.0703776 3.07512 0)
(-0.0280256 2.90583 0)
(-0.324834 1.54209 0)
(-0.355648 2.19949 0)
(-0.354369 1.89945 0)
(-0.241639 2.48852 -6.00437e-20)
(-0.281418 2.44374 0)
(-0.254247 2.41927 0)
(0.00159981 1.97627 -3.86298e-21)
(-0.0371255 2.05284 2.8535e-20)
(-0.0728765 1.99461 5.17557e-20)
(-0.0230545 1.93268 0)
(0.530686 0.122702 5.22679e-19)
(0.434097 0.00694915 -5.13055e-19)
(0.261189 1.56188 0)
(0.265044 0.705383 -3.00643e-19)
(0.178094 1.64751 -1.01445e-18)
(0.225974 1.17627 1.01708e-18)
(0.902416 0.00662821 0)
(0.967571 0.0109485 0)
(0.974647 0.0107362 0)
(0.923538 0.00653069 0)
(0.00174621 0.780093 0)
(-0.00714358 0.773101 0)
(-0.00806284 0.621129 0)
(0.29329 0.239068 6.32878e-19)
(0.239697 0.218117 -7.49276e-19)
(0.253375 0.175923 0)
(1.07448 0.0843079 2.54177e-20)
(1.05578 0.0389148 0)
(0.992726 0.0381293 0)
(0.889973 -0.00713916 0)
(0.554228 0.0957094 0)
(0.584293 0.0727342 -2.326e-18)
(0.450588 -0.00313388 8.75382e-19)
(0.00920678 2.98172 7.0922e-19)
(-0.0321078 2.86665 4.8658e-20)
(0.00363422 3.05025 -1.78782e-20)
(0.020133 3.04338 6.36099e-19)
(-0.0149989 2.99657 2.96748e-20)
(-0.0129476 2.94944 -1.19454e-22)
(-0.0172627 3.01197 -5.49613e-19)
(0.0148279 3.02393 3.978e-19)
(0.00734844 3.0368 -6.29851e-19)
(0.932022 -0.00255329 0)
(0.938076 -0.00389521 0)
(0.843349 -0.00858663 0)
(0.956869 0.0115913 0)
(0.943303 0.0127931 0)
(0.881986 0.00628548 0)
(0.918849 0.0155752 0)
(0.926947 0.0142869 0)
(0.83925 0.00469334 0)
(0.720103 1.41108 7.35087e-20)
(0.753763 1.52035 0)
(0.195202 0.340587 6.78674e-20)
(0.212491 0.650541 5.4654e-19)
(0.257684 0.717803 -3.15134e-19)
(0.268965 0.5457 6.24155e-19)
(0.322416 0.76776 1.48377e-18)
(0.126767 0.214469 3.49376e-19)
(0.463532 0.197315 7.39137e-19)
(0.439919 0.213336 1.90753e-19)
(0.396385 0.0993835 3.67798e-19)
(1.15847 0.4583 5.58292e-20)
(1.16943 0.252853 5.17767e-20)
(0.00466627 2.20672 2.38214e-19)
(0.0518528 1.91858 0)
(0.958182 0.0267081 0)
(0.935993 0.0117601 0)
(0.857018 -0.0184097 0)
(0.0112055 3.07432 0)
(0.0198066 2.9442 1.16223e-18)
(0.0164523 2.95634 0)
(0.00631003 2.85059 -1.15269e-18)
(0.00634342 3.09185 2.81808e-19)
(0.0071397 3.08248 0)
(0.786878 1.82322 -1.69745e-19)
(1.24828 2.50184 4.38866e-19)
(0.769031 1.96312 -1.27048e-18)
(0.020158 2.98192 -6.05964e-19)
(0.0359657 3.00226 0)
(-0.0336905 2.87867 0)
(-0.00984554 2.13826 -4.84712e-21)
(-0.0172959 2.10336 -4.83288e-20)
(0.0198403 1.99324 -3.91995e-21)
(0.27505 1.36863 9.79892e-19)
(0.21843 0.488397 -6.72361e-19)
(0.0626748 1.97713 7.43042e-19)
(0.136697 1.86635 -8.82625e-19)
(0.178664 1.46981 8.86489e-20)
(0.00533657 3.11793 -1.59302e-18)
(0.0146944 3.11838 1.71677e-18)
(-0.00909928 2.98061 7.82316e-19)
(-0.00343604 2.97734 -7.38375e-19)
(-0.0215317 2.88142 -7.9677e-19)
(0.00859996 3.09866 -2.09283e-18)
(0.00186676 3.10667 2.06923e-18)
(0.267161 0.674663 0)
(0.226137 0.663122 -1.12528e-18)
(0.100646 0.221838 4.98561e-19)
(0.340951 0.891176 1.0428e-18)
(0.181278 0.256196 -1.60723e-18)
(1.15954 0.172757 6.01078e-20)
(1.17029 0.307335 0)
(1.14689 0.120583 -7.02801e-21)
(-0.00832469 2.20517 -1.42684e-21)
(-0.000684321 2.21185 0)
(0.0390805 1.96227 0)
(0.337261 1.2727 -3.54044e-19)
(0.361436 1.09958 -7.61204e-19)
(0.194083 0.350029 1.35005e-18)
(1.00587 -0.0108751 0)
(1.00766 -0.00766413 4.76671e-19)
(-0.223575 1.23938 0)
(-0.15124 1.04282 0)
(1.00222 0.00347134 1.77738e-21)
(1.00365 0.00941896 9.73179e-19)
(-0.246006 2.50346 7.85349e-20)
(-0.248971 2.48686 0)
(0.0364373 3.17937 3.92306e-19)
(0.395681 3.49284 0)
(1.13379 0.652382 -5.82976e-20)
(1.01298 0.0130227 -2.15018e-21)
(1.02118 -0.0105096 0)
(1.00169 0.000116078 6.28546e-23)
(0.096739 1.35278 0)
(0.146642 2.58346 0)
(0.0249597 1.30136 0)
(-0.00034762 2.62218 3.21132e-20)
(-0.0295414 2.57335 2.24874e-20)
(1.00414 0.0273632 2.47696e-21)
(1.06166 0.00285107 0)
(1.09188 0.0175538 0)
(-0.294217 2.15806 0)
(-0.108136 2.54651 0)
(0.00278803 1.11773 0)
(0.281868 1.46364 -1.87839e-19)
(1.01124 -0.00968025 0)
(1.00939 -0.0149503 0)
(1.00235 0.000699807 6.0833e-19)
(1.00547 -0.00485261 -7.15906e-19)
(1.00117 -0.00102584 0)
(-0.233464 1.83663 0)
(-0.205596 1.2939 0)
(-0.270836 1.60277 0)
(-0.00653865 1.07688 0)
(-0.0231649 1.00015 0)
(-0.00682508 0.939128 0)
(1.03415 -0.0067243 0)
(1.0209 0.0157184 -9.73037e-22)
(0.794887 1.25859 2.74068e-19)
(1.00232 0.000274295 -6.08296e-19)
(1.00406 0.00521549 7.10413e-19)
(1.00117 0.00205357 0)
(1.01283 0.0102726 6.03109e-19)
(1.00807 0.00828136 -7.31464e-19)
(1.00861 0.0146917 0)
(-0.173102 2.57932 0)
(-0.237784 2.53844 -2.04246e-20)
(-0.206786 2.51376 2.66374e-21)
(1.20963 0.26014 5.54556e-19)
(1.14756 0.0781002 0)
(0.0456684 3.0779 -9.02484e-19)
(0.065903 2.85366 -6.63034e-20)
(0.142925 3.19416 1.37754e-18)
(0.137848 3.22287 -1.87129e-19)
(0.136419 3.23566 0)
(0.0197918 3.13762 2.30649e-19)
(0.077018 3.161 8.89814e-19)
(0.0699146 3.18696 -4.3533e-19)
(0.0228575 3.12952 0)
(0.659014 0.302762 0)
(0.576023 0.360512 0)
(1.10497 0.683801 1.33132e-19)
(1.10171 0.815091 -1.16608e-19)
(1.1631 0.570466 0)
(1.19269 0.512363 0)
(1.01621 0.0132254 -1.12406e-18)
(1.01499 0.0142171 1.41029e-18)
(1.02508 -0.0100204 0)
(1.02314 -0.0119256 0)
(1.00643 0.002624 0)
(1.01038 0.00366166 0)
(1.00454 0.00188378 0)
(1.00988 0.00603154 0)
(1.0079 0.00602306 0)
(1.00446 0.00461121 0)
(0.0880399 1.34846 0)
(0.0800773 1.31925 0)
(0.11436 1.3828 0)
(0.127152 1.40093 0)
(0.145113 2.60693 0)
(0.185937 2.66947 -4.11911e-19)
(0.0983336 2.66383 0)
(0.0878972 2.66481 1.85705e-19)
(0.0407825 2.68026 -1.46524e-19)
(0.0277817 1.29256 0)
(0.033153 1.22624 0)
(0.018006 1.32244 0)
(0.0396021 1.26995 0)
(-0.0117913 1.98747 1.05213e-20)
(-0.0333688 2.60262 -9.78102e-21)
(-0.00985601 2.66521 9.5664e-21)
(-0.0230945 2.67496 0)
(-0.0404623 2.60742 -3.92607e-20)
(-0.0360473 2.60203 -1.97579e-20)
(-0.00601322 1.98823 -7.93337e-21)
(-0.0290968 2.41227 1.31144e-20)
(-0.0232535 2.43065 -1.0853e-20)
(1.01297 0.0346729 1.13854e-18)
(1.00844 0.0170466 -1.41001e-18)
(1.00529 0.0414737 -1.14559e-18)
(0.984059 0.0227646 1.45618e-18)
(1.0625 0.00655471 0)
(1.04776 -0.00900994 0)
(1.08982 0.0287027 0)
(1.07146 0.00980474 0)
(1.06876 -0.00114413 0)
(1.13052 0.0709518 0)
(1.10381 0.035763 0)
(1.10558 0.0240111 0)
(-0.239032 2.52715 1.42841e-20)
(-0.261885 2.39645 0)
(-0.278738 2.4519 0)
(-0.10577 2.58 -8.3169e-21)
(-0.0423036 2.5713 -8.2891e-22)
(-0.0228585 1.92384 -2.83282e-19)
(-0.113455 1.80748 2.86455e-19)
(0.0494325 1.34971 0)
(-0.0260067 1.36361 0)
(-0.108037 1.35676 0)
(0.040217 1.12387 0)
(-0.0183311 0.997332 0)
(0.374558 1.47766 3.22311e-19)
(0.411225 1.48572 1.61322e-19)
(0.594944 2.45276 -2.27538e-19)
(0.404832 2.54631 6.66811e-19)
(0.355143 2.07767 5.68722e-20)
(1.02084 -0.00827373 0)
(1.0154 -0.00982992 0)
(1.01484 -0.0156393 0)
(1.00744 -0.00126457 0)
(1.00494 -0.000985507 0)
(1.00775 -0.0048 0)
(1.00922 -0.00383772 0)
(1.0141 -0.00454919 0)
(1.02159 0.0158777 1.09816e-18)
(1.01824 0.0158058 -1.40969e-18)
(1.02209 0.0177374 -1.10531e-18)
(1.01974 0.0164243 1.38602e-18)
(0.762917 1.30718 0)
(0.696609 1.36209 2.75037e-19)
(0.871346 1.20488 1.09036e-19)
(0.914648 1.15938 -1.45114e-19)
(1.15819 2.60881 1.89127e-19)
(0.816599 0.0950256 5.72869e-19)
(1.14742 0.0965141 0)
(1.18967 0.185091 -4.44215e-19)
(1.17459 0.150706 -1.86707e-20)
(1.00622 0.134453 0)
(0.139137 2.96257 5.00548e-19)
(0.115839 2.86856 -1.14398e-18)
(0.0272914 2.37002 7.7838e-19)
(0.0931314 0.00840461 -3.46962e-19)
(0.340477 3.42185 -2.36084e-19)
(0.195209 3.31444 0)
(0.237662 3.35672 3.07461e-19)
(0.24702 3.03575 -1.6947e-18)
(0.341567 3.19452 0)
(0.0061033 3.12091 4.54154e-20)
(0.0171064 3.12953 -5.36601e-19)
(0.0148698 3.12558 7.8978e-19)
(0.0356071 3.13992 0)
(0.033996 3.1508 0)
(1.21623 2.60863 0)
(0.531275 0.842825 -4.9822e-19)
(1.03313 0.98825 -1.05579e-20)
(0.971924 1.0588 0)
(0.816908 0.9589 -9.76934e-20)
(1.05643 0.87622 2.95618e-20)
(0.368249 0.41368 -8.99728e-19)
(0.701184 0.328207 -2.28409e-20)
(0.683247 0.25234 4.13442e-19)
(0.591622 0.393992 3.06634e-20)
(0.510655 0.369409 -1.23625e-18)
(0.672952 0.339794 0)
(0.700824 0.426483 6.98885e-19)
(0.708103 0.4257 0)
(0.629918 0.374973 0)
(0.607531 0.301526 0)
(0.785603 0.617161 3.99649e-19)
(1.20615 0.280176 -4.73809e-19)
(1.20199 0.416328 0)
(1.21377 0.364343 0)
(0.761074 0.194675 6.16486e-19)
(0.831387 0.537671 -3.7928e-19)
(0.737134 0.51445 6.65324e-19)
(0.932076 0.420261 -7.29088e-19)
(1.0199 0.0145796 7.56387e-19)
(1.01797 0.0140857 -7.61372e-19)
(1.01596 0.0156398 0)
(1.03558 -0.00627805 0)
(1.02941 -0.00886368 -7.11395e-19)
(1.02728 -0.012361 7.04344e-19)
(1.02512 0.00964659 0)
(1.02378 0.0130364 0)
(1.01138 0.00401988 0)
(1.01432 0.00886891 0)
(1.01507 0.00382171 0)
(1.01418 0.00270641 0)
(0.0648479 1.33297 0)
(0.0668186 1.29419 0)
(0.14679 1.3432 3.12617e-20)
(0.260944 1.46162 9.91143e-20)
(0.151679 1.43201 2.0563e-19)
(0.182321 1.44095 -3.37526e-19)
(0.162806 1.37122 0)
(0.129305 1.58949 -3.81466e-20)
(0.108543 1.55839 0)
(0.352864 2.03243 -8.26563e-20)
(0.350721 2.3651 5.81512e-19)
(0.18464 1.43925 3.3272e-20)
(0.26119 1.36732 4.05723e-20)
(0.19415 1.35257 -3.28183e-20)
(0.269735 1.30745 -5.12278e-20)
(0.23855 1.57343 0)
(0.261216 1.61528 7.3578e-20)
(0.0288663 2.27762 -2.08099e-20)
(0.0378539 2.67321 0)
(0.0625359 2.41345 1.11234e-19)
(0.057013 2.43434 0)
(0.0673838 2.67839 -2.05779e-19)
(0.0493607 2.70224 0)
(0.024752 1.42077 4.1389e-20)
(0.022293 1.46369 0)
(0.0231339 1.38607 0)
(0.0233401 1.39153 -4.67052e-20)
(-0.00256441 2.65128 -2.16837e-20)
(0.0258341 2.69785 1.63699e-19)
(0.0113621 2.71992 1.13767e-21)
(0.00612085 1.85681 -1.39052e-20)
(-0.0134654 1.65763 -4.71015e-21)
(0.0653381 1.24082 0)
(0.0430412 1.1216 0)
(0.0352312 1.57367 -4.57769e-20)
(0.0216259 1.44715 -5.05017e-20)
(0.0294361 1.51201 6.37221e-20)
(0.0328797 1.59598 0)
(-0.10466 2.41703 2.15504e-19)
(-0.123655 2.57364 -1.02024e-19)
(-0.0503329 2.50893 8.19041e-21)
(-0.015846 1.86475 1.67246e-20)
(-0.0616319 2.49645 3.35702e-21)
(-0.0215724 2.4436 1.70105e-20)
(1.0204 0.020314 -7.51131e-19)
(1.01698 0.0254651 7.53531e-19)
(1.01512 0.0163122 0)
(1.01674 0.0642901 1.03166e-18)
(0.995478 0.0554937 -1.18888e-18)
(0.957441 0.0430445 1.33165e-18)
(1.01748 0.0990899 -1.41299e-19)
(1.0418 -0.006374 0)
(1.04975 -0.00230589 6.77174e-19)
(1.03802 -0.0104979 -6.79634e-19)
(1.06938 0.0375103 -4.02521e-20)
(1.06329 0.0203478 3.47706e-19)
(1.06148 0.0484509 0)
(1.05439 0.0423349 -1.24784e-19)
(1.03241 0.0384572 0)
(1.02636 0.0349095 0)
(1.02767 0.0125192 0)
(1.02439 0.015331 0)
(1.03859 0.0293278 2.57357e-19)
(1.03864 0.0250568 -5.68811e-19)
(1.05054 0.0311221 -2.73256e-19)
(1.0471 0.031145 -3.001e-19)
(1.06878 0.0543966 5.86603e-19)
(1.09081 0.0423776 0)
(1.0976 0.0866561 0)
(-0.0996694 2.4317 1.64773e-19)
(-0.199892 2.34973 1.93188e-20)
(-0.153416 2.34518 0)
(-0.179642 2.52573 -1.64519e-19)
(-0.23849 2.52764 -3.17963e-20)
(-0.209648 2.53076 1.52721e-20)
(-0.0423692 2.60945 1.78825e-20)
(-0.0765005 2.5512 -1.01099e-21)
(-0.0490994 2.52746 4.76919e-21)
(-0.0547741 2.59419 -8.48796e-21)
(-0.0477503 2.59927 1.02622e-20)
(0.104971 1.59462 8.6659e-21)
(0.0618219 1.89495 -1.98864e-19)
(0.364545 1.41694 -1.41636e-19)
(0.362412 1.35742 -1.944e-20)
(0.643957 1.40749 -2.65953e-19)
(0.510616 1.47218 -1.56017e-19)
(0.562531 1.4456 0)
(0.590699 2.42776 2.0117e-19)
(0.657781 2.41873 3.23825e-19)
(0.410818 2.52245 8.14798e-20)
(0.405355 2.5554 -5.6993e-19)
(0.515242 2.50461 5.6428e-19)
(0.549549 2.46626 0)
(0.488255 2.5192 -5.37755e-19)
(0.247738 2.59604 1.10733e-18)
(0.353414 2.57121 -8.25905e-20)
(0.28455 2.65671 -1.52694e-18)
(0.938563 2.38268 6.6796e-19)
(0.832305 2.38754 0)
(1.011 0.000340544 2.46552e-20)
(1.01535 -0.00557268 -2.00852e-20)
(1.01755 -0.00369255 -3.65578e-19)
(1.01491 -0.00114575 3.67869e-19)
(1.01234 0.000868794 0)
(0.632134 1.27514 0)
(0.653257 1.17053 0)
(0.753586 1.07819 0)
(0.644265 1.1378 0)
(1.1865 2.62378 5.92403e-20)
(1.0767 2.36828 0)
(0.842028 2.18899 3.16887e-21)
(0.828126 2.45734 0)
(0.923218 2.54536 -3.67169e-19)
(0.959714 2.49991 2.44538e-19)
(0.827481 0.146966 0)
(0.798699 0.130061 1.57721e-19)
(0.924793 0.124606 9.02238e-19)
(0.846964 0.120418 -3.4159e-19)
(0.826669 0.0626111 -1.04015e-18)
(1.06702 0.222283 -8.59833e-19)
(0.986778 0.277776 -1.55921e-20)
(0.913291 0.273337 8.41869e-19)
(1.00028 0.205506 6.97247e-19)
(0.94906 0.165497 -1.19685e-18)
(0.918077 0.170183 1.50095e-19)
(0.946963 0.233283 -3.20296e-19)
(0.925951 0.194236 0)
(0.995647 0.16676 5.89437e-19)
(1.04314 0.171488 0)
(1.03981 0.198046 0)
(1.09615 0.107343 2.74055e-19)
(1.07014 0.16189 -1.35923e-20)
(1.06099 0.225914 -1.49351e-19)
(1.09224 0.193679 0)
(1.02291 0.0427821 5.82335e-19)
(1.04234 0.0526432 7.23621e-19)
(1.033 0.0402948 -5.77907e-19)
(1.0432 0.0576031 -4.84889e-19)
(1.01763 0.0656921 -7.30183e-19)
(0.99183 0.139837 0)
(1.0021 0.0943622 0)
(0.973237 0.0602901 -4.74401e-19)
(0.925446 0.0779211 1.87625e-19)
(1.04095 0.0936878 6.72134e-19)
(1.06926 0.108762 -7.91649e-19)
(1.07414 0.140904 7.0816e-19)
(1.03442 0.130971 0)
(1.07449 0.0954724 0)
(1.05968 0.0784276 -3.21982e-19)
(1.04818 0.0867229 -5.50077e-19)
(0.584334 1.08396 1.12614e-19)
(0.614207 1.4125 -1.45404e-20)
(1.15739 2.74092 -1.88565e-19)
(1.22375 3.08223 -7.56253e-21)
(1.24961 2.72295 -4.8574e-20)
(1.27966 2.70684 -6.7934e-20)
(1.20796 2.34702 -1.00197e-20)
(1.211 2.98601 -5.78946e-20)
(1.23051 2.95102 1.79938e-19)
(1.2148 3.23604 -1.59779e-19)
(1.376 2.96772 2.20991e-19)
(1.36667 2.88606 0)
(0.538525 0.849765 -4.53797e-20)
(0.13929 1.26155 5.50659e-19)
(0.527622 0.469873 5.83154e-19)
(0.361872 0.221214 6.41868e-19)
(0.530705 0.399123 6.96803e-19)
(0.539108 0.487749 -1.14446e-18)
(0.542161 0.494433 9.35756e-19)
(0.496331 0.419336 -3.5162e-19)
(0.424983 0.357358 8.00844e-19)
(0.764477 0.251525 -3.52165e-19)
(0.724535 0.289593 0)
(0.719914 0.222751 9.9162e-21)
(0.717453 0.51365 3.67257e-19)
(0.689415 0.484831 -1.33955e-18)
(0.60979 0.487114 1.6547e-20)
(0.623925 0.46879 0)
(0.665898 0.738835 3.74699e-19)
(0.813495 0.769847 3.70012e-19)
(0.742408 0.85363 -4.33739e-19)
(0.855396 0.801509 -1.48847e-19)
(0.889022 0.843397 -3.53688e-20)
(0.89737 0.844842 3.62024e-20)
(0.825202 0.643156 -6.64711e-19)
(0.901967 0.69727 1.38295e-19)
(0.959913 0.711375 0)
(0.949403 0.68753 -1.91316e-19)
(1.01214 0.318762 2.08321e-19)
(1.12029 0.290181 2.79678e-19)
(1.05162 0.260542 3.51326e-19)
(0.993786 0.352351 -4.20421e-19)
(1.03386 0.419058 0)
(1.08726 0.405968 0)
(0.901122 0.349038 4.64278e-21)
(0.838917 0.282645 0)
(0.862778 0.275491 3.98325e-19)
(0.897762 0.279754 -6.20604e-21)
(0.923522 0.423499 2.0303e-18)
(0.879655 0.484955 5.23282e-19)
(0.885357 0.449602 -5.61168e-19)
(0.81486 0.436597 6.00944e-19)
(0.796974 0.431131 3.63381e-19)
(0.769 0.418 -3.57203e-19)
(1.02698 -0.000757651 6.08457e-19)
(1.02001 -0.000377222 0)
(1.01855 0.00054735 3.96867e-19)
(1.02143 -0.00200394 -8.98823e-19)
(1.02238 0.00393259 4.36629e-19)
(1.02051 0.0108214 -9.1445e-19)
(1.02153 0.0102408 0)
(1.02079 0.0105623 -1.90631e-19)
(1.01605 0.00740817 4.78222e-19)
(1.01678 0.0101996 -2.3856e-19)
(1.01748 0.00955407 1.75744e-19)
(0.0349895 1.31861 0)
(0.036575 1.35588 0)
(0.0517415 1.31469 0)
(0.0418553 1.276 0)
(0.0739655 1.36836 -8.85474e-20)
(0.0791681 1.34041 3.39603e-20)
(0.107421 1.49226 3.93999e-22)
(0.0857375 1.33704 -1.58648e-20)
(0.0321289 1.45076 3.07591e-20)
(0.0365447 1.44113 -2.32449e-20)
(0.0671839 1.35094 -7.24024e-21)
(0.060421 1.35305 6.28161e-20)
(0.0521547 1.33075 8.71696e-21)
(0.0390235 1.35492 5.11231e-21)
(0.104355 2.38717 -1.22349e-19)
(0.0925307 2.43001 0)
(0.166344 2.06421 9.49369e-20)
(0.110028 1.71038 2.79622e-20)
(0.229629 2.05788 -7.63832e-20)
(0.209642 2.45457 0)
(0.268769 2.40651 -5.38679e-19)
(0.305301 2.40501 3.82886e-19)
(0.229721 2.01661 -2.12202e-19)
(0.151172 2.18382 1.46511e-19)
(0.146251 2.30492 0)
(0.0122073 1.88616 2.7639e-20)
(-0.0153484 2.40348 -3.28269e-20)
(-0.000560317 2.16325 0)
(0.00487308 2.46586 -1.39489e-20)
(0.0167552 2.31525 -2.22736e-21)
(0.0300993 1.41281 -8.99566e-21)
(0.0688641 1.38092 1.67556e-19)
(0.0784083 1.41853 -5.93873e-20)
(0.0223735 1.41413 -4.33084e-20)
(0.0271462 1.42652 0)
(0.0770745 1.39798 0)
(0.0460426 1.15086 -1.16272e-19)
(0.109894 1.3735 3.45836e-20)
(0.112014 1.37325 0)
(0.0566606 1.18856 -6.82238e-20)
(0.0456958 0.986929 1.55237e-19)
(1.0403 0.0107231 0)
(1.04563 0.00708063 -6.36315e-20)
(1.03833 0.0203038 -4.58096e-19)
(1.04753 0.0192677 0)
(1.05188 0.0190382 0)
(1.03616 0.0104735 -6.41811e-21)
(1.03133 0.0103336 7.35244e-19)
(1.0318 0.0152398 8.9371e-19)
(1.02597 0.0192027 0)
(1.02343 0.0197971 0)
(1.03493 0.0234313 4.57385e-19)
(1.02628 0.0248105 0)
(1.02516 0.0245767 0)
(-0.00165134 2.09376 0)
(0.0346973 1.88687 2.79148e-20)
(0.0391061 1.95817 -5.73996e-20)
(0.0881524 1.38054 0)
(0.121262 1.67292 -6.33057e-20)
(0.12434 1.51552 6.768e-20)
(0.0895419 1.40341 0)
(0.395992 1.68765 0)
(0.363188 1.28468 1.90629e-20)
(0.306328 1.33814 0)
(0.418844 1.28454 -8.99576e-20)
(0.462853 1.44523 0)
(0.444209 1.38979 6.36364e-20)
(1.03357 2.69173 -1.41934e-20)
(0.961169 2.41323 -8.39996e-19)
(0.909125 2.18653 9.75143e-19)
(0.84523 2.37953 2.27322e-19)
(0.84603 2.50541 0)
(0.916409 2.49941 0)
(0.921872 2.37655 0)
(0.89938 2.36265 -8.82012e-19)
(0.693036 2.47703 -3.45029e-19)
(0.802219 2.46826 -8.63986e-20)
(0.813958 2.43968 6.60226e-20)
(0.692487 2.39467 0)
(0.796342 2.39137 0)
(0.755236 2.40336 -3.49097e-19)
(0.769913 2.49671 0)
(0.613761 1.09344 0)
(0.484558 0.930575 -4.42935e-19)
(0.553686 0.96503 -2.83414e-20)
(0.525211 1.06059 0)
(0.523946 1.00944 6.65466e-19)
(0.766426 0.879274 -1.17532e-19)
(0.778382 1.01044 0)
(0.751106 0.966794 1.66759e-19)
(0.640225 1.03332 0)
(0.644877 0.943942 0)
(1.16527 2.76202 -1.99498e-19)
(1.14302 2.82571 -7.28553e-20)
(0.933872 2.34678 5.76308e-20)
(0.901325 2.32609 -7.00258e-20)
(1.13023 2.73578 0)
(1.08347 2.70622 8.43416e-20)
(1.08975 2.48871 -2.92166e-19)
(0.985374 2.23496 -3.0699e-20)
(0.504578 1.36523 0)
(0.517542 1.08065 -9.94005e-20)
(0.561691 1.15932 0)
(0.860243 0.212409 0)
(0.805101 0.168047 0)
(0.76079 0.146621 0)
(0.854794 0.221899 -6.2689e-19)
(0.781974 0.213671 3.69504e-19)
(0.936349 0.0641907 -3.87274e-19)
(0.950234 0.108876 0)
(0.92735 0.114641 1.67528e-19)
(0.871577 0.0910554 6.72373e-19)
(0.852338 0.0518543 -4.20069e-19)
(1.16204 3.3617 -7.55826e-19)
(1.20969 3.2809 0)
(1.16046 3.38989 -1.54735e-18)
(0.647742 3.55079 1.31654e-18)
(0.872461 3.11834 1.13586e-19)
(0.512282 0.854909 5.55244e-19)
(0.43077 0.849224 0)
(0.339176 0.503269 -1.44629e-19)
(0.442328 0.687219 8.07829e-19)
(0.530179 0.476026 -1.99849e-19)
(0.505126 0.526871 2.26699e-19)
(0.651716 0.541389 4.95206e-19)
(0.679196 0.558635 0)
(0.633004 0.623647 0)
(0.590458 0.56075 0)
(0.959716 0.596466 8.79257e-20)
(0.882776 0.534849 -5.08924e-19)
(0.905574 0.566728 3.82732e-19)
(0.94075 0.502043 -3.93882e-19)
(1.04466 0.476848 0)
(1.05461 0.565413 -9.59591e-20)
(0.838384 0.386577 -8.27481e-19)
(0.842528 0.371403 -1.01742e-18)
(0.790703 0.386618 6.45918e-19)
(0.785942 0.355808 -6.67155e-19)
(0.838004 0.309218 -5.18106e-19)
(0.79265 0.308001 6.36824e-19)
(1.02682 0.00543765 -4.71763e-19)
(1.02639 0.00582102 9.67322e-19)
(1.02927 -0.000494097 5.89277e-19)
(1.03317 0.000653672 -7.10046e-19)
(1.03284 0.0077867 0)
(1.03002 0.00864337 -1.14961e-18)
(0.0543645 1.64289 1.4877e-20)
(0.0398789 1.56874 0)
(0.0768407 1.69375 7.18632e-20)
(0.0900339 1.6783 -6.0288e-20)
(0.0777886 1.51546 -7.39176e-22)
(0.0841613 1.50133 0)
(0.0393834 1.73638 0)
(0.0501007 1.58123 1.44868e-20)
(0.0810106 1.49167 -1.30426e-20)
(0.064254 1.6564 2.07899e-20)
(0.0237529 1.95833 3.39571e-20)
(0.0105272 1.96822 -2.71709e-21)
(0.500636 1.37741 -1.87126e-19)
(0.494461 1.38362 2.06602e-19)
(0.441214 1.2828 2.23823e-20)
(0.437193 1.2953 3.84427e-21)
(0.625231 1.28827 0)
(0.539968 1.37603 1.4674e-19)
(0.558468 1.38448 -1.42913e-19)
(0.448427 1.27179 -2.15567e-20)
(0.507366 1.22485 0)
(0.563129 1.19559 0)
(0.659608 2.43658 5.06953e-19)
(0.670085 2.47111 1.17263e-18)
(0.717351 2.48552 -8.07011e-19)
(0.618828 2.46559 -1.96138e-19)
(0.563584 2.55547 2.60742e-19)
(0.512781 2.52832 -6.95505e-19)
(0.974454 2.3793 -5.44306e-19)
(1.01243 2.3945 0)
(0.920465 2.16588 -6.33552e-19)
(1.05302 2.68618 0)
(1.05528 2.67306 0)
(0.612632 2.2783 -6.84343e-20)
(1.04246 3.16466 1.81727e-19)
(0.913509 3.03512 -9.33378e-20)
(0.283329 0.92047 0)
(0.322778 0.781905 -2.97822e-19)
(0.479081 0.73562 -2.87657e-19)
(0.390332 2.02678 0)
(0.468774 2.78749 -7.90781e-20)
(0.424053 2.55157 0)
(0.677063 0.686053 -7.93677e-19)
(0.757968 0.681006 1.08341e-18)
(0.777139 0.624887 -1.07258e-18)
(0.657907 0.64806 -1.03821e-19)
(0.713734 0.600283 -4.31016e-19)
(1.00458 2.76827 -1.38179e-19)
(1.04174 2.82403 -1.07902e-19)
(0.639985 2.15296 5.88275e-19)
(0.59722 1.72097 -4.23959e-19)
(0.700518 1.91057 -3.43717e-19)
(0.990399 2.45124 -1.09464e-19)
(0.995367 2.44393 2.41926e-19)
(0.660468 1.84968 2.4031e-20)
(0.452416 1.33988 1.18752e-19)
)
;

boundaryField
{
    wall-4
    {
        type            noSlip;
    }
    velocity-inlet-5
    {
        type            fixedValue;
        value           uniform (1 0 0);
    }
    velocity-inlet-6
    {
        type            fixedValue;
        value           uniform (0 3 0);
    }
    pressure-outlet-7
    {
        type            zeroGradient;
    }
    wall-8
    {
        type            noSlip;
    }
    frontAndBackPlanes
    {
        type            empty;
    }
}


// ************************************************************************* //
