/*--------------------------------*- C++ -*----------------------------------*\
  =========                 |
  \\      /  F ield         | OpenFOAM: The Open Source CFD Toolbox
   \\    /   O peration     | Website:  https://openfoam.org
    \\  /    A nd           | Version:  13
     \\/     M anipulation  |
\*---------------------------------------------------------------------------*/
FoamFile
{
    format      ascii;
    class       volScalarField;
    location    "2.905";
    object      T;
}
// * * * * * * * * * * * * * * * * * * * * * * * * * * * * * * * * * * * * * //

dimensions      [0 0 0 1 0 0 0];

internalField   nonuniform List<scalar> 
1000
(
2.31637e-74
3.53576e-74
6.60905e-74
1.31316e-73
2.64778e-73
5.35267e-73
1.08165e-72
2.18333e-72
4.40139e-72
8.86095e-72
1.7815e-71
3.57689e-71
7.17197e-71
1.4361e-70
2.87171e-70
5.73466e-70
1.14363e-69
2.27759e-69
4.52976e-69
8.99669e-69
1.78443e-68
3.53448e-68
6.99131e-68
1.38102e-67
2.72424e-67
5.3666e-67
1.05574e-66
2.07407e-66
4.06905e-66
7.97198e-66
1.55971e-65
3.04736e-65
5.94577e-65
1.15849e-64
2.25414e-64
4.37995e-64
8.49883e-64
1.64683e-63
3.18668e-63
6.15781e-63
1.18827e-62
2.28981e-62
4.40639e-62
8.46766e-62
1.62495e-61
3.11397e-61
5.95914e-61
1.1388e-60
2.17324e-60
4.14153e-60
7.88148e-60
1.49778e-59
2.84237e-59
5.38649e-59
1.01935e-58
1.92633e-58
3.63521e-58
6.85045e-58
1.28913e-57
2.42251e-57
4.54592e-57
8.51857e-57
1.59404e-56
2.97865e-56
5.55808e-56
1.03566e-55
1.92706e-55
3.58063e-55
6.64366e-55
1.23095e-54
2.27748e-54
4.2078e-54
7.76312e-54
1.43021e-53
2.63115e-53
4.83363e-53
8.86708e-53
1.62431e-52
2.97123e-52
5.42729e-52
9.89939e-52
1.80307e-51
3.27939e-51
5.95596e-51
1.08016e-50
1.95614e-50
3.53742e-50
6.38776e-50
1.15182e-49
2.07395e-49
3.72892e-49
6.69486e-49
1.20025e-48
2.1487e-48
3.84106e-48
6.85643e-48
1.22213e-47
2.17522e-47
3.86599e-47
6.86101e-47
1.21586e-46
2.15153e-46
3.80172e-46
6.70779e-46
1.1818e-45
2.07911e-45
3.65239e-45
6.40679e-45
1.1222e-44
1.96274e-44
3.42784e-44
5.97779e-44
1.04094e-43
1.80997e-43
3.14253e-43
5.44815e-43
9.43148e-43
1.63031e-42
2.81399e-42
4.84991e-42
8.3465e-42
1.43428e-41
2.46105e-41
4.21663e-41
7.21385e-41
1.23233e-40
2.10204e-40
3.58024e-40
6.08888e-40
1.034e-39
1.75329e-39
2.96854e-39
5.01864e-39
8.47191e-39
1.428e-38
2.40342e-38
4.03906e-38
6.77772e-38
1.13563e-37
1.89994e-37
3.1739e-37
5.29413e-37
8.8175e-37
1.46637e-36
2.43496e-36
4.03725e-36
6.68385e-36
1.10488e-35
1.82368e-35
3.00557e-35
4.94596e-35
8.12679e-35
1.33331e-34
2.18418e-34
3.57262e-34
5.83484e-34
9.51511e-34
1.54932e-33
2.51888e-33
4.08899e-33
6.62773e-33
1.07264e-32
1.73334e-32
2.79673e-32
4.50564e-32
7.24772e-32
1.16408e-31
1.86682e-31
2.98923e-31
4.77918e-31
7.62926e-31
1.21604e-30
1.93529e-30
3.07526e-30
4.87922e-30
7.72952e-30
1.22261e-29
1.93089e-29
3.0448e-29
4.79394e-29
7.5363e-29
1.18292e-28
1.85388e-28
2.90095e-28
4.53239e-28
7.07041e-28
1.10126e-27
1.71264e-27
2.65931e-27
4.12288e-27
6.38203e-27
9.86381e-27
1.52215e-26
2.34528e-26
3.60794e-26
5.54178e-26
8.49892e-26
1.30138e-25
1.9896e-25
3.03706e-25
4.62875e-25
7.04364e-25
1.07017e-24
1.62342e-24
2.45884e-24
3.71837e-24
5.61428e-24
8.46363e-24
1.27391e-23
1.91444e-23
2.87253e-23
4.30334e-23
6.43673e-23
9.61265e-23
1.43331e-22
2.13379e-22
3.17163e-22
4.70685e-22
6.97419e-22
1.03175e-21
1.52394e-21
2.24739e-21
3.30906e-21
4.86456e-21
7.13999e-21
1.04632e-20
1.5309e-20
2.23636e-20
3.26173e-20
4.74972e-20
6.90556e-20
1.0024e-19
1.45277e-19
2.10214e-19
3.03695e-19
4.38051e-19
6.30842e-19
9.07041e-19
1.30209e-18
1.86623e-18
2.67054e-18
3.8154e-18
5.44239e-18
7.75079e-18
1.10207e-17
1.56452e-17
2.21748e-17
3.13793e-17
4.43337e-17
6.2536e-17
8.80707e-17
1.23833e-16
1.7384e-16
2.4365e-16
3.40946e-16
4.76333e-16
6.64414e-16
9.25274e-16
1.28649e-15
1.78584e-15
2.47504e-15
3.42472e-15
4.73117e-15
6.52552e-15
8.98592e-15
1.23541e-14
1.69575e-14
2.32387e-14
3.17952e-14
4.34323e-14
5.9233e-14
8.06519e-14
1.09639e-13
1.48804e-13
2.01633e-13
2.72778e-13
3.6843e-13
4.9682e-13
6.68869e-13
8.99043e-13
1.20647e-12
1.61642e-12
2.16215e-12
2.88745e-12
3.84982e-12
5.12464e-12
6.81055e-12
9.03644e-12
1.19704e-11
1.58313e-11
2.09035e-11
2.75561e-11
3.6267e-11
4.76542e-11
6.25152e-11
8.18776e-11
1.07063e-10
1.39768e-10
1.82168e-10
2.37044e-10
3.0795e-10
3.99417e-10
5.17209e-10
6.68652e-10
8.63034e-10
1.11211e-09
1.43075e-09
1.83769e-09
2.35654e-09
3.01696e-09
3.85619e-09
4.92084e-09
6.26923e-09
7.97411e-09
1.01261e-08
1.2838e-08
1.62496e-08
2.05344e-08
2.59069e-08
3.26318e-08
4.10355e-08
5.15194e-08
6.45765e-08
8.08111e-08
1.00963e-07
1.25934e-07
1.56826e-07
1.94979e-07
2.42019e-07
2.99919e-07
3.71067e-07
4.58346e-07
5.65233e-07
6.95914e-07
8.55415e-07
1.04976e-06
1.28618e-06
1.57327e-06
1.92132e-06
2.34256e-06
2.85152e-06
3.46542e-06
4.20465e-06
5.0933e-06
6.15975e-06
7.43743e-06
8.96557e-06
1.07902e-05
1.29651e-05
1.55532e-05
1.86276e-05
2.22738e-05
2.65906e-05
3.16927e-05
3.77127e-05
4.48037e-05
5.31422e-05
6.29308e-05
7.44023e-05
8.78232e-05
0.000103498
0.000121774
0.000143047
0.000167767
0.000196441
0.000229648
0.000268038
0.000312343
0.00036339
0.000422102
0.000489517
0.000566792
0.000655219
0.000756233
0.000871432
0.00100258
0.00115163
0.00132075
0.00151229
0.00172888
0.00197335
0.00224884
0.00255875
0.00290677
0.00329693
0.00373359
0.00422145
0.00476559
0.00537145
0.00604488
0.00679213
0.0076199
0.00853526
0.00954577
0.0106594
0.0118846
0.0132302
0.0147055
0.0163202
0.0180845
0.020009
0.0221046
0.0243825
0.0268544
0.0295323
0.0324283
0.0355547
0.0389242
0.0425494
0.0464431
0.0506178
0.0550863
0.0598609
0.064954
0.0703773
0.0761424
0.0822604
0.0887416
0.0955958
0.102832
0.110458
0.118482
0.12691
0.135746
0.144994
0.154658
0.164739
0.175235
0.186147
0.19747
0.2092
0.221331
0.233854
0.246761
0.260039
0.273677
0.28766
0.301972
0.316595
0.331511
0.346699
0.362138
0.377804
0.393673
0.409721
0.425922
0.442249
0.458674
0.475169
0.491707
0.508259
0.524796
0.541289
0.557711
0.574033
0.590228
0.606269
0.622129
0.637785
0.65321
0.668383
0.683281
0.697883
0.712171
0.726125
0.73973
0.75297
0.765833
0.778305
0.790377
0.80204
0.813286
0.824109
0.834505
0.84447
0.854003
0.863103
0.87177
0.880005
0.887813
0.895195
0.902155
0.9087
0.914833
0.920561
0.925889
0.930825
0.935373
0.939542
0.943337
0.946765
0.949831
0.952541
0.9549
0.956912
0.958583
0.959915
0.960912
0.961575
0.961906
0.961906
0.961575
0.960912
0.959915
0.958583
0.956912
0.9549
0.952541
0.949831
0.946765
0.943337
0.939542
0.935373
0.930825
0.925889
0.920561
0.914833
0.9087
0.902155
0.895195
0.887813
0.880005
0.87177
0.863103
0.854003
0.84447
0.834505
0.824109
0.813286
0.80204
0.790377
0.778305
0.765833
0.75297
0.73973
0.726125
0.712171
0.697883
0.683281
0.668383
0.65321
0.637785
0.622129
0.606269
0.590228
0.574033
0.557711
0.541289
0.524796
0.508259
0.491707
0.475169
0.458674
0.442249
0.425922
0.409721
0.393673
0.377804
0.362138
0.346699
0.331511
0.316595
0.301972
0.28766
0.273677
0.260039
0.246761
0.233854
0.221331
0.2092
0.19747
0.186147
0.175235
0.164739
0.154658
0.144994
0.135746
0.12691
0.118482
0.110458
0.102832
0.0955958
0.0887416
0.0822604
0.0761424
0.0703773
0.064954
0.0598609
0.0550863
0.0506178
0.0464431
0.0425494
0.0389242
0.0355547
0.0324283
0.0295323
0.0268544
0.0243825
0.0221046
0.020009
0.0180845
0.0163202
0.0147055
0.0132302
0.0118846
0.0106594
0.00954577
0.00853526
0.0076199
0.00679213
0.00604488
0.00537145
0.00476559
0.00422145
0.00373359
0.00329693
0.00290677
0.00255875
0.00224884
0.00197335
0.00172888
0.00151229
0.00132075
0.00115163
0.00100258
0.000871432
0.000756233
0.000655219
0.000566792
0.000489517
0.000422102
0.00036339
0.000312343
0.000268038
0.000229648
0.000196441
0.000167767
0.000143047
0.000121774
0.000103498
8.78232e-05
7.44023e-05
6.29308e-05
5.31422e-05
4.48037e-05
3.77127e-05
3.16927e-05
2.65906e-05
2.22738e-05
1.86276e-05
1.55532e-05
1.29651e-05
1.07902e-05
8.96557e-06
7.43743e-06
6.15975e-06
5.0933e-06
4.20465e-06
3.46542e-06
2.85152e-06
2.34256e-06
1.92132e-06
1.57327e-06
1.28618e-06
1.04976e-06
8.55415e-07
6.95914e-07
5.65233e-07
4.58346e-07
3.71067e-07
2.99919e-07
2.42019e-07
1.94979e-07
1.56826e-07
1.25934e-07
1.00963e-07
8.08111e-08
6.45765e-08
5.15194e-08
4.10355e-08
3.26318e-08
2.59069e-08
2.05344e-08
1.62496e-08
1.2838e-08
1.01261e-08
7.97411e-09
6.26923e-09
4.92084e-09
3.85619e-09
3.01696e-09
2.35654e-09
1.83769e-09
1.43075e-09
1.11211e-09
8.63034e-10
6.68652e-10
5.17209e-10
3.99417e-10
3.0795e-10
2.37044e-10
1.82168e-10
1.39768e-10
1.07063e-10
8.18776e-11
6.25152e-11
4.76542e-11
3.6267e-11
2.75561e-11
2.09035e-11
1.58313e-11
1.19704e-11
9.03644e-12
6.81055e-12
5.12464e-12
3.84982e-12
2.88745e-12
2.16215e-12
1.61642e-12
1.20647e-12
8.99043e-13
6.68869e-13
4.9682e-13
3.6843e-13
2.72778e-13
2.01633e-13
1.48804e-13
1.09639e-13
8.06519e-14
5.9233e-14
4.34323e-14
3.17952e-14
2.32387e-14
1.69575e-14
1.23541e-14
8.98592e-15
6.52552e-15
4.73117e-15
3.42472e-15
2.47504e-15
1.78584e-15
1.28649e-15
9.25274e-16
6.64414e-16
4.76333e-16
3.40946e-16
2.4365e-16
1.7384e-16
1.23833e-16
8.80707e-17
6.2536e-17
4.43337e-17
3.13793e-17
2.21748e-17
1.56452e-17
1.10207e-17
7.75079e-18
5.44239e-18
3.8154e-18
2.67054e-18
1.86623e-18
1.30209e-18
9.07041e-19
6.30842e-19
4.38051e-19
3.03695e-19
2.10214e-19
1.45277e-19
1.0024e-19
6.90556e-20
4.74972e-20
3.26173e-20
2.23636e-20
1.5309e-20
1.04632e-20
7.13999e-21
4.86456e-21
3.30906e-21
2.24739e-21
1.52394e-21
1.03175e-21
6.97419e-22
4.70685e-22
3.17163e-22
2.13379e-22
1.43331e-22
9.61265e-23
6.43673e-23
4.30334e-23
2.87253e-23
1.91444e-23
1.27391e-23
8.46363e-24
5.61428e-24
3.71837e-24
2.45884e-24
1.62342e-24
1.07017e-24
7.04364e-25
4.62875e-25
3.03706e-25
1.9896e-25
1.30138e-25
8.49892e-26
5.54178e-26
3.60794e-26
2.34528e-26
1.52215e-26
9.86381e-27
6.38203e-27
4.12288e-27
2.65931e-27
1.71264e-27
1.10126e-27
7.07041e-28
4.53239e-28
2.90095e-28
1.85388e-28
1.18292e-28
7.5363e-29
4.79394e-29
3.0448e-29
1.93089e-29
1.22261e-29
7.72952e-30
4.87922e-30
3.07526e-30
1.93529e-30
1.21604e-30
7.62926e-31
4.77918e-31
2.98923e-31
1.86682e-31
1.16408e-31
7.24772e-32
4.50564e-32
2.79673e-32
1.73334e-32
1.07264e-32
6.62773e-33
4.08899e-33
2.51888e-33
1.54932e-33
9.51511e-34
5.83484e-34
3.57262e-34
2.18418e-34
1.33331e-34
8.12679e-35
4.94596e-35
3.00557e-35
1.82368e-35
1.10488e-35
6.68385e-36
4.03725e-36
2.43496e-36
1.46637e-36
8.8175e-37
5.29413e-37
3.1739e-37
1.89994e-37
1.13563e-37
6.77772e-38
4.03906e-38
2.40342e-38
1.428e-38
8.47191e-39
5.01864e-39
2.96854e-39
1.75329e-39
1.034e-39
6.08888e-40
3.58024e-40
2.10204e-40
1.23233e-40
7.21385e-41
4.21663e-41
2.46105e-41
1.43428e-41
8.3465e-42
4.84991e-42
2.81399e-42
1.63031e-42
9.43148e-43
5.44815e-43
3.14253e-43
1.80997e-43
1.04094e-43
5.97779e-44
3.42784e-44
1.96274e-44
1.1222e-44
6.40679e-45
3.65239e-45
2.07911e-45
1.1818e-45
6.70779e-46
3.80172e-46
2.15153e-46
1.21586e-46
6.86101e-47
3.86599e-47
2.17522e-47
1.22213e-47
6.85643e-48
3.84106e-48
2.1487e-48
1.20025e-48
6.69486e-49
3.72892e-49
2.07395e-49
1.15182e-49
6.38776e-50
3.53742e-50
1.95614e-50
1.08016e-50
5.95596e-51
3.27939e-51
1.80307e-51
9.89939e-52
5.42729e-52
2.97123e-52
1.62431e-52
8.86708e-53
4.83363e-53
2.63115e-53
1.43021e-53
7.76312e-54
4.2078e-54
2.27748e-54
1.23095e-54
6.64366e-55
3.58063e-55
1.92706e-55
1.03566e-55
5.55808e-56
2.97865e-56
1.59404e-56
8.51857e-57
4.54592e-57
2.42251e-57
1.28913e-57
6.85045e-58
3.63521e-58
1.92633e-58
1.01935e-58
5.38649e-59
2.84237e-59
1.49778e-59
7.88148e-60
4.14153e-60
2.17324e-60
1.1388e-60
5.95914e-61
3.11397e-61
1.62495e-61
8.46766e-62
4.40639e-62
2.28981e-62
1.18827e-62
6.15781e-63
3.18668e-63
1.64683e-63
8.49883e-64
4.37995e-64
2.25414e-64
1.15849e-64
5.94577e-65
3.04736e-65
1.55971e-65
7.97198e-66
4.06905e-66
2.07407e-66
1.05574e-66
5.3666e-67
2.72424e-67
1.38102e-67
6.99131e-68
3.53448e-68
1.78443e-68
8.99669e-69
4.52976e-69
2.27759e-69
1.14363e-69
5.73466e-70
2.87171e-70
1.4361e-70
7.17197e-71
3.57689e-71
1.7815e-71
8.86095e-72
4.40139e-72
2.18333e-72
1.08165e-72
5.35267e-73
2.64778e-73
1.31316e-73
6.60905e-74
3.53576e-74
2.31637e-74
)
;

boundaryField
{
    sides
    {
        type            zeroGradient;
    }
    empty
    {
        type            empty;
    }
}


// ************************************************************************* //
