/*--------------------------------*- C++ -*----------------------------------*\
  =========                 |
  \\      /  F ield         | OpenFOAM: The Open Source CFD Toolbox
   \\    /   O peration     | Website:  https://openfoam.org
    \\  /    A nd           | Version:  13
     \\/     M anipulation  |
\*---------------------------------------------------------------------------*/
FoamFile
{
    format      ascii;
    class       volScalarField;
    location    "4.045";
    object      T;
}
// * * * * * * * * * * * * * * * * * * * * * * * * * * * * * * * * * * * * * //

dimensions      [0 0 0 1 0 0 0];

internalField   nonuniform List<scalar> 
1000
(
5.09469e-55
6.56323e-55
9.91689e-55
1.6105e-54
2.68743e-54
4.52532e-54
7.63903e-54
1.28972e-53
2.17608e-53
3.66818e-53
6.17706e-53
1.0391e-52
1.74609e-52
2.93096e-52
4.91459e-52
8.23185e-52
1.37734e-51
2.30206e-51
3.84347e-51
6.41008e-51
1.06791e-50
1.7772e-50
2.95441e-50
4.90609e-50
8.13824e-50
1.34852e-49
2.23209e-49
3.69061e-49
6.09556e-49
1.00568e-48
1.65742e-48
2.72858e-48
4.48713e-48
7.37105e-48
1.20953e-47
1.9826e-47
3.24623e-47
5.30947e-47
8.67462e-47
1.41572e-46
2.30797e-46
3.75846e-46
6.11387e-46
9.93456e-46
1.61253e-45
2.61451e-45
4.23448e-45
6.85069e-45
1.10712e-44
1.78722e-44
2.88195e-44
4.64215e-44
7.46922e-44
1.20048e-43
1.92735e-43
3.09091e-43
4.9515e-43
7.92337e-43
1.2665e-42
2.0222e-42
3.22525e-42
5.13838e-42
8.17729e-42
1.29991e-41
2.06415e-41
3.27407e-41
5.18747e-41
8.21002e-41
1.29794e-40
2.04966e-40
3.23318e-40
5.09446e-40
8.01837e-40
1.26064e-39
1.97979e-39
3.10572e-39
4.86659e-39
7.61739e-39
1.19098e-38
1.86004e-38
2.90172e-38
4.52176e-38
7.03844e-38
1.09436e-37
1.69967e-37
2.63683e-37
4.08618e-37
6.32512e-37
9.77992e-37
1.51049e-36
2.33032e-36
3.5911e-36
5.52784e-36
8.49959e-36
1.30543e-35
2.00275e-35
3.0691e-35
4.69796e-35
7.18327e-35
1.0971e-34
1.67374e-34
2.55058e-34
3.88243e-34
5.90311e-34
8.96541e-34
1.3601e-33
2.06104e-33
3.11968e-33
4.7168e-33
7.12353e-33
1.07462e-32
1.61929e-32
2.43727e-32
3.66433e-32
5.50295e-32
8.25481e-32
1.23688e-31
1.85122e-31
2.76757e-31
4.13282e-31
6.1646e-31
9.18484e-31
1.36693e-30
2.03203e-30
3.01732e-30
4.4753e-30
6.63024e-30
9.8117e-30
1.45033e-29
2.14139e-29
3.15815e-29
4.65239e-29
6.84582e-29
1.00619e-28
1.47722e-28
2.16627e-28
3.17312e-28
4.64266e-28
6.78503e-28
9.90471e-28
1.44423e-27
2.10347e-27
3.06014e-27
4.44684e-27
6.45453e-27
9.35798e-27
1.3552e-26
1.96033e-26
2.83241e-26
4.08779e-26
5.89282e-26
8.48519e-26
1.2204e-25
1.75326e-25
2.51588e-25
3.60611e-25
5.16283e-25
7.38312e-25
1.05461e-24
1.50469e-24
2.14439e-24
3.05254e-24
4.3403e-24
6.16422e-24
8.74456e-24
1.23908e-23
1.75371e-23
2.47924e-23
3.50089e-23
4.93785e-23
6.95661e-23
9.78941e-23
1.37599e-22
1.93184e-22
2.70912e-22
3.79475e-22
5.30929e-22
7.41973e-22
1.03571e-21
1.44406e-21
2.01109e-21
2.79754e-21
3.88702e-21
5.39456e-21
7.47812e-21
1.03544e-20
1.43204e-20
1.97826e-20
2.72964e-20
3.76206e-20
5.17896e-20
7.12123e-20
9.78057e-20
1.34174e-19
1.83852e-19
2.51631e-19
3.43998e-19
4.69724e-19
6.40656e-19
8.72774e-19
1.18761e-18
1.61414e-18
2.1913e-18
2.97137e-18
4.02445e-18
5.44441e-18
7.35681e-18
9.92937e-18
1.33859e-17
1.80247e-17
2.42427e-17
3.25677e-17
4.37005e-17
5.85705e-17
7.84089e-17
1.04844e-16
1.40028e-16
1.86801e-16
2.48907e-16
3.31273e-16
4.4038e-16
5.84737e-16
7.75508e-16
1.02732e-15
1.35929e-15
1.79645e-15
2.37141e-15
3.12674e-15
4.11782e-15
5.41669e-15
7.11692e-15
9.33988e-15
1.22428e-14
1.60292e-14
2.09621e-14
2.73808e-14
3.57231e-14
4.65525e-14
6.05936e-14
7.87773e-14
1.02298e-13
1.32684e-13
1.71896e-13
2.22433e-13
2.8749e-13
3.7114e-13
4.78565e-13
6.16361e-13
7.92899e-13
1.0188e-12
1.30753e-12
1.67611e-12
2.14607e-12
2.74456e-12
3.50584e-12
4.47301e-12
5.70029e-12
7.25575e-12
9.2248e-12
1.17144e-11
1.48584e-11
1.88241e-11
2.38201e-11
3.01066e-11
3.80074e-11
4.79252e-11
6.03598e-11
7.59311e-11
9.54071e-11
1.19737e-10
1.50095e-10
1.87928e-10
2.35021e-10
2.93568e-10
3.66268e-10
4.56434e-10
5.68126e-10
7.06317e-10
8.77088e-10
1.08786e-09
1.3477e-09
1.66764e-09
2.06109e-09
2.54437e-09
3.13728e-09
3.86379e-09
4.75293e-09
5.8398e-09
7.16675e-09
8.78487e-09
1.07556e-08
1.3153e-08
1.60658e-08
1.96006e-08
2.38849e-08
2.90714e-08
3.53424e-08
4.29157e-08
5.20503e-08
6.3055e-08
7.62965e-08
9.221e-08
1.11312e-07
1.34212e-07
1.61633e-07
1.94428e-07
2.33603e-07
2.80339e-07
3.36032e-07
4.02314e-07
4.81105e-07
5.7465e-07
6.85578e-07
8.16958e-07
9.72372e-07
1.15599e-06
1.37267e-06
1.62806e-06
1.92869e-06
2.28216e-06
2.69724e-06
3.18407e-06
3.75438e-06
4.42164e-06
5.20141e-06
6.11152e-06
7.17247e-06
8.40775e-06
9.84425e-06
1.15127e-05
1.34482e-05
1.56907e-05
1.82859e-05
2.12853e-05
2.47479e-05
2.87401e-05
3.33375e-05
3.86252e-05
4.46995e-05
5.16689e-05
5.96554e-05
6.87962e-05
7.92455e-05
9.1176e-05
0.000104781
0.000120276
0.000137902
0.000157929
0.000180654
0.00020641
0.000235566
0.000268529
0.000305751
0.000347731
0.000395019
0.000448221
0.000508003
0.000575096
0.000650302
0.000734498
0.000828644
0.000933786
0.00105106
0.00118172
0.00132709
0.00148865
0.00166798
0.00186677
0.00208688
0.0023303
0.00259915
0.00289573
0.0032225
0.0035821
0.00397731
0.00441116
0.00488681
0.00540767
0.00597732
0.00659957
0.00727844
0.00801816
0.00882321
0.00969826
0.0106482
0.0116783
0.0127938
0.0140003
0.0153037
0.0167101
0.0182256
0.0198567
0.0216101
0.0234926
0.0255112
0.0276732
0.0299858
0.0324565
0.0350929
0.0379025
0.0408931
0.0440724
0.0474481
0.0510279
0.0548196
0.0588306
0.0630685
0.0675405
0.0722538
0.0772152
0.0824313
0.0879085
0.0936527
0.0996695
0.105964
0.112541
0.119405
0.126558
0.134006
0.141749
0.149789
0.158128
0.166766
0.175703
0.184938
0.194468
0.204292
0.214405
0.224803
0.235481
0.246433
0.257653
0.269131
0.280861
0.292832
0.305034
0.317456
0.330087
0.342914
0.355924
0.369103
0.382437
0.39591
0.409508
0.423214
0.437011
0.450884
0.464814
0.478785
0.492779
0.506779
0.520765
0.534722
0.54863
0.562473
0.576233
0.589893
0.603435
0.616844
0.630103
0.643196
0.656108
0.668823
0.681329
0.693611
0.705655
0.71745
0.728984
0.740245
0.751223
0.761908
0.772291
0.782364
0.792119
0.801548
0.810646
0.819405
0.827822
0.835891
0.843609
0.850971
0.857974
0.864617
0.870896
0.87681
0.882357
0.887536
0.892346
0.896787
0.900858
0.904559
0.907889
0.910849
0.913439
0.915658
0.917507
0.918986
0.920095
0.920835
0.921204
0.921204
0.920835
0.920095
0.918986
0.917507
0.915658
0.913439
0.910849
0.907889
0.904559
0.900858
0.896787
0.892346
0.887536
0.882357
0.87681
0.870896
0.864617
0.857974
0.850971
0.843609
0.835891
0.827822
0.819405
0.810646
0.801548
0.792119
0.782364
0.772291
0.761908
0.751223
0.740245
0.728984
0.71745
0.705655
0.693611
0.681329
0.668823
0.656108
0.643196
0.630103
0.616844
0.603435
0.589893
0.576233
0.562473
0.54863
0.534722
0.520765
0.506779
0.492779
0.478785
0.464814
0.450884
0.437011
0.423214
0.409508
0.39591
0.382437
0.369103
0.355924
0.342914
0.330087
0.317456
0.305034
0.292832
0.280861
0.269131
0.257653
0.246433
0.235481
0.224803
0.214405
0.204292
0.194468
0.184938
0.175703
0.166766
0.158128
0.149789
0.141749
0.134006
0.126558
0.119405
0.112541
0.105964
0.0996695
0.0936527
0.0879085
0.0824313
0.0772152
0.0722538
0.0675405
0.0630685
0.0588306
0.0548196
0.0510279
0.0474481
0.0440724
0.0408931
0.0379025
0.0350929
0.0324565
0.0299858
0.0276732
0.0255112
0.0234926
0.0216101
0.0198567
0.0182256
0.0167101
0.0153037
0.0140003
0.0127938
0.0116783
0.0106482
0.00969826
0.00882321
0.00801816
0.00727844
0.00659957
0.00597732
0.00540767
0.00488681
0.00441116
0.00397731
0.0035821
0.0032225
0.00289573
0.00259915
0.0023303
0.00208688
0.00186677
0.00166798
0.00148865
0.00132709
0.00118172
0.00105106
0.000933786
0.000828644
0.000734498
0.000650302
0.000575096
0.000508003
0.000448221
0.000395019
0.000347731
0.000305751
0.000268529
0.000235566
0.00020641
0.000180654
0.000157929
0.000137902
0.000120276
0.000104781
9.1176e-05
7.92455e-05
6.87962e-05
5.96554e-05
5.16689e-05
4.46995e-05
3.86252e-05
3.33375e-05
2.87401e-05
2.47479e-05
2.12853e-05
1.82859e-05
1.56907e-05
1.34482e-05
1.15127e-05
9.84425e-06
8.40775e-06
7.17247e-06
6.11152e-06
5.20141e-06
4.42164e-06
3.75438e-06
3.18407e-06
2.69724e-06
2.28216e-06
1.92869e-06
1.62806e-06
1.37267e-06
1.15599e-06
9.72372e-07
8.16958e-07
6.85578e-07
5.7465e-07
4.81105e-07
4.02314e-07
3.36032e-07
2.80339e-07
2.33603e-07
1.94428e-07
1.61633e-07
1.34212e-07
1.11312e-07
9.221e-08
7.62965e-08
6.3055e-08
5.20503e-08
4.29157e-08
3.53424e-08
2.90714e-08
2.38849e-08
1.96006e-08
1.60658e-08
1.3153e-08
1.07556e-08
8.78487e-09
7.16675e-09
5.8398e-09
4.75293e-09
3.86379e-09
3.13728e-09
2.54437e-09
2.06109e-09
1.66764e-09
1.3477e-09
1.08786e-09
8.77088e-10
7.06317e-10
5.68126e-10
4.56434e-10
3.66268e-10
2.93568e-10
2.35021e-10
1.87928e-10
1.50095e-10
1.19737e-10
9.54071e-11
7.59311e-11
6.03598e-11
4.79252e-11
3.80074e-11
3.01066e-11
2.38201e-11
1.88241e-11
1.48584e-11
1.17144e-11
9.2248e-12
7.25575e-12
5.70029e-12
4.47301e-12
3.50584e-12
2.74456e-12
2.14607e-12
1.67611e-12
1.30753e-12
1.0188e-12
7.92899e-13
6.16361e-13
4.78565e-13
3.7114e-13
2.8749e-13
2.22433e-13
1.71896e-13
1.32684e-13
1.02298e-13
7.87773e-14
6.05936e-14
4.65525e-14
3.57231e-14
2.73808e-14
2.09621e-14
1.60292e-14
1.22428e-14
9.33988e-15
7.11692e-15
5.41669e-15
4.11782e-15
3.12674e-15
2.37141e-15
1.79645e-15
1.35929e-15
1.02732e-15
7.75508e-16
5.84737e-16
4.4038e-16
3.31273e-16
2.48907e-16
1.86801e-16
1.40028e-16
1.04844e-16
7.84089e-17
5.85705e-17
4.37005e-17
3.25677e-17
2.42427e-17
1.80247e-17
1.33859e-17
9.92937e-18
7.35681e-18
5.44441e-18
4.02445e-18
2.97137e-18
2.1913e-18
1.61414e-18
1.18761e-18
8.72774e-19
6.40656e-19
4.69724e-19
3.43998e-19
2.51631e-19
1.83852e-19
1.34174e-19
9.78057e-20
7.12123e-20
5.17896e-20
3.76206e-20
2.72964e-20
1.97826e-20
1.43204e-20
1.03544e-20
7.47812e-21
5.39456e-21
3.88702e-21
2.79754e-21
2.01109e-21
1.44406e-21
1.03571e-21
7.41973e-22
5.30929e-22
3.79475e-22
2.70912e-22
1.93184e-22
1.37599e-22
9.78941e-23
6.95661e-23
4.93785e-23
3.50089e-23
2.47924e-23
1.75371e-23
1.23908e-23
8.74456e-24
6.16422e-24
4.3403e-24
3.05254e-24
2.14439e-24
1.50469e-24
1.05461e-24
7.38312e-25
5.16283e-25
3.60611e-25
2.51588e-25
1.75326e-25
1.2204e-25
8.48519e-26
5.89282e-26
4.08779e-26
2.83241e-26
1.96033e-26
1.3552e-26
9.35798e-27
6.45453e-27
4.44684e-27
3.06014e-27
2.10347e-27
1.44423e-27
9.90471e-28
6.78503e-28
4.64266e-28
3.17312e-28
2.16627e-28
1.47722e-28
1.00619e-28
6.84582e-29
4.65239e-29
3.15815e-29
2.14139e-29
1.45033e-29
9.8117e-30
6.63024e-30
4.4753e-30
3.01732e-30
2.03203e-30
1.36693e-30
9.18484e-31
6.1646e-31
4.13282e-31
2.76757e-31
1.85122e-31
1.23688e-31
8.25481e-32
5.50295e-32
3.66433e-32
2.43727e-32
1.61929e-32
1.07462e-32
7.12353e-33
4.7168e-33
3.11968e-33
2.06104e-33
1.3601e-33
8.96541e-34
5.90311e-34
3.88243e-34
2.55058e-34
1.67374e-34
1.0971e-34
7.18327e-35
4.69796e-35
3.0691e-35
2.00275e-35
1.30543e-35
8.49959e-36
5.52784e-36
3.5911e-36
2.33032e-36
1.51049e-36
9.77992e-37
6.32512e-37
4.08618e-37
2.63683e-37
1.69967e-37
1.09436e-37
7.03844e-38
4.52176e-38
2.90172e-38
1.86004e-38
1.19098e-38
7.61739e-39
4.86659e-39
3.10572e-39
1.97979e-39
1.26064e-39
8.01837e-40
5.09446e-40
3.23318e-40
2.04966e-40
1.29794e-40
8.21002e-41
5.18747e-41
3.27407e-41
2.06415e-41
1.29991e-41
8.17729e-42
5.13838e-42
3.22525e-42
2.0222e-42
1.2665e-42
7.92337e-43
4.9515e-43
3.09091e-43
1.92735e-43
1.20048e-43
7.46922e-44
4.64215e-44
2.88195e-44
1.78722e-44
1.10712e-44
6.85069e-45
4.23448e-45
2.61451e-45
1.61253e-45
9.93456e-46
6.11387e-46
3.75846e-46
2.30797e-46
1.41572e-46
8.67462e-47
5.30947e-47
3.24623e-47
1.9826e-47
1.20953e-47
7.37105e-48
4.48713e-48
2.72858e-48
1.65742e-48
1.00568e-48
6.09556e-49
3.69061e-49
2.23209e-49
1.34852e-49
8.13824e-50
4.90609e-50
2.95441e-50
1.7772e-50
1.06791e-50
6.41008e-51
3.84347e-51
2.30206e-51
1.37734e-51
8.23185e-52
4.91459e-52
2.93096e-52
1.74609e-52
1.0391e-52
6.17706e-53
3.66818e-53
2.17608e-53
1.28972e-53
7.63903e-54
4.52532e-54
2.68743e-54
1.6105e-54
9.91689e-55
6.56323e-55
5.09469e-55
)
;

boundaryField
{
    sides
    {
        type            zeroGradient;
    }
    empty
    {
        type            empty;
    }
}


// ************************************************************************* //
