/*--------------------------------*- C++ -*----------------------------------*\
  =========                 |
  \\      /  F ield         | OpenFOAM: The Open Source CFD Toolbox
   \\    /   O peration     | Website:  https://openfoam.org
    \\  /    A nd           | Version:  13
     \\/     M anipulation  |
\*---------------------------------------------------------------------------*/
FoamFile
{
    format      ascii;
    class       volScalarField;
    location    "25";
    object      p;
}
// * * * * * * * * * * * * * * * * * * * * * * * * * * * * * * * * * * * * * //

dimensions      [0 2 -2 0 0 0 0];

internalField   nonuniform List<scalar> 
918
(
0.23002
0.902479
0.0301116
0.229339
-0.00341274
0.869581
-0.830733
0.406027
0.210111
-0.411961
-0.425561
0.201564
0.729984
0.496816
-1.45661
-0.133003
0.360214
-0.70737
0.209092
-0.0270253
0.461498
0.216744
0.219786
0.21038
0.271549
0.482649
0.610551
0.0200312
0.0133085
0.00630661
-0.00867003
-0.0370072
-0.0466091
0.753219
0.804313
0.826978
0.178982
0.0050829
-0.684796
-0.758737
-0.747265
-0.876989
0.397734
0.402278
-0.491836
0.406678
0.419239
0.197511
0.209444
0.210374
0.211504
0.210415
0.211823
0.102982
-0.418112
-0.455003
-0.396173
-0.39326
-0.214039
-0.445885
-0.434974
-0.40971
-0.368644
0.132891
0.198689
0.195561
0.206139
0.214379
0.842027
0.813931
0.840073
0.753749
0.770275
0.707945
0.680493
0.517032
0.538359
0.482103
0.471833
-1.8997
-2.87284
-0.855156
-0.597765
-0.00393094
-0.167945
-0.196223
0.349443
0.352748
0.358941
0.372985
0.756079
-0.701174
-0.845476
0.209163
0.207966
0.216489
0.217179
0.213187
0.212287
-0.0486826
-0.090786
-0.00799984
-0.0136419
-0.0174626
0.446319
0.441061
0.210941
0.207985
0.222017
0.244677
0.234022
-0.0256075
0.27959
0.29864
0.2964
0.469338
0.464661
0.473077
0.583996
0.547133
0.647962
0.671159
0.00963716
0.00746366
-0.117658
-0.0617076
-0.0808924
0.175142
0.168272
0.19314
0.182261
0.1845
-0.0793134
-0.215457
0.0903965
0.113291
-0.59377
-0.659203
-0.766277
-0.780613
-0.888463
0.246059
0.388637
0.39095
-0.508525
-0.427756
-0.569641
-0.353914
-0.420327
0.1879
0.194847
0.189883
0.205192
0.199733
0.201677
0.213742
0.210815
0.212365
0.167123
0.288458
0.0361151
0.0134533
-0.565901
-0.468779
-0.554297
-0.380949
-0.385613
-0.211147
-0.183276
-0.229625
-0.234966
-0.394036
-0.422881
-0.404403
-0.333019
-0.276126
0.125759
0.115724
0.144008
0.150755
0.190372
0.191517
0.193487
0.192446
0.631261
0.653535
0.661112
0.634957
-3.88497
-6.71063
-0.264509
-0.122945
0.00172159
0.00326919
0.0022125
0.00264437
0.00030537
-0.00767347
-0.280324
-0.277591
-0.233838
-0.255504
0.334494
0.335974
0.672243
0.663438
0.657385
0.609925
0.197304
0.199467
0.204978
0.20083
-0.226952
-0.134541
-0.174062
0.416522
0.431041
0.428649
-0.0611271
-0.146421
0.0204784
0.0476291
0.320696
0.303663
0.320135
0.358237
0.395322
0.678592
0.696927
0.695168
0.703712
0.747804
0.764261
0.729509
0.15602
0.165516
0.16057
0.196472
0.194019
0.195089
0.190175
0.191804
0.189395
-0.369249
-0.756595
0.171682
0.193753
0.158846
0.175298
0.323448
0.396663
0.370089
0.38133
0.382668
-0.28727
-0.349076
-0.0351546
-0.0781347
0.0724938
0.104787
0.0874552
0.602272
0.562992
0.612911
0.586289
0.547835
0.573259
-0.708307
-2.23703
-1.33977
0.237614
0.0455147
0.135363
-0.240312
-0.275235
-0.269601
0.648562
0.729622
0.345251
0.506447
0.51865
0.435965
0.466961
0.52006
0.4456
0.480105
0.515619
0.497699
0.205753
0.180842
0.175226
0.467605
0.523171
-0.173897
-0.226112
-0.275509
-0.176958
-0.135774
-0.143594
0.697896
0.58434
0.6602
0.207712
0.208395
0.00397072
-0.00128801
0.212504
0.212585
-0.00571189
-0.0223152
0.117671
-1.16634
-0.185389
0.20088
0.191372
0.208052
-0.402205
0.0640617
-0.460714
-0.256107
-0.304157
0.198782
0.142029
0.107225
0.00971301
-0.106447
-0.0716353
-0.518693
0.205361
0.203698
0.207548
0.208582
0.209224
0.00156623
-0.00561554
0.00110828
-0.0552881
-0.0184725
-0.0192251
0.173349
0.189616
-0.480332
0.207733
0.209842
0.209689
0.20271
0.208532
0.206638
-0.0742718
-0.0439526
-0.0960461
-0.074906
0.0413603
0.370301
0.471337
0.330828
0.102064
-0.140339
0.267254
0.334928
0.234389
0.397288
0.37797
0.395691
-0.124683
-0.271843
-0.116971
-0.171144
0.198877
0.19751
0.18959
0.186729
0.20296
0.200992
0.205662
0.202468
0.2055
0.206903
-0.355055
-0.384687
-0.395647
-0.459892
0.0238769
0.279671
-0.044828
-0.0125909
-0.150572
-0.490553
-0.425101
-0.458477
-0.432059
-0.452374
-0.313757
-0.282459
-0.251214
-0.330924
-0.377004
-0.500181
-0.39917
-0.411091
0.192982
0.191906
0.198106
0.205085
0.151013
0.154328
0.123422
0.141519
0.12702
0.0734887
0.106548
0.082907
-0.00016996
0.0107611
0.00448542
-0.118878
-0.222838
-0.0458447
-0.0116485
-0.0109431
-0.0232875
-0.0310451
-0.114558
-0.140814
-0.478948
-0.59677
0.65461
0.602867
-0.202687
0.19457
0.201
0.197804
0.202518
0.205615
0.20647
0.204251
0.200881
0.190314
0.192187
0.188216
0.188635
-0.423483
-0.558095
-0.380807
-0.447503
-0.189351
0.310672
0.0540698
-0.00519104
-0.00984922
0.204829
0.607816
0.409933
0.420879
0.445792
-0.665771
-0.264782
-0.597154
0.0244397
-0.154843
0.366975
0.419231
0.443229
0.388805
0.338691
-0.44225
0.215027
-0.366307
-0.323178
-0.133802
-0.236452
0.410592
0.362173
0.369292
0.383544
0.403212
0.36679
0.345426
0.342965
0.378711
0.383732
0.177585
-0.0428494
-0.0879042
-0.124642
0.343074
0.218173
0.273978
0.190844
0.193677
0.196555
0.195088
0.178169
0.185278
0.181193
0.186414
0.189388
0.198787
0.199241
0.194456
0.19691
-0.370966
-0.374006
-0.332751
-0.442852
-0.435907
-0.482044
-0.375109
-0.241078
-0.275947
-0.0871239
0.0257895
-0.270533
-0.382855
-0.349956
-0.322955
-0.139978
-0.11945
-0.212037
-0.132425
-0.12262
-0.144177
-0.0427907
-0.0419217
-0.478012
-0.438404
-0.414435
-0.458939
-0.298369
-0.199915
-0.190072
-0.485077
-0.589421
-0.407728
-0.33656
-0.335692
-0.376645
-0.395321
-0.308533
-0.102407
-0.119249
-0.181551
-0.403493
-0.311142
-0.357754
0.188487
0.189953
0.190023
0.20117
0.212644
0.227782
0.194028
0.171236
0.16294
0.166043
0.141361
0.150909
0.146144
0.159006
0.178313
0.184966
0.184718
0.186751
0.171443
0.172615
0.160741
0.163825
0.141599
0.124776
0.113939
-0.0502906
-0.0309372
-0.047343
-0.063108
-0.00980476
-0.0272204
-0.311157
-0.207557
-0.265158
-0.228733
-0.344466
-0.0487173
-0.0666718
-0.392034
-0.316282
-0.507353
-0.536228
-0.607165
0.565651
0.672525
0.49518
0.281048
0.284642
0.509445
0.606765
0.244912
0.414804
0.445958
0.216732
0.488519
0.199502
0.19895
0.196498
0.196009
0.197559
-0.340464
-0.241364
-0.222336
-0.174709
-0.0588311
0.0568236
-0.0362422
-0.162627
-0.0223164
-0.0113278
0.305733
0.322319
0.266643
0.291887
0.291116
0.117903
0.193049
0.248146
0.203106
0.246939
0.268941
0.229683
0.259428
0.207613
0.165675
0.164572
0.111355
0.131764
0.109686
0.0918204
0.189414
0.168405
0.178011
0.170027
0.189698
0.217463
0.212815
0.238589
0.250663
0.174973
0.137434
0.146217
0.173169
0.135687
0.148434
0.162829
-0.119025
-0.217785
-0.1304
-0.424076
-0.334826
-0.350334
-0.396224
-0.357409
-0.0704439
-0.773442
-0.741947
-1.37983
0.151084
0.633838
0.367686
0.340602
0.401012
0.377912
0.38182
0.409759
0.416251
0.333337
0.353366
0.35515
0.305427
0.332266
0.357911
0.35572
0.186588
0.0693973
0.0608258
0.0224225
-0.0986275
-0.0679672
0.133609
0.0564226
-0.0151529
-0.0104289
0.153089
0.0448386
0.10935
0.14706
0.0813182
0.0383319
0.234505
0.302357
0.293003
0.267808
0.182759
0.194196
0.22095
0.25736
0.283631
0.318802
0.186349
0.19181
0.193065
0.190652
0.188173
0.19092
0.190838
0.193367
0.194338
0.197292
0.196173
-0.405193
-0.391433
-0.360587
-0.384977
-0.319875
-0.323439
-0.281144
-0.293743
-0.323686
-0.311781
-0.341472
-0.355008
-0.361343
-0.350525
-0.199157
-0.191972
-0.222747
-0.252093
-0.0661864
0.063062
0.1243
0.0117521
-0.0935978
-0.0749718
-0.0415995
-0.321084
-0.331729
-0.36888
-0.274563
-0.262699
-0.495399
-0.459486
-0.463394
-0.594738
-0.511368
-0.369937
-0.195038
-0.23693
-0.287887
-0.28317
-0.225128
0.173083
0.167141
0.168893
0.163448
0.162406
0.175384
0.17936
0.181041
0.18557
0.18706
0.179169
0.183278
0.186552
-0.241738
-0.112461
-0.16217
-0.21653
-0.145178
-0.0996424
-0.130898
-0.215186
-0.280919
-0.272275
-0.320872
-0.441858
-0.385596
0.137051
0.126832
0.145842
0.362172
0.217221
0.132877
0.220486
0.324516
-0.07192
0.12944
-0.0402653
0.539446
0.42705
0.569007
0.201662
-0.102711
0.0480791
0.103322
-0.0959638
-0.0243195
0.000149577
-0.110184
-0.0801794
-0.0517628
0.0499501
-0.073522
-0.103199
-0.349485
-0.166414
-0.0347539
-0.057039
0.0766419
0.14119
-0.0887009
-0.165151
-0.206499
0.296015
0.316913
0.335606
0.305047
0.328618
0.252101
0.242703
0.261551
0.271556
0.265296
-1.10879
-0.818216
-1.7588
-1.06555
-0.620026
0.185148
0.138447
0.432081
0.318409
0.396015
0.377826
0.333732
0.297516
0.307136
0.343434
0.0458609
0.153852
0.128226
0.135864
0.0401173
-0.0274535
0.271126
0.26456
0.301902
0.326469
0.292792
0.326989
0.184337
0.183884
0.183208
0.179998
0.178223
0.180463
-0.240297
-0.277046
-0.236027
-0.249535
-0.269534
-0.28958
-0.381973
-0.360748
-0.2818
-0.272564
-0.282597
-0.339981
-0.182826
-0.238327
-0.305508
-0.279721
-0.33448
-0.399321
-0.418194
-0.320062
-0.233437
-0.239702
0.0636497
0.315085
0.141257
0.311456
0.149822
0.207394
0.145784
0.143586
0.177563
0.0400145
0.11425
-0.128384
-0.630072
-0.537007
0.44358
0.464102
0.25167
0.0582187
-0.168507
0.0272092
0.216181
0.154781
0.195291
0.262845
0.256835
-0.340434
-0.266378
-0.0295206
0.197564
-0.111302
-0.118243
-0.123
0.0408988
-0.029807
)
;

boundaryField
{
    wall-4
    {
        type            zeroGradient;
    }
    velocity-inlet-5
    {
        type            zeroGradient;
    }
    velocity-inlet-6
    {
        type            zeroGradient;
    }
    pressure-outlet-7
    {
        type            fixedValue;
        value           uniform 0;
    }
    wall-8
    {
        type            zeroGradient;
    }
    frontAndBackPlanes
    {
        type            empty;
    }
}


// ************************************************************************* //
