/*--------------------------------*- C++ -*----------------------------------*\
  =========                 |
  \\      /  F ield         | OpenFOAM: The Open Source CFD Toolbox
   \\    /   O peration     | Website:  https://openfoam.org
    \\  /    A nd           | Version:  13
     \\/     M anipulation  |
\*---------------------------------------------------------------------------*/
FoamFile
{
    format      ascii;
    class       volVectorField;
    location    "25";
    object      U;
}
// * * * * * * * * * * * * * * * * * * * * * * * * * * * * * * * * * * * * * //

dimensions      [0 1 -1 0 0 0 0];

internalField   nonuniform List<vector> 
918
(
(0.985164 -0.000507441 0)
(0.00500717 2.96625 0)
(-0.0156739 1.52751 0)
(0.979703 0.00215059 0)
(-0.00251952 1.50661 2.85851e-20)
(-0.00703778 2.94879 -1.8457e-18)
(0.846421 1.1871 7.3169e-19)
(0.383897 0.173963 -8.9524e-21)
(0.999907 -0.000289451 0)
(0.0488391 0.85083 0)
(-0.0341524 0.647718 0)
(0.73534 -0.00997848 0)
(0.0111151 2.93038 0)
(0.00175019 2.79499 0)
(-0.0175845 3.16382 1.08259e-18)
(0.0285313 1.31532 1.41254e-19)
(0.487218 0.0737033 5.59302e-19)
(0.191449 1.21732 6.34871e-19)
(0.962939 0.00500518 0)
(-0.0205799 1.12632 0)
(0.11158 0.220734 -4.58167e-19)
(1.00202 -0.00498467 0)
(1.00021 -0.0097981 0)
(0.975711 -0.006453 0)
(0.636952 -0.0421131 0)
(0.0168853 2.6353 0)
(-0.0151029 2.91016 6.35402e-19)
(-0.0332422 1.52456 0)
(-0.0444831 1.67482 0)
(-0.0236317 1.52054 0)
(-0.0118842 1.94011 0)
(0.0181509 1.53528 -2.25984e-20)
(0.015358 1.3654 0)
(-0.0206177 2.98759 -6.44582e-23)
(-0.0166981 3.0053 1.43457e-18)
(0.00210166 3.0002 0)
(0.869983 -0.00952906 0)
(0.400538 0.938647 -3.30245e-20)
(0.822058 1.20658 -1.02614e-18)
(0.970718 1.03965 9.61979e-19)
(0.690609 1.30341 -1.69737e-19)
(0.689777 1.29344 9.49276e-19)
(0.423823 0.267974 8.7345e-21)
(0.415897 0.158667 0)
(1.15821 0.559842 0)
(0.385335 0.274046 4.05775e-20)
(0.335739 0.17331 -4.21121e-20)
(0.919587 -0.00749718 0)
(1.00028 0.00015409 0)
(0.99991 0.000347539 0)
(1.00363 -0.00779635 0)
(1.00096 -0.00097034 0)
(1.00017 1.64001e-05 0)
(0.0818825 1.77856 -1.97934e-19)
(0.0352671 0.986826 0)
(0.102439 0.933269 0)
(0.027032 0.930262 0)
(0.0394347 0.779352 0)
(-0.0728734 1.89206 0)
(-0.00460272 0.757404 0)
(0.00600966 0.623172 0)
(-0.0342714 0.790133 0)
(-0.0388493 0.73357 0)
(0.830517 -0.012424 0)
(0.85308 0.0217621 0)
(0.765648 0.002331 0)
(0.833498 0.0241246 0)
(0.717532 -0.0173891 0)
(0.0146947 3.0004 6.75206e-19)
(0.011509 3.00795 0)
(0.00612386 3.00281 0)
(0.0135373 2.99734 7.51965e-24)
(0.00798764 2.95847 -1.00352e-18)
(0.0144932 2.98208 0)
(0.0108291 2.90359 0)
(0.0246276 2.93064 1.33898e-24)
(0.00435793 2.82524 0)
(0.0311179 2.91594 0)
(-0.00575894 2.74434 0)
(0.311416 3.56434 0)
(-0.132278 3.64647 0)
(0.141222 3.25482 -1.0075e-18)
(-0.0117189 2.98766 0)
(-0.0840106 1.8704 0)
(0.0708723 1.48879 -1.39362e-19)
(0.00936403 1.28022 1.96284e-19)
(0.557214 0.156533 -1.92695e-19)
(0.490133 0.0427631 -1.86429e-19)
(0.536486 0.179445 -5.80792e-19)
(0.474723 0.0948132 -3.91088e-19)
(0.219026 0.907415 0)
(0.27062 1.36032 -6.62326e-19)
(0.389953 1.3114 1.08801e-18)
(0.987664 0.0085918 0)
(0.942172 0.00594219 0)
(1.0003 0.0005797 0)
(1.00286 0.00930624 0)
(1.003 0.00843859 -1.08143e-18)
(0.991927 0.00970038 8.16537e-19)
(-0.0477829 1.23364 0)
(-0.0437983 1.0374 0)
(-0.0552856 1.51159 0)
(-0.0389037 1.34667 0)
(-0.0129699 1.22692 0)
(0.165606 0.229492 1.41276e-19)
(0.214658 0.206085 0)
(0.993515 -0.00837689 0)
(0.954358 -0.00644473 0)
(0.798681 0.0286894 0)
(0.76263 0.0393017 0)
(0.691165 -0.0324657 0)
(0.97044 -0.0036836 0)
(0.700218 0.0568382 0)
(0.541151 -0.0200196 7.4309e-19)
(-0.036305 2.86419 3.20676e-19)
(0.0425098 2.90849 0)
(0.055736 2.88416 0)
(-0.00538355 2.69808 0)
(-0.0129535 2.98536 5.82499e-19)
(-0.0181176 2.89544 0)
(-0.0153298 2.98812 -1.84601e-18)
(-0.0133746 2.92525 6.38054e-19)
(-0.0723451 1.74574 0)
(-0.0719667 1.78055 0)
(0.0516952 1.50242 3.19711e-21)
(0.0336788 1.49638 0)
(0.00926006 1.34168 0)
(0.937286 -0.00741458 0)
(0.855358 -0.00922571 0)
(0.864685 0.00759737 0)
(0.948678 -0.00776758 0)
(0.883287 -0.00864251 0)
(0.514107 1.13396 3.03394e-20)
(0.565255 1.18733 0)
(0.36167 0.879539 4.21466e-21)
(0.304331 0.740474 0)
(0.930658 1.07847 -2.78435e-19)
(1.04422 0.878229 5.70071e-19)
(0.384074 1.39997 0)
(0.544681 1.37074 0)
(0.547456 1.3311 0)
(0.101347 0.164555 -1.3193e-19)
(0.467088 0.253533 0)
(0.451418 0.149056 1.12425e-19)
(1.01425 0.932272 0)
(1.08219 0.778149 0)
(1.10728 0.720409 -5.00064e-19)
(1.13838 0.61906 0)
(1.18918 0.403848 5.77167e-20)
(0.957278 -0.00866108 0)
(0.962197 -0.0100861 0)
(0.901249 -0.00811581 0)
(0.984134 -0.00915842 0)
(0.974548 -0.0094268 0)
(0.936989 -0.00627039 0)
(1.00017 0.00233777 0)
(1.00088 0.00140894 0)
(0.999912 0.000853758 0)
(0.0337556 2.03358 1.33425e-19)
(0.122382 1.71306 0)
(0.024261 2.13932 9.13418e-20)
(0.0423262 1.85351 -1.34023e-20)
(0.13716 1.2075 -5.25991e-19)
(0.046476 1.07637 0)
(0.0960454 1.07646 0)
(0.0042834 0.862848 0)
(-0.0100702 0.720162 0)
(-0.0564697 2.12503 3.10689e-21)
(-0.0348595 1.94437 0)
(-0.0904792 2.02019 2.02269e-19)
(-0.0973381 1.7582 -4.08358e-19)
(0.0117949 0.828872 0)
(0.0198752 0.784444 0)
(0.00240166 0.666394 0)
(-0.0508786 0.868326 0)
(-0.0442186 0.812434 0)
(0.926211 0.0097521 0)
(0.840669 -0.00828366 0)
(0.919477 -0.000254287 0)
(0.836371 -0.0118417 0)
(0.813746 0.0055161 0)
(0.904099 0.017189 0)
(0.88207 0.0201472 0)
(0.789258 0.00341803 0)
(0.00572339 3.06475 -5.91359e-21)
(0.0165545 3.05802 0)
(0.014698 2.96912 0)
(0.00852127 2.87628 0)
(0.930373 3.98478 0)
(1.24629 3.31598 1.01482e-18)
(0.0710507 3.07972 0)
(-0.0269951 2.90916 0)
(-0.109443 1.76872 0)
(-0.115474 1.84844 0)
(-0.090214 1.80885 0)
(-0.0364086 1.94267 -1.85651e-21)
(-0.0972397 1.90171 0)
(-0.061414 1.88966 0)
(-0.0439337 1.42146 1.02624e-21)
(0.00648211 1.57077 -2.43092e-19)
(0.0554253 1.50096 -2.00693e-19)
(-0.0231141 1.2978 0)
(0.586667 0.124441 2.82247e-19)
(0.505611 0.0162759 -2.75648e-19)
(0.25938 1.53749 0)
(0.261548 0.679712 -2.07616e-19)
(0.176025 1.62809 -6.96273e-19)
(0.227228 1.15828 6.98045e-19)
(0.90277 0.00664791 0)
(0.967649 0.0109036 0)
(0.974772 0.0108109 0)
(0.923722 0.00670484 0)
(-0.0657588 0.975727 0)
(-0.054925 1.1072 0)
(-0.0591525 0.930659 0)
(0.33164 0.266247 3.70865e-19)
(0.27496 0.244125 -4.49046e-19)
(0.283576 0.18842 0)
(1.09745 0.0865361 -4.10153e-21)
(1.08158 0.0403442 0)
(1.00938 0.0408764 0)
(0.906354 0.00327111 0)
(0.609528 0.0956958 0)
(0.6404 0.0694108 -1.19644e-18)
(0.521232 0.00140662 4.57174e-19)
(0.00947913 2.98152 4.08627e-19)
(-0.0326707 2.86693 4.76393e-20)
(0.00375622 3.05016 -1.27921e-20)
(0.0200692 3.04351 4.60556e-19)
(-0.015025 2.99656 2.12316e-20)
(-0.0129843 2.94947 -8.59918e-23)
(-0.0172647 3.01198 -4.03332e-19)
(0.0148071 3.02398 2.91458e-19)
(0.00730512 3.03671 -4.54834e-19)
(0.929796 -0.00117154 0)
(0.937136 -0.0035406 0)
(0.843521 -0.00766875 0)
(0.957007 0.0113864 0)
(0.943667 0.0124942 0)
(0.88277 0.0063867 0)
(0.919742 0.0154082 0)
(0.927752 0.0144126 0)
(0.840355 0.0064611 0)
(0.721 1.41654 3.30159e-19)
(0.75575 1.5269 0)
(0.214033 0.354717 2.50311e-20)
(0.178808 0.62144 2.1256e-19)
(0.260123 0.702533 -1.20314e-19)
(0.262292 0.567276 2.24289e-19)
(0.305596 0.723897 7.50773e-19)
(0.113135 0.195034 2.15049e-19)
(0.518239 0.202308 4.19659e-19)
(0.49881 0.230269 1.06029e-19)
(0.46991 0.125355 2.12021e-19)
(1.17773 0.460681 3.00127e-19)
(1.19233 0.25614 3.12121e-19)
(0.011358 2.15045 -9.91611e-21)
(0.0482568 1.92541 0)
(0.961269 0.0316273 0)
(0.930275 0.0179019 0)
(0.862933 -0.00657005 0)
(0.0110606 3.07452 0)
(0.0198045 2.94404 7.86906e-19)
(0.0165103 2.9564 0)
(0.00618544 2.85078 -7.80589e-19)
(0.00612448 3.09106 1.86073e-19)
(0.00736408 3.08269 0)
(0.789527 1.8314 -2.40155e-19)
(1.25385 2.51312 6.6195e-19)
(0.772134 1.97204 -1.4957e-18)
(0.0208045 2.9829 -2.97454e-19)
(0.0369138 3.00511 0)
(-0.0326093 2.88094 0)
(-0.112032 1.85492 -1.59482e-20)
(-0.0455274 1.70107 4.8389e-19)
(-0.0689557 1.58604 -1.52139e-20)
(0.275255 1.34612 6.77136e-19)
(0.211074 0.455889 -4.66901e-19)
(0.0625584 1.95956 4.48971e-19)
(0.1369 1.84938 -5.67467e-19)
(0.178573 1.45175 8.63863e-20)
(0.00209513 3.1186 -1.09353e-18)
(0.016825 3.11784 1.17065e-18)
(-0.0087804 2.98125 5.02989e-19)
(-0.0030417 2.97772 -4.43737e-19)
(-0.0212691 2.88197 -5.12279e-19)
(0.00873916 3.09966 -1.36167e-18)
(0.00246351 3.10624 1.32458e-18)
(0.245211 0.63825 0)
(0.20193 0.628102 -4.03244e-19)
(0.106316 0.211157 1.83136e-19)
(0.328248 0.844939 6.45885e-19)
(0.173639 0.235105 -9.88656e-19)
(1.18402 0.173263 -5.89832e-20)
(1.19191 0.309204 0)
(1.1727 0.121029 1.22245e-19)
(-0.0415507 2.17354 2.54044e-21)
(-0.00553814 2.17932 0)
(0.0187292 1.96472 0)
(0.33729 1.24167 -2.45835e-19)
(0.353423 1.05801 -5.22705e-19)
(0.185769 0.329034 8.99028e-19)
(1.00583 -0.0109385 0)
(1.00763 -0.00766531 1.97134e-19)
(-0.0945992 1.69706 0)
(-0.102411 1.68739 0)
(1.00223 0.00354023 1.84293e-21)
(1.00364 0.00937195 4.05998e-19)
(-0.0301691 1.96281 2.37968e-21)
(-0.015029 1.98351 0)
(0.0383737 3.18166 1.10245e-19)
(0.399743 3.49906 0)
(1.12461 0.643866 6.71366e-20)
(1.01301 0.0130705 -2.04569e-21)
(1.02104 -0.0106218 0)
(1.00173 0.000105482 9.86634e-23)
(0.106655 1.35923 0)
(0.137192 2.57528 0)
(-0.0170412 1.04895 0)
(-0.0293009 2.65765 -2.49351e-19)
(-0.207455 2.62077 -2.43923e-19)
(1.00765 0.026638 2.67826e-21)
(1.05578 -0.00414686 0)
(1.0794 0.023957 0)
(-0.13328 1.84636 0)
(-0.0598507 2.17057 0)
(-0.207371 1.46414 0)
(0.279051 1.46724 -4.38609e-19)
(1.01123 -0.00968521 0)
(1.00937 -0.0150159 0)
(1.00252 0.000654824 2.51659e-19)
(1.00548 -0.00493003 -2.96099e-19)
(1.00121 -0.00103642 0)
(-0.177027 1.79235 0)
(-0.132669 1.70187 0)
(-0.137868 1.76333 0)
(-0.185463 1.48247 0)
(-0.137728 1.59706 0)
(-0.13545 1.55403 0)
(1.03453 -0.0072486 0)
(1.02068 0.0151273 -1.08484e-21)
(0.781857 1.25758 5.21573e-19)
(1.00218 0.000364151 -2.49468e-19)
(1.00411 0.00526931 2.95938e-19)
(1.00117 0.00206224 0)
(1.01292 0.010274 2.4469e-19)
(1.00796 0.00817349 -3.03891e-19)
(1.00874 0.014529 0)
(-0.0453576 2.15744 0)
(-0.0290064 2.05616 -7.11433e-20)
(-0.0159857 2.07231 6.00172e-20)
(1.19639 0.259828 -7.93897e-20)
(1.1342 0.0890513 0)
(0.0491228 3.07717 -5.06583e-19)
(0.0674066 2.85182 -4.0413e-20)
(0.145813 3.19542 8.12464e-19)
(0.140428 3.22484 9.46322e-22)
(0.138196 3.23919 0)
(0.0215112 3.13814 1.09707e-19)
(0.0794659 3.16149 4.93337e-19)
(0.0720968 3.18835 -2.12018e-19)
(0.0244382 3.12915 0)
(0.658755 0.323933 0)
(0.578887 0.372622 0)
(1.09604 0.673708 -2.5625e-19)
(1.0943 0.808091 3.95366e-19)
(1.15456 0.563627 0)
(1.18536 0.50979 0)
(1.01616 0.013192 -4.52569e-19)
(1.01499 0.0140678 5.64971e-19)
(1.02504 -0.0105309 0)
(1.02306 -0.0123615 0)
(1.0067 0.00239073 0)
(1.01061 0.00361337 0)
(1.00442 0.00174141 0)
(1.00986 0.00626128 0)
(1.00787 0.00588723 0)
(1.00444 0.00441866 0)
(0.0954468 1.35854 0)
(0.0926211 1.31079 0)
(0.117102 1.38463 0)
(0.142189 1.40491 0)
(0.143523 2.5967 0)
(0.187375 2.65495 -1.98497e-19)
(0.102082 2.65261 0)
(0.076485 2.65779 -2.27187e-20)
(0.0331921 2.67428 2.23529e-19)
(-0.0345508 1.01745 0)
(-0.0919278 0.956567 0)
(0.0862172 1.07126 0)
(0.0543444 1.00621 0)
(0.0417534 2.17527 4.06507e-19)
(-0.185316 2.65314 -3.29447e-19)
(-0.0892482 2.70555 -3.91976e-19)
(-0.144314 2.6837 0)
(-0.216988 2.63652 6.29687e-19)
(-0.219833 2.57944 4.01846e-19)
(0.0739561 2.22982 -2.76166e-19)
(-0.163309 2.58913 4.65399e-19)
(-0.0853559 2.55989 4.73666e-19)
(1.01602 0.0342139 4.49257e-19)
(1.00866 0.0209412 -5.52971e-19)
(1.00806 0.0361798 -4.59461e-19)
(0.99012 0.015643 5.95069e-19)
(1.05635 0.000510205 0)
(1.04381 -0.0136819 0)
(1.07802 0.0294237 0)
(1.06192 0.00599832 0)
(1.05833 -0.00186915 0)
(1.1183 0.0799335 0)
(1.09066 0.0460162 0)
(1.09232 0.0389085 0)
(-0.097756 1.96194 8.21339e-22)
(-0.160171 1.91444 0)
(-0.113607 1.91677 0)
(-0.11228 2.27838 -7.56263e-20)
(-0.100266 2.30086 5.44926e-21)
(-0.285379 1.85872 -3.38572e-20)
(-0.20755 1.79549 3.43134e-20)
(-0.255527 1.62263 0)
(-0.216624 1.67053 0)
(-0.184612 1.68991 0)
(-0.242104 1.39171 0)
(-0.145464 1.25985 0)
(0.372035 1.47875 8.35059e-19)
(0.404239 1.49215 3.30703e-19)
(0.591412 2.43675 -1.5398e-19)
(0.40876 2.53068 4.20722e-19)
(0.354859 2.08549 -4.90081e-20)
(1.021 -0.00860976 0)
(1.01546 -0.0100037 0)
(1.01477 -0.0156409 0)
(1.00784 -0.00143876 0)
(1.00489 -0.00121774 0)
(1.00771 -0.00486913 0)
(1.0092 -0.00371143 0)
(1.01405 -0.00455577 0)
(1.02151 0.0156465 4.30381e-19)
(1.01784 0.0156946 -5.54844e-19)
(1.02225 0.0176468 -4.30539e-19)
(1.01936 0.0165832 5.39014e-19)
(0.75216 1.30839 0)
(0.687106 1.36246 6.13717e-19)
(0.860104 1.1999 3.6001e-19)
(0.906033 1.15605 -4.79013e-19)
(1.15666 2.61799 -5.49852e-19)
(0.833414 0.10042 2.91047e-19)
(1.13486 0.102828 0)
(1.17823 0.183863 6.81674e-20)
(1.16338 0.157935 3.01487e-21)
(0.992465 0.125999 0)
(0.142343 2.96418 1.40104e-19)
(0.120722 2.86974 -6.61015e-19)
(0.0319629 2.36348 4.72189e-19)
(0.0971721 0.0560432 -1.98014e-19)
(0.344402 3.42765 -4.39512e-19)
(0.197822 3.31866 0)
(0.239869 3.36213 5.72384e-19)
(0.251597 3.0375 -7.72158e-19)
(0.346212 3.19722 0)
(0.006613 3.12088 2.57756e-20)
(0.0166345 3.12979 -3.29938e-19)
(0.0149655 3.12576 4.85612e-19)
(0.0371043 3.14015 0)
(0.0358049 3.1512 0)
(1.21979 2.61904 0)
(0.544122 0.844059 -2.40889e-19)
(1.02508 0.983869 -2.0511e-19)
(0.963366 1.05103 0)
(0.807212 0.950633 5.50979e-20)
(1.04769 0.865429 3.00061e-20)
(0.389669 0.426844 -5.28e-19)
(0.699394 0.33786 -2.39493e-20)
(0.685538 0.263225 2.28024e-19)
(0.592409 0.403819 1.76368e-20)
(0.521485 0.380228 -7.2128e-19)
(0.669375 0.357552 0)
(0.691515 0.431824 3.74131e-19)
(0.695315 0.43065 0)
(0.628069 0.390909 0)
(0.614732 0.323984 0)
(0.777175 0.604168 1.31152e-19)
(1.19408 0.277802 5.08534e-20)
(1.19002 0.413357 0)
(1.20247 0.36193 0)
(0.770867 0.203317 3.34197e-19)
(0.823779 0.5419 -1.8581e-19)
(0.732126 0.512182 3.0233e-19)
(0.91751 0.418399 -2.82127e-19)
(1.01983 0.0144802 2.98445e-19)
(1.01796 0.0140395 -3.04548e-19)
(1.01594 0.01543 0)
(1.03534 -0.00657848 0)
(1.02934 -0.00895196 -2.73459e-19)
(1.02706 -0.0130627 2.70589e-19)
(1.02526 0.00937905 0)
(1.02402 0.0128364 0)
(1.01142 0.00389642 0)
(1.01434 0.00861942 0)
(1.01521 0.00333729 0)
(1.01414 0.00257838 0)
(0.0815662 1.33575 0)
(0.089072 1.22659 0)
(0.138597 1.34803 3.38272e-19)
(0.262 1.46403 2.50672e-19)
(0.163035 1.43577 5.33314e-19)
(0.190193 1.44299 -8.70927e-19)
(0.177588 1.37324 0)
(0.129413 1.60277 2.81026e-19)
(0.0892829 1.56387 0)
(0.354365 2.04228 7.12125e-20)
(0.352504 2.36684 2.29364e-19)
(0.173314 1.45042 -2.45358e-19)
(0.267165 1.36037 1.90166e-19)
(0.197378 1.35586 -1.52515e-19)
(0.279715 1.30213 3.17012e-19)
(0.252021 1.58276 0)
(0.252048 1.62324 -2.09486e-19)
(0.0501445 2.27184 1.03389e-19)
(0.046176 2.6681 0)
(0.0580853 2.39019 -1.77269e-19)
(0.0344197 2.41006 0)
(0.0711323 2.66115 2.38779e-20)
(0.0532519 2.69329 0)
(0.082742 1.47265 4.90937e-19)
(0.210798 1.63403 0)
(0.196569 1.36587 0)
(0.12611 1.31789 -5.43712e-19)
(-0.03605 2.67846 -3.98584e-20)
(0.0429132 2.68656 -2.97551e-19)
(-0.0102716 2.72257 -2.02412e-21)
(-0.240457 2.20661 -3.31569e-19)
(0.00121076 2.0166 -1.98494e-19)
(-0.114592 1.01936 0)
(-0.0849836 0.983467 0)
(0.132963 1.69588 -5.02739e-19)
(0.182728 1.48962 -5.23716e-19)
(0.163341 1.66019 6.54534e-19)
(0.105097 1.68175 0)
(-0.250967 2.13377 2.94365e-19)
(-0.206705 2.3035 -1.25779e-19)
(-0.239076 2.34377 4.47337e-20)
(-0.270108 2.13389 4.02349e-19)
(-0.25688 2.49412 1.06186e-19)
(-0.25006 2.5208 -4.65329e-19)
(1.02121 0.0212109 -2.9258e-19)
(1.01808 0.0271751 2.95053e-19)
(1.01443 0.0190388 0)
(1.0149 0.0521818 4.23537e-19)
(0.996064 0.0422708 -4.98687e-19)
(0.962737 0.0243665 5.77918e-19)
(1.01383 0.0862722 -5.47621e-20)
(1.04142 -0.00683137 0)
(1.04719 -0.0053002 2.43995e-19)
(1.03716 -0.0117549 -2.43852e-19)
(1.06438 0.0365493 -1.33752e-20)
(1.05696 0.0153968 1.19541e-19)
(1.06214 0.048086 0)
(1.05786 0.039855 -4.47348e-20)
(1.0388 0.0331836 0)
(1.03367 0.0303319 0)
(1.02704 0.0124779 0)
(1.02465 0.0150928 0)
(1.04547 0.0256919 9.30821e-20)
(1.0414 0.0181092 -2.12308e-19)
(1.05355 0.0212271 -9.38138e-20)
(1.05196 0.0229451 -1.08962e-19)
(1.06836 0.057075 1.93729e-19)
(1.08129 0.0507979 0)
(1.08844 0.0950512 0)
(-0.248182 2.10671 7.57444e-20)
(-0.197636 1.94981 3.24136e-21)
(-0.205517 1.979 0)
(-0.141992 2.10578 -7.56842e-20)
(-0.0982864 2.00161 -4.05681e-21)
(-0.121305 2.04771 1.14082e-20)
(-0.20144 2.56372 -3.65682e-19)
(-0.21605 2.43463 1.93368e-20)
(-0.261354 2.47907 -9.92638e-20)
(-0.163461 2.44804 1.99136e-19)
(-0.172812 2.45947 -2.27225e-19)
(-0.361723 1.74754 -7.03461e-21)
(-0.316775 1.88123 -9.76396e-20)
(0.365177 1.40684 -4.11418e-19)
(0.362581 1.35198 -3.93467e-19)
(0.637184 1.41096 -5.93544e-19)
(0.50718 1.47495 -3.18829e-19)
(0.555441 1.45038 0)
(0.588278 2.40969 1.23213e-19)
(0.654975 2.39914 2.23884e-19)
(0.413601 2.50645 7.97449e-20)
(0.407364 2.55127 -1.63714e-19)
(0.515723 2.5088 2.66964e-19)
(0.545996 2.44967 0)
(0.489961 2.49688 -3.51725e-19)
(0.249353 2.58207 5.78416e-19)
(0.356441 2.55554 -8.00994e-20)
(0.286522 2.63992 -8.85302e-19)
(0.927123 2.38144 2.27715e-19)
(0.826086 2.37692 0)
(1.0105 0.000100558 9.93329e-21)
(1.01482 -0.00562839 -8.0832e-21)
(1.0177 -0.00379202 -1.46278e-19)
(1.01478 -0.000752072 1.46636e-19)
(1.0121 0.000914227 0)
(0.623561 1.28032 0)
(0.635409 1.15755 0)
(0.735049 1.06986 0)
(0.627482 1.12718 0)
(1.18478 2.63469 5.73851e-20)
(1.07335 2.37212 0)
(0.844515 2.2254 -1.75345e-21)
(0.82617 2.47934 0)
(0.920993 2.56517 2.3297e-20)
(0.957482 2.51847 -1.55499e-20)
(0.841908 0.147392 0)
(0.811595 0.138748 8.38984e-20)
(0.92703 0.123672 4.29901e-19)
(0.862036 0.116979 -1.71993e-19)
(0.845327 0.0643298 -5.17158e-19)
(1.04627 0.218155 -2.43783e-19)
(0.962221 0.272977 -1.56961e-20)
(0.905139 0.27189 3.91755e-19)
(0.979597 0.199545 2.88971e-19)
(0.939352 0.160071 -5.4103e-19)
(0.912593 0.169047 7.01125e-20)
(0.940415 0.232392 -1.35874e-19)
(0.9168 0.192086 0)
(0.976697 0.158004 2.5926e-19)
(1.02359 0.166215 0)
(1.01663 0.192146 0)
(1.08161 0.1108 8.16281e-20)
(1.04823 0.158997 -1.30668e-20)
(1.04069 0.221409 -4.58242e-20)
(1.076 0.193007 0)
(1.02764 0.0350416 2.21422e-19)
(1.04723 0.047929 2.63218e-19)
(1.04137 0.0340231 -2.20754e-19)
(1.0472 0.0538467 -1.77263e-19)
(1.02447 0.0577468 -2.98009e-19)
(0.977888 0.127989 0)
(0.996164 0.0805124 0)
(0.969801 0.0428928 -2.09404e-19)
(0.93007 0.0594611 8.71245e-20)
(1.0346 0.086533 2.49018e-19)
(1.05266 0.111785 -2.50875e-19)
(1.05804 0.139084 2.29858e-19)
(1.02329 0.126865 0)
(1.06223 0.0997892 0)
(1.05049 0.0807937 -1.04452e-19)
(1.04516 0.0832222 -1.99297e-19)
(0.579924 1.0867 -9.37437e-20)
(0.618143 1.43529 1.95971e-19)
(1.15907 2.75567 1.01031e-19)
(1.22635 3.09404 -7.05282e-20)
(1.24991 2.73449 5.61927e-19)
(1.28219 2.71827 -3.39788e-19)
(1.20958 2.35626 -8.66104e-21)
(1.21265 2.99818 1.9394e-19)
(1.23083 2.9634 -2.14348e-19)
(1.21853 3.24776 -2.68175e-19)
(1.38061 2.98012 3.71265e-19)
(1.37331 2.89763 0)
(0.537759 0.853017 -1.34632e-20)
(0.154376 1.275 3.76438e-19)
(0.526024 0.492777 3.47195e-19)
(0.365162 0.259142 3.78682e-19)
(0.540041 0.404341 4.05198e-19)
(0.549643 0.487687 -6.28072e-19)
(0.551487 0.489665 5.15785e-19)
(0.507355 0.430356 -2.0897e-19)
(0.44497 0.367421 4.80152e-19)
(0.774969 0.254544 -1.86727e-19)
(0.735573 0.288752 0)
(0.727954 0.22553 1.09004e-20)
(0.717603 0.519102 1.91646e-19)
(0.684201 0.488428 -7.07746e-19)
(0.60944 0.481002 1.75432e-20)
(0.621033 0.471641 0)
(0.671152 0.721476 1.50966e-19)
(0.805536 0.756153 6.04105e-20)
(0.7314 0.832432 -7.82973e-20)
(0.84709 0.792719 -1.73791e-20)
(0.877542 0.834334 1.40525e-20)
(0.886422 0.835021 -1.43888e-20)
(0.819056 0.63674 -2.2464e-19)
(0.896356 0.691995 1.61598e-20)
(0.949387 0.702513 0)
(0.939707 0.678219 -1.46662e-20)
(0.9888 0.313191 6.20862e-20)
(1.10574 0.286385 2.19636e-21)
(1.0304 0.253281 9.96014e-20)
(0.96986 0.345399 -1.42944e-19)
(1.01622 0.408597 0)
(1.06908 0.398706 0)
(0.892445 0.353103 5.08018e-21)
(0.836245 0.285023 0)
(0.85315 0.27712 2.01963e-19)
(0.88835 0.279118 -6.00473e-21)
(0.909341 0.421961 7.71782e-19)
(0.868668 0.485956 1.95603e-19)
(0.870567 0.450514 -2.52407e-19)
(0.8012 0.437805 2.70852e-19)
(0.785657 0.439225 1.84856e-19)
(0.752974 0.423605 -1.81374e-19)
(1.02717 -0.000632819 2.33751e-19)
(1.01996 -0.000109156 0)
(1.01842 0.000975327 1.56315e-19)
(1.02205 -0.00184213 -3.51784e-19)
(1.02215 0.00395832 1.70721e-19)
(1.02036 0.0107531 -3.58423e-19)
(1.02137 0.0102906 0)
(1.02103 0.0105745 -7.5719e-20)
(1.01582 0.00744293 1.89815e-19)
(1.01665 0.0100778 -9.51988e-20)
(1.01761 0.00922806 7.02093e-20)
(0.0926094 1.1443 0)
(0.19646 1.26073 0)
(0.0887504 1.23428 0)
(0.075557 1.08954 0)
(0.0895131 1.38576 -6.98652e-19)
(0.0887599 1.36021 2.21428e-19)
(0.100805 1.48621 1.59209e-19)
(0.0787 1.37668 -1.82673e-19)
(0.160091 1.50334 4.60819e-19)
(0.145284 1.47583 -3.54549e-19)
(0.10831 1.36878 -2.0897e-20)
(0.148308 1.37918 4.6448e-19)
(0.166794 1.32094 6.9962e-20)
(0.184374 1.34096 6.30472e-20)
(0.0957285 2.37605 1.96075e-19)
(0.0953199 2.43113 0)
(0.16954 2.07216 -5.09527e-20)
(0.0732211 1.72073 -1.20186e-19)
(0.227994 2.0625 2.99783e-20)
(0.217109 2.4533 0)
(0.270205 2.40615 -1.12981e-19)
(0.305887 2.40642 8.06228e-20)
(0.243772 2.00881 9.38801e-20)
(0.156589 2.18561 -1.20152e-22)
(0.141309 2.3124 0)
(0.0913717 1.94383 4.82971e-19)
(-0.0154937 2.46835 5.75562e-19)
(0.0509082 2.27714 0)
(0.017628 2.46389 -2.37171e-20)
(0.00648977 2.3207 -2.22991e-19)
(-0.0273015 1.30389 -8.70125e-20)
(-0.123594 1.24172 1.39594e-18)
(-0.149933 1.31685 -3.41782e-19)
(-0.0533481 1.41973 -5.29388e-19)
(0.0718573 1.49883 0)
(-0.226511 1.20956 0)
(-0.231796 1.21405 -2.39419e-19)
(-0.292606 1.25797 7.69035e-20)
(-0.234031 1.21418 0)
(-0.16827 1.08837 -2.05113e-19)
(-0.142476 1.1106 3.76901e-19)
(1.0414 0.00700693 0)
(1.04456 0.00338186 -2.28647e-20)
(1.04162 0.0156418 -1.6896e-19)
(1.04986 0.0112801 0)
(1.0498 0.00989789 0)
(1.03576 0.00745683 -6.26868e-21)
(1.03166 0.00910798 2.78186e-19)
(1.03163 0.0129683 3.36072e-19)
(1.0265 0.0186064 0)
(1.02459 0.0196525 0)
(1.03679 0.0203429 1.69911e-19)
(1.02886 0.0250313 0)
(1.02706 0.0235771 0)
(-0.394322 2.14582 0)
(-0.369608 1.92034 -3.17273e-20)
(-0.387615 2.07004 -7.04139e-20)
(-0.315804 1.40171 0)
(-0.430973 1.83824 -1.33426e-19)
(-0.38373 1.69005 3.24858e-20)
(-0.36003 1.48814 0)
(0.385402 1.69431 0)
(0.362591 1.28047 6.46505e-19)
(0.302208 1.3365 0)
(0.411758 1.27379 -8.41069e-19)
(0.45897 1.4418 0)
(0.437826 1.38842 3.94096e-19)
(1.02839 2.70516 -4.18115e-21)
(0.951781 2.41648 -2.87651e-19)
(0.891182 2.1729 3.27553e-19)
(0.838403 2.37079 1.19354e-19)
(0.844223 2.52014 0)
(0.911101 2.51406 0)
(0.906798 2.37517 0)
(0.89473 2.35111 -4.52592e-19)
(0.690121 2.49578 -1.11418e-20)
(0.800239 2.48782 -1.29584e-20)
(0.811228 2.46022 9.92279e-21)
(0.68812 2.37906 0)
(0.791122 2.37808 0)
(0.751859 2.38754 -2.27108e-19)
(0.769018 2.50678 0)
(0.587819 1.08883 0)
(0.487586 0.943247 -2.50926e-21)
(0.542198 0.970835 -1.49258e-21)
(0.51633 1.06649 0)
(0.518798 1.02338 6.47428e-21)
(0.753811 0.85283 1.30707e-20)
(0.762202 0.996962 0)
(0.73711 0.953905 -6.2855e-20)
(0.61654 1.0203 0)
(0.626595 0.935955 0)
(1.1633 2.77614 5.55234e-20)
(1.14164 2.84033 1.23219e-19)
(0.934645 2.3672 -2.82456e-19)
(0.90118 2.34228 3.53418e-20)
(1.1266 2.74844 0)
(1.07809 2.71903 -4.23175e-20)
(1.08401 2.49615 -7.81994e-20)
(0.980665 2.23291 -2.954e-20)
(0.495242 1.37083 0)
(0.504254 1.07576 8.26498e-20)
(0.542358 1.15011 0)
(0.859077 0.218075 0)
(0.819795 0.170735 0)
(0.776573 0.160506 0)
(0.850045 0.223999 -3.17638e-19)
(0.794181 0.222871 1.96322e-19)
(0.938629 0.0505525 -1.78876e-19)
(0.952835 0.0992923 0)
(0.925344 0.104541 8.01694e-20)
(0.886412 0.0813903 3.2849e-19)
(0.872621 0.046098 -2.01607e-19)
(1.16818 3.37292 -9.80888e-19)
(1.2145 3.29236 0)
(1.16757 3.39954 -1.92897e-18)
(0.65404 3.55948 1.65654e-18)
(0.882216 3.12459 3.72682e-19)
(0.516483 0.881178 2.37704e-19)
(0.440217 0.875268 0)
(0.357843 0.526344 -8.51269e-20)
(0.458127 0.690016 3.9082e-19)
(0.532474 0.492489 -1.12021e-19)
(0.513099 0.5267 1.31544e-19)
(0.655356 0.53383 2.67816e-19)
(0.683118 0.556249 0)
(0.643415 0.615997 0)
(0.595299 0.553859 0)
(0.947733 0.584304 -5.34335e-20)
(0.872158 0.53164 -1.89064e-19)
(0.89888 0.565434 8.82999e-20)
(0.926818 0.501772 -1.38634e-19)
(1.03063 0.465242 0)
(1.0427 0.554547 -5.41413e-21)
(0.826688 0.389483 -4.07752e-19)
(0.831786 0.372601 -4.7027e-19)
(0.782119 0.388661 3.19973e-19)
(0.775362 0.354404 -3.62547e-19)
(0.831428 0.306024 -2.67746e-19)
(0.785584 0.307048 3.29388e-19)
(1.02616 0.00557299 -1.81116e-19)
(1.02594 0.00591724 3.71309e-19)
(1.02983 -0.000955343 2.21268e-19)
(1.03312 0.000984251 -2.70172e-19)
(1.03338 0.00633887 0)
(1.02994 0.00685228 -4.34997e-19)
(0.0641459 1.67609 -6.24532e-20)
(0.0837184 1.60212 0)
(0.0646365 1.70451 -5.13766e-19)
(0.0678973 1.68119 4.7212e-19)
(0.0882608 1.50701 -2.89951e-19)
(0.120473 1.51033 0)
(-0.377586 2.12807 0)
(-0.347519 1.68716 1.06107e-19)
(-0.44293 1.65843 -9.65259e-20)
(-0.415636 1.84656 -4.15694e-20)
(-0.383779 2.17266 1.54481e-19)
(-0.378799 2.19258 -9.38444e-20)
(0.490099 1.38085 4.20536e-19)
(0.482161 1.38627 -4.51754e-19)
(0.430652 1.27222 4.21141e-19)
(0.421829 1.29444 -2.59272e-20)
(0.612034 1.27785 0)
(0.533747 1.37555 5.36702e-19)
(0.551317 1.38853 -5.22222e-19)
(0.43953 1.25846 -4.06979e-19)
(0.491272 1.21353 0)
(0.547556 1.18005 0)
(0.655225 2.45288 1.63699e-20)
(0.667315 2.47617 5.28643e-19)
(0.716638 2.49351 -3.63895e-19)
(0.624103 2.47598 -1.19965e-19)
(0.559871 2.57084 9.9766e-20)
(0.51339 2.54327 -3.00228e-19)
(0.964853 2.37659 -1.76129e-19)
(1.00818 2.39823 0)
(0.906171 2.14997 -2.45975e-19)
(1.04642 2.69956 0)
(1.04816 2.68667 0)
(0.626438 2.28874 2.34334e-19)
(1.04825 3.17345 4.78671e-19)
(0.919313 3.04207 -4.2285e-19)
(0.29227 0.953647 0)
(0.344052 0.823744 -1.59308e-19)
(0.499529 0.779219 -7.73354e-20)
(0.404539 2.03572 0)
(0.471729 2.79002 -2.59414e-19)
(0.432909 2.55488 0)
(0.682634 0.66729 -3.13174e-19)
(0.75302 0.663924 3.98286e-19)
(0.775089 0.615812 -3.88929e-19)
(0.671201 0.641623 -4.65076e-20)
(0.717632 0.593585 -1.90111e-19)
(1.00857 2.77974 -3.63907e-19)
(1.04164 2.83492 2.84342e-19)
(0.651936 2.18265 6.35892e-20)
(0.609448 1.73674 -7.55689e-20)
(0.704635 1.92575 1.08411e-19)
(0.992852 2.46264 -6.83796e-20)
(0.995469 2.45991 -1.60463e-19)
(0.675511 1.87174 -4.94206e-21)
(0.461476 1.35322 -7.75439e-20)
)
;

boundaryField
{
    wall-4
    {
        type            noSlip;
    }
    velocity-inlet-5
    {
        type            fixedValue;
        value           uniform (1 0 0);
    }
    velocity-inlet-6
    {
        type            fixedValue;
        value           uniform (0 3 0);
    }
    pressure-outlet-7
    {
        type            zeroGradient;
    }
    wall-8
    {
        type            noSlip;
    }
    frontAndBackPlanes
    {
        type            empty;
    }
}


// ************************************************************************* //
