/*--------------------------------*- C++ -*----------------------------------*\
  =========                 |
  \\      /  F ield         | OpenFOAM: The Open Source CFD Toolbox
   \\    /   O peration     | Website:  https://openfoam.org
    \\  /    A nd           | Version:  13
     \\/     M anipulation  |
\*---------------------------------------------------------------------------*/
FoamFile
{
    format      ascii;
    class       volScalarField;
    location    "1.87";
    object      T;
}
// * * * * * * * * * * * * * * * * * * * * * * * * * * * * * * * * * * * * * //

dimensions      [0 0 0 1 0 0 0];

internalField   nonuniform List<scalar> 
1000
(
6.19564e-109
1.30786e-108
3.44324e-108
9.37326e-108
2.5595e-107
6.9818e-107
1.90146e-106
5.16988e-106
1.40328e-105
3.80257e-105
1.02867e-104
2.77807e-104
7.48989e-104
2.01591e-103
5.41665e-103
1.45296e-102
3.89076e-102
1.04011e-101
2.77575e-101
7.39505e-101
1.96679e-100
5.22195e-100
1.38408e-99
3.66222e-99
9.67344e-99
2.55076e-98
6.71442e-98
1.7644e-97
4.62845e-97
1.21205e-96
3.16851e-96
8.26864e-96
2.15406e-95
5.60177e-95
1.45424e-94
3.76867e-94
9.74945e-94
2.51775e-93
6.49057e-93
1.67029e-92
4.29077e-92
1.10031e-91
2.81663e-91
7.19741e-91
1.83593e-90
4.67484e-90
1.18825e-89
3.01493e-89
7.63615e-89
1.93063e-88
4.87247e-88
1.22751e-87
3.0869e-87
7.74896e-87
1.94172e-86
4.85678e-86
1.21264e-85
3.02225e-85
7.5188e-85
1.86716e-84
4.6284e-84
1.14523e-83
2.82858e-83
6.97357e-83
1.71614e-82
4.2156e-82
1.03365e-81
2.52986e-81
6.18054e-81
1.50716e-80
3.66858e-80
8.91331e-80
2.16163e-79
5.23269e-79
1.26435e-78
3.04936e-78
7.34087e-78
1.76393e-77
4.2307e-77
1.01283e-76
2.42021e-76
5.77248e-76
1.37424e-75
3.2655e-75
7.74511e-75
1.83355e-74
4.33254e-74
1.02183e-73
2.40546e-73
5.65197e-73
1.32551e-72
3.10276e-72
7.24923e-72
1.69049e-71
3.93471e-71
9.14088e-71
2.11952e-70
4.90525e-70
1.13307e-69
2.61231e-69
6.01121e-69
1.3806e-68
3.16477e-68
7.24076e-68
1.65345e-67
3.76845e-67
8.57229e-67
1.94623e-66
4.41013e-66
9.974e-66
2.25136e-65
5.072e-65
1.14043e-64
2.55927e-64
5.73212e-64
1.28135e-63
2.85872e-63
6.36541e-63
1.41459e-62
3.13749e-62
6.94516e-62
1.53436e-61
3.38312e-61
7.44476e-61
1.63503e-60
3.5838e-60
7.83972e-60
1.71158e-59
3.72932e-59
8.10961e-59
1.75997e-58
3.81193e-58
8.2398e-58
1.77755e-57
3.82697e-57
8.2228e-57
1.76324e-56
3.77338e-56
8.05891e-56
1.71769e-55
3.65375e-55
7.7563e-55
1.6432e-54
3.47414e-54
7.33031e-54
1.54353e-53
3.24357e-53
6.80217e-53
1.42359e-52
2.97328e-52
6.19724e-52
1.28905e-51
2.67579e-51
5.54297e-51
1.14588e-50
2.36396e-50
4.86684e-50
9.999e-50
2.05007e-49
4.1945e-49
8.5643e-49
1.74503e-48
3.54821e-48
7.19967e-48
1.45784e-47
2.94579e-47
5.94e-47
1.19526e-46
2.40008e-46
4.80928e-46
9.61661e-46
1.91889e-45
3.82087e-45
7.59206e-45
1.50536e-44
2.97852e-44
5.88087e-44
1.15868e-43
2.27804e-43
4.46927e-43
8.74958e-43
1.70928e-42
3.33205e-42
6.48159e-42
1.25812e-41
2.43687e-41
4.7099e-41
9.0836e-41
1.74812e-40
3.35697e-40
6.43261e-40
1.22996e-39
2.34668e-39
4.46763e-39
8.48712e-39
1.60879e-38
3.04296e-38
5.74313e-38
1.08157e-37
2.03241e-37
3.81085e-37
7.12989e-37
1.33104e-36
2.47942e-36
4.60844e-36
8.54681e-36
1.58161e-35
2.92036e-35
5.38042e-35
9.89093e-35
1.81425e-34
3.32045e-34
6.06364e-34
1.10486e-33
2.00869e-33
3.6438e-33
6.59521e-33
1.19106e-32
2.1462e-32
3.85865e-32
6.92194e-32
1.23893e-31
2.21255e-31
3.94242e-31
7.00899e-31
1.24329e-30
2.20043e-30
3.88564e-30
6.84601e-30
1.20346e-29
2.11076e-29
3.69371e-29
6.44911e-29
1.12344e-28
1.9526e-28
3.386e-28
5.85827e-28
1.01125e-27
1.74164e-27
2.9927e-27
5.13065e-27
8.77578e-27
1.49762e-26
2.54988e-26
4.33149e-26
7.34099e-26
1.24128e-25
2.09403e-25
3.52446e-25
5.91829e-25
9.91503e-25
1.65724e-24
2.76354e-24
4.59768e-24
7.63135e-24
1.26372e-23
2.0878e-23
3.44123e-23
5.65878e-23
9.2836e-23
1.51947e-22
2.48114e-22
4.04195e-22
6.56916e-22
1.06514e-21
1.72299e-21
2.78058e-21
4.47676e-21
7.19063e-21
1.15224e-20
1.84201e-20
2.93774e-20
4.67417e-20
7.41934e-20
1.17488e-19
1.85606e-19
2.9252e-19
4.59922e-19
7.21403e-19
1.12885e-18
1.7622e-18
2.74433e-18
4.26363e-18
6.60818e-18
1.02175e-17
1.57602e-17
2.42514e-17
3.72279e-17
5.70106e-17
8.70957e-17
1.32737e-16
2.01807e-16
3.0608e-16
4.63109e-16
6.99007e-16
1.05252e-15
1.58097e-15
2.369e-15
3.54122e-15
5.28064e-15
7.85533e-15
1.1657e-14
1.72564e-14
2.54833e-14
3.75408e-14
5.51685e-14
8.08758e-14
1.18273e-13
1.7254e-13
2.5109e-13
3.64509e-13
5.27864e-13
7.62554e-13
1.09889e-12
1.57968e-12
2.26526e-12
3.24041e-12
4.62395e-12
6.58198e-12
9.3461e-12
1.32383e-11
1.87053e-11
2.63649e-11
3.70692e-11
5.19909e-11
7.27392e-11
1.01516e-10
1.41327e-10
1.96265e-10
2.71883e-10
3.75705e-10
5.17885e-10
7.12102e-10
9.76727e-10
1.33637e-09
1.82389e-09
2.48309e-09
3.37215e-09
4.56815e-09
6.17296e-09
8.3208e-09
1.11881e-08
1.5006e-08
2.00766e-08
2.67937e-08
3.56693e-08
4.73665e-08
6.27431e-08
8.29041e-08
1.0927e-07
1.43663e-07
1.8841e-07
2.46477e-07
3.21637e-07
4.18668e-07
5.43612e-07
7.04083e-07
9.09648e-07
1.1723e-06
1.50701e-06
1.93246e-06
2.47184e-06
3.15387e-06
4.01406e-06
5.09611e-06
6.4537e-06
8.15256e-06
1.0273e-05
1.29126e-05
1.619e-05
2.02487e-05
2.52618e-05
3.14376e-05
3.90258e-05
4.83251e-05
5.96915e-05
7.3548e-05
9.0396e-05
0.000110828
0.00013554
0.000165352
0.000201221
0.000244264
0.000295781
0.000357278
0.000430495
0.000517437
0.000620403
0.000742026
0.000885309
0.00105366
0.00125095
0.00148154
0.00175034
0.00206285
0.00242523
0.0028443
0.00332767
0.00388373
0.00452172
0.00525175
0.00608491
0.00703324
0.0081098
0.00932869
0.0107051
0.0122551
0.0139962
0.0159466
0.0181257
0.0205539
0.0232524
0.0262434
0.0295496
0.0331947
0.0372027
0.041598
0.0464051
0.0516487
0.0573531
0.0635424
0.0702397
0.0774676
0.0852473
0.0935985
0.102539
0.112086
0.122252
0.133049
0.144485
0.156567
0.169295
0.18267
0.196686
0.211335
0.226604
0.242478
0.258936
0.275954
0.293504
0.311555
0.33007
0.349012
0.368338
0.388003
0.40796
0.428158
0.448547
0.469073
0.489682
0.510318
0.530926
0.551452
0.571841
0.59204
0.611997
0.631662
0.650987
0.669929
0.688444
0.706494
0.724043
0.741061
0.757518
0.773391
0.788659
0.803306
0.81732
0.830692
0.843417
0.855495
0.866926
0.877717
0.887875
0.897412
0.906342
0.914679
0.922442
0.929649
0.936322
0.942482
0.94815
0.953351
0.958106
0.96244
0.966375
0.969933
0.973136
0.976006
0.978561
0.980821
0.982802
0.984522
0.985995
0.987232
0.988246
0.989046
0.989639
0.990031
0.990227
0.990227
0.990031
0.989639
0.989046
0.988246
0.987232
0.985995
0.984522
0.982802
0.980821
0.978561
0.976006
0.973136
0.969933
0.966375
0.96244
0.958106
0.953351
0.94815
0.942482
0.936322
0.929649
0.922442
0.914679
0.906342
0.897412
0.887875
0.877717
0.866926
0.855495
0.843417
0.830692
0.81732
0.803306
0.788659
0.773391
0.757518
0.741061
0.724043
0.706494
0.688444
0.669929
0.650987
0.631662
0.611997
0.59204
0.571841
0.551452
0.530926
0.510318
0.489682
0.469073
0.448547
0.428158
0.40796
0.388003
0.368338
0.349012
0.33007
0.311555
0.293504
0.275954
0.258936
0.242478
0.226604
0.211335
0.196686
0.18267
0.169295
0.156567
0.144485
0.133049
0.122252
0.112086
0.102539
0.0935985
0.0852473
0.0774676
0.0702397
0.0635424
0.0573531
0.0516487
0.0464051
0.041598
0.0372027
0.0331947
0.0295496
0.0262434
0.0232524
0.0205539
0.0181257
0.0159466
0.0139962
0.0122551
0.0107051
0.00932869
0.0081098
0.00703324
0.00608491
0.00525175
0.00452172
0.00388373
0.00332767
0.0028443
0.00242523
0.00206285
0.00175034
0.00148154
0.00125095
0.00105366
0.000885309
0.000742026
0.000620403
0.000517437
0.000430495
0.000357278
0.000295781
0.000244264
0.000201221
0.000165352
0.00013554
0.000110828
9.0396e-05
7.3548e-05
5.96915e-05
4.83251e-05
3.90258e-05
3.14376e-05
2.52618e-05
2.02487e-05
1.619e-05
1.29126e-05
1.0273e-05
8.15256e-06
6.4537e-06
5.09611e-06
4.01406e-06
3.15387e-06
2.47184e-06
1.93246e-06
1.50701e-06
1.1723e-06
9.09648e-07
7.04083e-07
5.43612e-07
4.18668e-07
3.21637e-07
2.46477e-07
1.8841e-07
1.43663e-07
1.0927e-07
8.29041e-08
6.27431e-08
4.73665e-08
3.56693e-08
2.67937e-08
2.00766e-08
1.5006e-08
1.11881e-08
8.3208e-09
6.17296e-09
4.56815e-09
3.37215e-09
2.48309e-09
1.82389e-09
1.33637e-09
9.76727e-10
7.12102e-10
5.17885e-10
3.75705e-10
2.71883e-10
1.96265e-10
1.41327e-10
1.01516e-10
7.27392e-11
5.19909e-11
3.70692e-11
2.63649e-11
1.87053e-11
1.32383e-11
9.3461e-12
6.58198e-12
4.62395e-12
3.24041e-12
2.26526e-12
1.57968e-12
1.09889e-12
7.62554e-13
5.27864e-13
3.64509e-13
2.5109e-13
1.7254e-13
1.18273e-13
8.08758e-14
5.51685e-14
3.75408e-14
2.54833e-14
1.72564e-14
1.1657e-14
7.85533e-15
5.28064e-15
3.54122e-15
2.369e-15
1.58097e-15
1.05252e-15
6.99007e-16
4.63109e-16
3.0608e-16
2.01807e-16
1.32737e-16
8.70957e-17
5.70106e-17
3.72279e-17
2.42514e-17
1.57602e-17
1.02175e-17
6.60818e-18
4.26363e-18
2.74433e-18
1.7622e-18
1.12885e-18
7.21403e-19
4.59922e-19
2.9252e-19
1.85606e-19
1.17488e-19
7.41934e-20
4.67417e-20
2.93774e-20
1.84201e-20
1.15224e-20
7.19063e-21
4.47676e-21
2.78058e-21
1.72299e-21
1.06514e-21
6.56916e-22
4.04195e-22
2.48114e-22
1.51947e-22
9.2836e-23
5.65878e-23
3.44123e-23
2.0878e-23
1.26372e-23
7.63135e-24
4.59768e-24
2.76354e-24
1.65724e-24
9.91503e-25
5.91829e-25
3.52446e-25
2.09403e-25
1.24128e-25
7.34099e-26
4.33149e-26
2.54988e-26
1.49762e-26
8.77578e-27
5.13065e-27
2.9927e-27
1.74164e-27
1.01125e-27
5.85827e-28
3.386e-28
1.9526e-28
1.12344e-28
6.44911e-29
3.69371e-29
2.11076e-29
1.20346e-29
6.84601e-30
3.88564e-30
2.20043e-30
1.24329e-30
7.00899e-31
3.94242e-31
2.21255e-31
1.23893e-31
6.92194e-32
3.85865e-32
2.1462e-32
1.19106e-32
6.59521e-33
3.6438e-33
2.00869e-33
1.10486e-33
6.06364e-34
3.32045e-34
1.81425e-34
9.89093e-35
5.38042e-35
2.92036e-35
1.58161e-35
8.54681e-36
4.60844e-36
2.47942e-36
1.33104e-36
7.12989e-37
3.81085e-37
2.03241e-37
1.08157e-37
5.74313e-38
3.04296e-38
1.60879e-38
8.48712e-39
4.46763e-39
2.34668e-39
1.22996e-39
6.43261e-40
3.35697e-40
1.74812e-40
9.0836e-41
4.7099e-41
2.43687e-41
1.25812e-41
6.48159e-42
3.33205e-42
1.70928e-42
8.74958e-43
4.46927e-43
2.27804e-43
1.15868e-43
5.88087e-44
2.97852e-44
1.50536e-44
7.59206e-45
3.82087e-45
1.91889e-45
9.61661e-46
4.80928e-46
2.40008e-46
1.19526e-46
5.94e-47
2.94579e-47
1.45784e-47
7.19967e-48
3.54821e-48
1.74503e-48
8.5643e-49
4.1945e-49
2.05007e-49
9.999e-50
4.86684e-50
2.36396e-50
1.14588e-50
5.54297e-51
2.67579e-51
1.28905e-51
6.19724e-52
2.97328e-52
1.42359e-52
6.80217e-53
3.24357e-53
1.54353e-53
7.33031e-54
3.47414e-54
1.6432e-54
7.7563e-55
3.65375e-55
1.71769e-55
8.05891e-56
3.77338e-56
1.76324e-56
8.2228e-57
3.82697e-57
1.77755e-57
8.2398e-58
3.81193e-58
1.75997e-58
8.10961e-59
3.72932e-59
1.71158e-59
7.83972e-60
3.5838e-60
1.63503e-60
7.44476e-61
3.38312e-61
1.53436e-61
6.94516e-62
3.13749e-62
1.41459e-62
6.36541e-63
2.85872e-63
1.28135e-63
5.73212e-64
2.55927e-64
1.14043e-64
5.072e-65
2.25136e-65
9.974e-66
4.41013e-66
1.94623e-66
8.57229e-67
3.76845e-67
1.65345e-67
7.24076e-68
3.16477e-68
1.3806e-68
6.01121e-69
2.61231e-69
1.13307e-69
4.90525e-70
2.11952e-70
9.14088e-71
3.93471e-71
1.69049e-71
7.24923e-72
3.10276e-72
1.32551e-72
5.65197e-73
2.40546e-73
1.02183e-73
4.33254e-74
1.83355e-74
7.74511e-75
3.2655e-75
1.37424e-75
5.77248e-76
2.42021e-76
1.01283e-76
4.2307e-77
1.76393e-77
7.34087e-78
3.04936e-78
1.26435e-78
5.23269e-79
2.16163e-79
8.91331e-80
3.66858e-80
1.50716e-80
6.18054e-81
2.52986e-81
1.03365e-81
4.2156e-82
1.71614e-82
6.97357e-83
2.82858e-83
1.14523e-83
4.6284e-84
1.86716e-84
7.5188e-85
3.02225e-85
1.21264e-85
4.85678e-86
1.94172e-86
7.74896e-87
3.0869e-87
1.22751e-87
4.87247e-88
1.93063e-88
7.63615e-89
3.01493e-89
1.18825e-89
4.67484e-90
1.83593e-90
7.19741e-91
2.81663e-91
1.10031e-91
4.29077e-92
1.67029e-92
6.49057e-93
2.51775e-93
9.74945e-94
3.76867e-94
1.45424e-94
5.60177e-95
2.15406e-95
8.26864e-96
3.16851e-96
1.21205e-96
4.62845e-97
1.7644e-97
6.71442e-98
2.55076e-98
9.67344e-99
3.66222e-99
1.38408e-99
5.22195e-100
1.96679e-100
7.39505e-101
2.77575e-101
1.04011e-101
3.89076e-102
1.45296e-102
5.41665e-103
2.01591e-103
7.48989e-104
2.77807e-104
1.02867e-104
3.80257e-105
1.40328e-105
5.16988e-106
1.90146e-106
6.9818e-107
2.5595e-107
9.37326e-108
3.44324e-108
1.30786e-108
6.19564e-109
)
;

boundaryField
{
    sides
    {
        type            zeroGradient;
    }
    empty
    {
        type            empty;
    }
}


// ************************************************************************* //
