/*--------------------------------*- C++ -*----------------------------------*\
  =========                 |
  \\      /  F ield         | OpenFOAM: The Open Source CFD Toolbox
   \\    /   O peration     | Website:  https://openfoam.org
    \\  /    A nd           | Version:  13
     \\/     M anipulation  |
\*---------------------------------------------------------------------------*/
FoamFile
{
    format      ascii;
    class       volScalarField;
    location    "1.49";
    object      T;
}
// * * * * * * * * * * * * * * * * * * * * * * * * * * * * * * * * * * * * * //

dimensions      [0 0 0 1 0 0 0];

internalField   nonuniform List<scalar> 
1000
(
5.45421e-131
1.4101e-130
4.50158e-130
1.46762e-129
4.78642e-129
1.55851e-128
5.06562e-128
1.6435e-127
5.3225e-127
1.72058e-126
5.55189e-126
1.7882e-125
5.74907e-125
1.84495e-124
5.90983e-124
1.88959e-123
6.03064e-123
1.92114e-122
6.10876e-122
1.93885e-121
6.14231e-121
1.94229e-120
6.13042e-120
1.93134e-119
6.0732e-119
1.90619e-118
5.97177e-118
1.86735e-117
5.82822e-117
1.81564e-116
5.64555e-116
1.75212e-115
5.42753e-115
1.6781e-114
5.17861e-114
1.59508e-113
4.90376e-113
1.50469e-112
4.60827e-112
1.40864e-111
4.29764e-111
1.30866e-110
3.97734e-110
1.20649e-109
3.65272e-109
1.10375e-108
3.32881e-108
1.00199e-107
3.01023e-107
9.02589e-107
2.70107e-106
8.06746e-106
2.40486e-105
7.15472e-105
2.12445e-104
6.29575e-104
1.86207e-103
5.49654e-103
1.6193e-102
4.76109e-102
1.3971e-101
4.09155e-101
1.19588e-100
3.48836e-100
1.01553e-99
2.9505e-99
8.55522e-99
2.4757e-98
7.14981e-98
2.06072e-97
5.92747e-97
1.70155e-96
4.87465e-96
1.39368e-95
3.97654e-95
1.13231e-94
3.21768e-94
9.12506e-94
2.58252e-93
7.29397e-93
2.05587e-92
5.7828e-92
1.62326e-91
4.54722e-91
1.27118e-90
3.54629e-90
9.87286e-90
2.74291e-89
7.60468e-89
2.104e-88
5.8091e-88
1.60054e-87
4.40063e-87
1.20741e-86
3.30588e-86
9.03247e-86
2.46271e-85
6.70045e-85
1.81919e-84
4.92874e-84
1.33252e-83
3.59492e-83
9.67793e-83
2.59987e-82
6.9694e-82
1.86428e-81
4.9762e-81
1.32542e-80
3.52271e-80
9.34258e-80
2.47241e-79
6.52887e-79
1.72035e-78
4.52329e-78
1.18673e-77
3.10672e-77
8.11539e-77
2.11529e-76
5.5015e-76
1.42772e-75
3.69702e-75
9.5523e-75
2.46268e-74
6.33509e-74
1.62607e-73
4.16451e-73
1.06421e-72
2.71349e-72
6.9034e-72
1.75239e-71
4.43845e-71
1.12166e-70
2.82825e-70
7.11545e-70
1.78612e-69
4.47346e-69
1.11789e-68
2.78722e-68
6.93365e-68
1.72095e-67
4.26178e-67
1.05299e-66
2.5958e-66
6.38451e-66
1.56672e-65
3.83583e-65
9.36985e-65
2.28354e-64
5.55246e-64
1.34698e-63
3.26012e-63
7.87231e-63
1.89655e-62
4.55847e-62
1.09311e-61
2.61515e-61
6.2419e-61
1.48635e-60
3.5311e-60
8.36912e-60
1.97893e-59
4.66828e-59
1.09865e-58
2.57952e-58
6.04212e-58
1.41192e-57
3.29156e-57
7.65526e-57
1.77617e-56
4.11122e-56
9.49336e-56
2.1869e-55
5.0257e-55
1.15218e-54
2.63512e-54
6.01217e-54
1.3684e-53
3.10704e-53
7.03762e-53
1.5902e-52
3.58443e-52
8.05993e-52
1.80793e-51
4.0455e-51
9.03022e-51
2.01075e-50
4.46635e-50
9.89641e-50
2.18742e-49
4.82295e-49
1.06077e-48
2.32729e-48
5.09334e-48
1.11192e-47
2.4214e-47
5.25984e-47
1.13971e-46
2.46336e-46
5.31096e-46
1.14216e-45
2.45012e-45
5.24267e-45
1.11898e-44
2.38228e-44
5.05898e-44
1.0716e-43
2.26409e-43
4.77147e-43
1.003e-42
2.10302e-42
4.39816e-42
9.17459e-42
1.90891e-41
3.96158e-41
8.20035e-41
1.69307e-40
3.48654e-40
7.16127e-40
1.4671e-39
2.99777e-39
6.10953e-39
1.2419e-38
2.51784e-38
5.09139e-38
1.02685e-37
2.06555e-37
4.14404e-37
8.29218e-37
1.65488e-36
3.29397e-36
6.53917e-36
1.29472e-35
2.55667e-35
5.03522e-35
9.89022e-35
1.93747e-34
3.78533e-34
7.37582e-34
1.43335e-33
2.77798e-33
5.36954e-33
1.03508e-32
1.98995e-32
3.81537e-32
7.29548e-32
1.39122e-31
2.6458e-31
5.01808e-31
9.49151e-31
1.79039e-30
3.36802e-30
6.31848e-30
1.18212e-29
2.20555e-29
4.10372e-29
7.61454e-29
1.409e-28
2.60004e-28
4.78461e-28
8.78033e-28
1.60683e-27
2.93239e-27
5.33659e-27
9.68493e-27
1.75274e-26
3.16317e-26
5.69262e-26
1.02161e-25
1.82825e-25
3.26262e-25
5.80596e-25
1.03028e-24
1.8231e-24
3.2169e-24
5.66022e-24
9.93109e-24
1.73751e-23
3.03124e-23
5.27323e-23
9.1473e-23
1.58223e-22
2.72898e-22
4.69341e-22
8.04878e-22
1.37633e-21
2.34675e-21
3.98987e-21
6.7639e-21
1.14335e-20
1.92711e-20
3.23873e-20
5.42728e-20
9.06835e-20
1.51081e-19
2.50974e-19
4.15698e-19
6.8653e-19
1.1305e-18
1.85614e-18
3.03862e-18
4.95984e-18
8.072e-18
1.30984e-17
2.1192e-17
3.41859e-17
5.49842e-17
8.81747e-17
1.40982e-16
2.24748e-16
3.57222e-16
5.66096e-16
8.94436e-16
1.40901e-15
2.21301e-15
3.46543e-15
5.41042e-15
8.4218e-15
1.30701e-14
2.02231e-14
3.11971e-14
4.79815e-14
7.35744e-14
1.12479e-13
1.71438e-13
2.60513e-13
3.94676e-13
5.96125e-13
8.97675e-13
1.34767e-12
2.01712e-12
3.00996e-12
4.47783e-12
6.64132e-12
9.82014e-12
1.44763e-11
2.12751e-11
3.11716e-11
4.55323e-11
6.63058e-11
9.62617e-11
1.39324e-10
2.01031e-10
2.89181e-10
4.14708e-10
5.92897e-10
8.45047e-10
1.20073e-09
1.70087e-09
2.40192e-09
3.38148e-09
4.74585e-09
6.64017e-09
9.26196e-09
1.2879e-08
1.78534e-08
2.46725e-08
3.39907e-08
4.66832e-08
6.39169e-08
8.72415e-08
1.18709e-07
1.61025e-07
2.17749e-07
2.93542e-07
3.94489e-07
5.28504e-07
7.05849e-07
9.39776e-07
1.24734e-06
1.65043e-06
2.17698e-06
2.86261e-06
3.75247e-06
4.90366e-06
6.38809e-06
8.29604e-06
1.07403e-05
1.38616e-05
1.78344e-05
2.28745e-05
2.92478e-05
3.72807e-05
4.73724e-05
6.0009e-05
7.57807e-05
9.54007e-05
0.000119728
0.000149794
0.00018683
0.000232301
0.000287946
0.000355819
0.000438332
0.000538315
0.000659066
0.000804421
0.000978814
0.00118736
0.00143591
0.00173118
0.00208079
0.00249335
0.00297861
0.00354748
0.00421215
0.00498618
0.00588459
0.0069239
0.00812222
0.00949927
0.0110765
0.0128769
0.0149253
0.0172481
0.0198733
0.0228304
0.0261502
0.0298648
0.0340072
0.0386114
0.0437118
0.049343
0.0555393
0.0623349
0.0697627
0.0778545
0.08664
0.0961469
0.1064
0.117421
0.129227
0.141833
0.155247
0.169473
0.18451
0.200352
0.216984
0.234388
0.252538
0.271404
0.290948
0.311126
0.331888
0.353181
0.374944
0.397113
0.419619
0.442393
0.465358
0.48844
0.51156
0.534642
0.557607
0.580381
0.602887
0.625056
0.646819
0.668112
0.688874
0.709052
0.728596
0.747461
0.765612
0.783016
0.799648
0.815489
0.830526
0.844752
0.858166
0.870771
0.882577
0.893597
0.903849
0.913355
0.922139
0.930229
0.937654
0.944447
0.950639
0.956265
0.961359
0.965955
0.970088
0.97379
0.977094
0.980031
0.982632
0.984925
0.986936
0.988691
0.990213
0.991522
0.992638
0.993577
0.994355
0.994983
0.995474
0.995834
0.996071
0.996188
0.996188
0.996071
0.995834
0.995474
0.994983
0.994355
0.993577
0.992638
0.991522
0.990213
0.988691
0.986936
0.984925
0.982632
0.980031
0.977094
0.97379
0.970088
0.965955
0.961359
0.956265
0.950639
0.944447
0.937654
0.930229
0.922139
0.913355
0.903849
0.893597
0.882577
0.870771
0.858166
0.844752
0.830526
0.815489
0.799648
0.783016
0.765612
0.747461
0.728596
0.709052
0.688874
0.668112
0.646819
0.625056
0.602887
0.580381
0.557607
0.534642
0.51156
0.48844
0.465358
0.442393
0.419619
0.397113
0.374944
0.353181
0.331888
0.311126
0.290948
0.271404
0.252538
0.234388
0.216984
0.200352
0.18451
0.169473
0.155247
0.141833
0.129227
0.117421
0.1064
0.0961469
0.08664
0.0778545
0.0697627
0.0623349
0.0555393
0.049343
0.0437118
0.0386114
0.0340072
0.0298648
0.0261502
0.0228304
0.0198733
0.0172481
0.0149253
0.0128769
0.0110765
0.00949927
0.00812222
0.0069239
0.00588459
0.00498618
0.00421215
0.00354748
0.00297861
0.00249335
0.00208079
0.00173118
0.00143591
0.00118736
0.000978814
0.000804421
0.000659066
0.000538315
0.000438332
0.000355819
0.000287946
0.000232301
0.00018683
0.000149794
0.000119728
9.54007e-05
7.57807e-05
6.0009e-05
4.73724e-05
3.72807e-05
2.92478e-05
2.28745e-05
1.78344e-05
1.38616e-05
1.07403e-05
8.29604e-06
6.38809e-06
4.90366e-06
3.75247e-06
2.86261e-06
2.17698e-06
1.65043e-06
1.24734e-06
9.39776e-07
7.05849e-07
5.28504e-07
3.94489e-07
2.93542e-07
2.17749e-07
1.61025e-07
1.18709e-07
8.72415e-08
6.39169e-08
4.66832e-08
3.39907e-08
2.46725e-08
1.78534e-08
1.2879e-08
9.26196e-09
6.64017e-09
4.74585e-09
3.38148e-09
2.40192e-09
1.70087e-09
1.20073e-09
8.45047e-10
5.92897e-10
4.14708e-10
2.89181e-10
2.01031e-10
1.39324e-10
9.62617e-11
6.63058e-11
4.55323e-11
3.11716e-11
2.12751e-11
1.44763e-11
9.82014e-12
6.64132e-12
4.47783e-12
3.00996e-12
2.01712e-12
1.34767e-12
8.97675e-13
5.96125e-13
3.94676e-13
2.60513e-13
1.71438e-13
1.12479e-13
7.35744e-14
4.79815e-14
3.11971e-14
2.02231e-14
1.30701e-14
8.4218e-15
5.41042e-15
3.46543e-15
2.21301e-15
1.40901e-15
8.94436e-16
5.66096e-16
3.57222e-16
2.24748e-16
1.40982e-16
8.81747e-17
5.49842e-17
3.41859e-17
2.1192e-17
1.30984e-17
8.072e-18
4.95984e-18
3.03862e-18
1.85614e-18
1.1305e-18
6.8653e-19
4.15698e-19
2.50974e-19
1.51081e-19
9.06835e-20
5.42728e-20
3.23873e-20
1.92711e-20
1.14335e-20
6.7639e-21
3.98987e-21
2.34675e-21
1.37633e-21
8.04878e-22
4.69341e-22
2.72898e-22
1.58223e-22
9.1473e-23
5.27323e-23
3.03124e-23
1.73751e-23
9.93109e-24
5.66022e-24
3.2169e-24
1.8231e-24
1.03028e-24
5.80596e-25
3.26262e-25
1.82825e-25
1.02161e-25
5.69262e-26
3.16317e-26
1.75274e-26
9.68493e-27
5.33659e-27
2.93239e-27
1.60683e-27
8.78033e-28
4.78461e-28
2.60004e-28
1.409e-28
7.61454e-29
4.10372e-29
2.20555e-29
1.18212e-29
6.31848e-30
3.36802e-30
1.79039e-30
9.49151e-31
5.01808e-31
2.6458e-31
1.39122e-31
7.29548e-32
3.81537e-32
1.98995e-32
1.03508e-32
5.36954e-33
2.77798e-33
1.43335e-33
7.37582e-34
3.78533e-34
1.93747e-34
9.89022e-35
5.03522e-35
2.55667e-35
1.29472e-35
6.53917e-36
3.29397e-36
1.65488e-36
8.29218e-37
4.14404e-37
2.06555e-37
1.02685e-37
5.09139e-38
2.51784e-38
1.2419e-38
6.10953e-39
2.99777e-39
1.4671e-39
7.16127e-40
3.48654e-40
1.69307e-40
8.20035e-41
3.96158e-41
1.90891e-41
9.17459e-42
4.39816e-42
2.10302e-42
1.003e-42
4.77147e-43
2.26409e-43
1.0716e-43
5.05898e-44
2.38228e-44
1.11898e-44
5.24267e-45
2.45012e-45
1.14216e-45
5.31096e-46
2.46336e-46
1.13971e-46
5.25984e-47
2.4214e-47
1.11192e-47
5.09334e-48
2.32729e-48
1.06077e-48
4.82295e-49
2.18742e-49
9.89641e-50
4.46635e-50
2.01075e-50
9.03022e-51
4.0455e-51
1.80793e-51
8.05993e-52
3.58443e-52
1.5902e-52
7.03762e-53
3.10704e-53
1.3684e-53
6.01217e-54
2.63512e-54
1.15218e-54
5.0257e-55
2.1869e-55
9.49336e-56
4.11122e-56
1.77617e-56
7.65526e-57
3.29156e-57
1.41192e-57
6.04212e-58
2.57952e-58
1.09865e-58
4.66828e-59
1.97893e-59
8.36912e-60
3.5311e-60
1.48635e-60
6.2419e-61
2.61515e-61
1.09311e-61
4.55847e-62
1.89655e-62
7.87231e-63
3.26012e-63
1.34698e-63
5.55246e-64
2.28354e-64
9.36985e-65
3.83583e-65
1.56672e-65
6.38451e-66
2.5958e-66
1.05299e-66
4.26178e-67
1.72095e-67
6.93365e-68
2.78722e-68
1.11789e-68
4.47346e-69
1.78612e-69
7.11545e-70
2.82825e-70
1.12166e-70
4.43845e-71
1.75239e-71
6.9034e-72
2.71349e-72
1.06421e-72
4.16451e-73
1.62607e-73
6.33509e-74
2.46268e-74
9.5523e-75
3.69702e-75
1.42772e-75
5.5015e-76
2.11529e-76
8.11539e-77
3.10672e-77
1.18673e-77
4.52329e-78
1.72035e-78
6.52887e-79
2.47241e-79
9.34258e-80
3.52271e-80
1.32542e-80
4.9762e-81
1.86428e-81
6.9694e-82
2.59987e-82
9.67793e-83
3.59492e-83
1.33252e-83
4.92874e-84
1.81919e-84
6.70045e-85
2.46271e-85
9.03247e-86
3.30588e-86
1.20741e-86
4.40063e-87
1.60054e-87
5.8091e-88
2.104e-88
7.60468e-89
2.74291e-89
9.87286e-90
3.54629e-90
1.27118e-90
4.54722e-91
1.62326e-91
5.7828e-92
2.05587e-92
7.29397e-93
2.58252e-93
9.12506e-94
3.21768e-94
1.13231e-94
3.97654e-95
1.39368e-95
4.87465e-96
1.70155e-96
5.92747e-97
2.06072e-97
7.14981e-98
2.4757e-98
8.55522e-99
2.9505e-99
1.01553e-99
3.48836e-100
1.19588e-100
4.09155e-101
1.3971e-101
4.76109e-102
1.6193e-102
5.49654e-103
1.86207e-103
6.29575e-104
2.12445e-104
7.15472e-105
2.40486e-105
8.06746e-106
2.70107e-106
9.02589e-107
3.01023e-107
1.00199e-107
3.32881e-108
1.10375e-108
3.65272e-109
1.20649e-109
3.97734e-110
1.30866e-110
4.29764e-111
1.40864e-111
4.60827e-112
1.50469e-112
4.90376e-113
1.59508e-113
5.17861e-114
1.6781e-114
5.42753e-115
1.75212e-115
5.64555e-116
1.81564e-116
5.82822e-117
1.86735e-117
5.97177e-118
1.90619e-118
6.0732e-119
1.93134e-119
6.13042e-120
1.94229e-120
6.14231e-121
1.93885e-121
6.10876e-122
1.92114e-122
6.03064e-123
1.88959e-123
5.90983e-124
1.84495e-124
5.74907e-125
1.7882e-125
5.55189e-126
1.72058e-126
5.3225e-127
1.6435e-127
5.06562e-128
1.55851e-128
4.78642e-129
1.46762e-129
4.50158e-130
1.4101e-130
5.45421e-131
)
;

boundaryField
{
    sides
    {
        type            zeroGradient;
    }
    empty
    {
        type            empty;
    }
}


// ************************************************************************* //
