/*--------------------------------*- C++ -*----------------------------------*\
  =========                 |
  \\      /  F ield         | OpenFOAM: The Open Source CFD Toolbox
   \\    /   O peration     | Website:  https://openfoam.org
    \\  /    A nd           | Version:  13
     \\/     M anipulation  |
\*---------------------------------------------------------------------------*/
FoamFile
{
    format      ascii;
    class       surfaceScalarField;
    location    "75";
    object      phi;
}
// * * * * * * * * * * * * * * * * * * * * * * * * * * * * * * * * * * * * * //

dimensions      [0 3 -1 0 0 0 0];

internalField   nonuniform List<scalar> 
1300
(
3.75095
5.62643
-3.31761
3.75095
-7.73463
5.62643
-4.39613
4.39613
-0.334186
0.334186
1.87639
1.87457
-2.68969
2.68969
-2.04623
2.04623
-2.52169
2.52169
-5.24648
5.24648
-5.06941
5.06941
4.65288
-4.65288
-6.31541
6.31541
-0.938884
0.938884
-3.68503
3.68503
3.1696
-3.1696
-2.03253
2.03253
0.0625911
-0.0625911
-0.553471
4.30442
3.19748
3.19748
-2.0112
2.0112
-4.86925
4.86925
6.21805
-6.21805
5.29654
-5.29654
-1.97893
-2.46076
1.78598
-11.4933
-5.94866
-5.94866
-8.44037
8.44037
-2.81394
2.81249
2.94637
-2.94637
-1.7711
1.7711
-4.35896
-0.0371662
-4.35896
4.36564
0.0304935
4.36564
-0.439897
0.105711
-0.439897
4.00371
-4.00371
0.23809
0.0960967
0.23809
3.06538
-3.06538
-1.87712
3.7535
1.87384
-1.8719
6.17632
-1.87905
3.75362
-6.0143
6.0143
-2.93415
0.244458
-2.93415
2.47733
0.212362
2.47733
-6.85013
6.85013
-2.08782
0.0415896
-2.08782
2.0169
0.0293311
2.0169
2.88175
-2.88175
-2.62897
0.107286
-2.62897
2.39248
0.129204
2.39248
0.353505
5.27292
-5.97994
8.79243
-5.27292
0.0264476
5.20833
0.0381484
5.20833
-5.10611
0.0367074
-5.10611
5.01241
0.0569968
5.01241
4.73743
-0.084553
4.73743
-4.7719
0.119021
-4.7719
-3.3859
-4.05048
-6.46614
0.150727
-6.46614
-1.03114
0.0922581
-1.03114
0.822709
0.116176
0.822709
-3.68691
3.68691
-4.10611
0.421084
-4.10611
3.12396
0.0456394
3.12396
1.86849
1.88247
5.61944
-5.61944
2.44984
-1.99689
-0.0356422
-1.99689
-2.1069
-3.18964
2.1069
-0.0743675
-0.158294
0.220885
-0.158294
3.15945
0.0380377
3.15945
2.23705
0.155431
-2.23705
0.225852
3.2784
-3.2784
1.33804
0.673158
1.33804
-5.56324
5.56324
4.95664
0.0557656
-4.95664
0.0873888
6.15682
0.0612358
6.15682
-6.19956
-0.0184962
-6.19956
2.5317
-4.99246
-2.62923
6.13279
0.182621
-6.13279
0.184131
2.91833
0.0280362
2.91833
-2.91926
2.91926
-2.9848
0.0384351
-2.9848
-2.16964
0.398537
-2.16964
1.47293
0.298169
1.47293
-4.26126
-0.0976996
-4.26126
-4.25504
0.14893
4.25504
0.110593
1.1309
-1.1309
-0.5771
0.137203
-0.5771
-4.1272
-0.13406
4.1272
-0.123498
-3.89294
-0.110768
-3.89294
-3.02459
0.0397848
3.02459
0.0407915
3.1129
0.0465465
-3.1129
0.0475202
-1.87081
3.75328
-1.88014
3.75397
-5.63486
-0.379436
-5.63486
6.32506
-0.310767
6.32506
3.32675
0.358277
-3.32675
0.392606
2.307
0.170321
2.307
-6.81151
-0.0386185
-6.81151
6.83586
0.0142707
6.83586
2.17855
0.128459
-2.17855
0.0907253
1.99444
0.0224618
1.99444
2.90199
-0.0202473
2.90199
-2.87576
-0.00599042
-2.87576
2.7916
-2.7916
2.7168
0.0748033
-2.7168
0.0878227
-11.1331
11.1146
-0.0352598
-11.0978
5.17307
5.17307
4.16404
0.573385
4.16404
-4.99045
0.218551
-4.99045
2.68523
-5.31446
3.0698
-6.45569
4.66131
-16.1546
4.30045
-8.35093
6.70443
-6.70443
6.59435
0.110084
-6.59435
0.128212
-1.14979
0.118644
-1.14979
-3.0853
-0.601612
-3.0853
4.32853
-0.641621
4.32853
-3.02812
3.02812
-3.07741
0.0492892
3.07741
0.0465467
1.98446
0.00997436
-1.98446
-0.0124245
0.181705
0.0563851
-0.181705
0.0234105
3.49249
-0.214082
3.49249
-3.07962
-0.198789
-3.07962
-1.24879
0.0990038
1.24879
0.0892524
-5.81376
0.250515
-5.81376
-11.1908
0.0929375
-11.1526
-6.10662
-6.10662
2.33375
11.1262
-2.89368
0.0179234
2.89368
0.0246513
2.97513
0.0529933
-2.97513
0.0558693
-2.85865
0.0670511
2.85865
0.0606079
-2.54433
0.374692
-2.54433
-1.07233
1.07233
-1.23712
0.164797
1.23712
0.235806
1.40339
-0.272493
1.40339
0.705363
0.117346
-0.705363
0.128263
-3.7923
-0.100639
-3.7923
6.56013
-0.23507
6.56013
-2.96426
-0.11536
2.96426
-0.0622633
-0.0332981
11.1479
-5.13977
0.0336574
5.13977
-11.2091
11.2428
-3.21473
0.670404
3.21473
0.949312
5.28382
0.279426
-5.28382
0.29337
6.78722
0.0486451
-6.78722
0.0827828
-2.59286
-0.492441
-2.59286
-5.05345
-0.581407
5.05345
-0.724921
-11.4746
-0.204974
11.6796
-11.4176
6.01873
0.138083
-6.01873
11.3809
-1.03098
-0.0999233
1.03098
0.0413492
1.73104
-0.327642
1.73104
3.68967
-0.197185
-3.68967
-0.102628
-6.71447
-0.0970432
6.71447
-0.154337
-2.14802
-0.444833
2.14802
-0.416988
-4.26712
4.30516
1.9092
-2.384
-2.60846
-5.57364
1.85185
1.90144
4.30169
-10.139
-6.01563
-9.95485
7.26146
-6.9681
-9.24005
9.15549
7.89888
-8.00965
-5.7848
5.83135
6.48293
-6.44214
1.87882
1.87468
8.02098
-7.77653
-15.5915
15.212
7.56636
-7.52477
15.7385
-15.7771
-17.8164
17.865
-5.70688
5.81417
-6.74056
6.73457
-6.97643
6.91417
-2.84007
-3.61562
13.0927
-12.942
8.58933
-8.62497
-8.62
9.04108
3.3826
0.922562
3.42915
-1.88214
3.76096
-1.87148
3.78068
2.72327
-5.56335
2.59118
-5.19964
4.36436
4.22497
-4.28999
-1.28365
-5.92488
5.95292
-5.81292
5.87353
9.14162
-9.17879
-1.88517
3.75986
-1.8688
3.77024
-3.42502
-2.35979
3.37938
0.922314
8.0585
5.03424
-8.24112
-1.71373
-8.04415
7.84697
-8.23264
8.03385
-0.433965
5.81852
-5.38455
4.43529
-1.56288
7.3814
5.69858
5.91713
5.86561
-5.58619
1.10248
-6.48703
-6.39964
-2.23977
2.37697
2.15619
-2.06009
6.14763
1.75126
6.02413
-5.76524
-2.24441
-5.86588
3.8206
2.01075
3.86989
4.07849
2.40445
4.11827
3.03043
-3.03597
0.00554749
-3.05664
6.08707
0.723883
-5.41643
-4.49412
4.97638
3.0446
5.18874
-5.55466
-2.22187
-5.16205
-9.53157
-6.05991
-10.113
10.0739
5.13814
9.76313
-11.9428
11.7885
4.81541
2.75096
4.84474
-4.95799
-2.56679
-4.86726
11.6309
-2.63789
-8.99299
-10.3014
-7.51501
10.2871
5.45137
10.9425
6.92259
11.0252
4.41679
7.21409
-9.86817
2.35316
-3.8682
-1.83868
-3.78038
3.67502
2.13915
3.80422
-4.21759
-2.52297
-4.19966
-4.29594
-2.68049
4.31619
2.41838
-4.41768
-3.81497
4.53304
2.38113
4.03246
-10.0481
4.31847
-7.93409
-9.17972
-3.76229
-9.05151
3.52629
2.61183
-6.13812
-2.03705
8.52035
-4.29538
7.2367
-5.18507
-3.4399
-5.19749
-6.88496
-1.73504
-6.73603
-8.87273
8.38029
-9.16865
8.52703
12.5026
-5.6392
-6.86343
-3.96846
-2.47368
3.92094
-0.491791
-3.71047
3.71601
0.0504931
3.83117
4.75374
4.26194
-3.88413
-1.92879
-3.82826
3.82396
2.04957
3.89101
6.84121
2.30041
6.87171
-6.61555
-2.56324
-6.71325
9.03331
-8.63477
2.83337
-2.73437
5.39994
2.63392
-5.18585
-2.8583
6.21023
-3.21962
-2.99061
-12.1978
10.5258
1.67205
-4.81643
-0.381144
-0.443735
-5.48783
-3.75221
5.36881
0.548321
11.0741
7.32189
-5.5114
5.76192
6.16815
6.22391
-0.175731
5.80286
-5.13246
5.25287
-2.60759
-2.64528
5.47728
-5.61134
-1.23597
-5.52694
4.29097
0.412789
1.4627
-1.24182
-1.77255
-0.467214
-1.64429
1.25713
0.899054
1.31352
0.955458
1.42151
-2.95657
0.532867
2.4237
-2.00111
-1.52722
-3.83244
-1.14654
4.97898
5.74166
2.10531
-5.63903
-0.226852
2.51912
-2.40295
-0.786326
-3.04611
2.25376
-3.04008
-3.66887
-2.08681
5.75568
-3.36956
-0.458701
3.31657
0.553325
-3.82724
-2.09765
3.7888
0.32947
-3.1287
6.19141
-3.06271
-5.05748
2.52753
3.55954
4.53828
-4.7895
2.44773
2.34177
-1.22996
4.24609
0.942658
4.41641
-6.93789
4.71602
5.80499
3.23609
-6.16327
1.00122
-5.93667
8.55246
-7.37676
-1.1757
4.17167
4.38079
7.05752
5.4451
-5.66994
12.7275
-1.20738
-6.16937
7.14406
-3.90797
4.85113
-8.7591
-10.2962
4.12686
-9.12715
10.8981
-1.77092
-3.61878
-8.32403
12.7459
-1.20403
-11.5419
8.5591
-4.2863
-4.39495
8.68124
-6.92419
6.96173
-1.99556
-4.96618
-10.0899
-5.68725
10.1869
1.60157
-9.92649
12.2796
-2.7124
4.123
0.721739
4.14546
3.30443
-5.48503
2.1806
3.61976
-5.61532
2.08406
-7.56909
-6.71801
12.0498
-5.33183
-10.4803
-9.49908
-0.981224
2.53344
9.7462
-9.45604
7.41527
2.04077
3.30048
0.590525
-3.37529
-0.405092
0.236263
4.5164
-4.75266
4.04049
4.19592
3.26666
1.24974
3.84557
2.10735
-3.87022
-0.329443
-4.16427
1.48378
-1.74589
-3.69434
5.17812
-4.06739
0.373045
-2.74484
-3.49734
6.24218
-4.58351
3.03544
3.15597
5.08501
-4.91285
1.4155
-2.39254
-2.5203
2.65189
-4.39778
1.99368
3.18444
4.37481
0.559846
5.86879
6.18104
-8.48062
0.546529
11.2153
-9.50155
2.46066
8.56458
-9.87593
0.37685
-8.67466
0.998333
-5.29371
-5.13979
5.19596
-6.931
-3.56314
6.21522
0.65649
-6.32581
-0.410217
-6.03112
-2.84161
-6.47596
-3.04091
-6.12775
-8.71085
-1.65093
-7.05992
6.72936
-6.67672
-3.43626
7.40164
1.1254
-7.40578
7.30586
-7.48439
7.15675
0.0954268
3.62059
4.35737
1.88369
-2.39063
4.27432
-5.12142
7.42183
-8.72247
3.60105
4.20502
-6.76825
-4.51746
5.01876
4.01455
5.31693
8.8759
-10.3397
1.46379
-10.6424
11.976
-1.33358
-16.399
5.75656
-7.52306
2.4343
0.399077
2.55294
0.542394
2.49684
-3.03924
-2.19198
-2.10273
-2.44052
-3.46545
5.90597
1.08739
-3.53056
2.44317
-3.56678
4.65418
-0.21683
-3.31373
5.26813
-2.77129
5.66721
-3.78361
1.88359
3.43894
5.75424
-2.3153
4.39505
-1.76113
1.9287
-4.244
-1.53675
-2.95845
5.0976
-3.28373
3.65677
-0.344936
4.00171
-4.04772
0.8281
-0.781066
3.41485
3.6407
4.31676
-3.06702
2.91784
-4.67898
-1.32616
-4.11913
-0.934687
-0.256404
-3.69721
3.95361
5.97388
-6.23029
-5.23095
9.52122
-4.29027
7.68817
-5.37838
-2.30979
-4.24916
-4.38561
3.87447
1.9284
9.61657
0.208774
-5.58716
-4.92368
-3.97437
3.09908
2.15379
-1.73597
3.40802
2.1797
-0.716999
0.423752
0.889766
1.78235
-1.3586
0.32864
1.45371
-0.913177
1.70503
0.814091
-1.82238
0.178089
-1.32122
3.57498
1.10248
-2.00153
0.642931
0.973793
-3.58138
5.06411
-2.69142
-2.37269
6.03791
1.13821
-3.82963
4.38873
-3.97594
2.39386
-3.5404
-1.43577
-5.41172
-3.66046
-2.51871
4.96188
-3.38725
5.49256
1.29301
-5.26571
6.55872
-3.72811
1.6413
-3.05191
3.866
-0.926068
-2.12584
2.90328
2.8524
-3.08026
0.0341475
-0.17698
2.40932
-2.5863
-0.630767
-2.63188
-4.57356
4.90303
-2.1052
4.55293
2.16912
-1.91719
6.47012
1.8087
-3.72589
-3.24878
-3.70748
-1.38412
3.15416
-0.575534
-4.29173
-5.54171
4.16327
0.253139
-7.05676
7.87717
-0.820415
-4.01216
-0.703865
4.87553
-6.08777
0.472446
-4.00371
3.87347
4.81612
5.06926
-11.3229
-0.218957
-6.1848
1.12306
-7.30786
5.50384
-3.53601
7.66287
-10.3169
6.8806
-9.19146
6.48717
-0.820686
6.23874
-4.05814
2.75425
-8.4415
-6.83993
5.54811
-2.79715
6.26984
-3.1717
9.44154
-5.8841
5.33579
4.10575
-1.03242
-4.16508
-5.32615
4.29373
0.00964166
4.1551
4.98033
-2.87298
4.65088
2.26986
-4.66241
-2.12791
-6.49578
1.83338
-3.33982
-1.92114
3.75451
3.16387
3.7544
1.23421
-3.3493
7.1923
-8.17353
-1.86047
-3.27932
5.30925
-1.01552
3.42436
-6.70367
-1.86935
4.78811
-0.78037
-4.00774
0.851091
-4.41423
1.67478
-6.08901
5.25622
-5.66644
2.22187
-9.74494
-5.18391
-5.14256
-2.25838
-5.22601
-7.56391
5.30554
-1.80735
5.49851
-8.49637
7.716
-3.47961
8.78515
-5.42596
-1.05
5.84295
1.3138
10.099
0.222356
-4.73981
-1.91989
3.84112
-1.92123
1.17919
-3.47485
0.366275
2.49241
3.5455
-6.78338
0.0151245
-4.72469
-3.91517
7.92973
5.60605
11.5799
1.24024
9.10961
-1.17988
10.3498
4.13704
4.37285
-2.98475
4.44854
0.968856
4.56991
-0.927568
2.81116
1.62537
1.71763
0.685316
2.30254
1.33816
3.13064
0.0914036
-2.01132
4.61925
-8.59362
-0.967904
-8.02024
1.13525
5.70634
-4.57109
2.9351
-0.781316
1.01387
-0.119716
-1.21454
1.33425
-2.765
-1.93154
-0.477822
-1.69964
2.34258
1.87534
-1.86475
-0.900243
0.356879
-4.01734
3.18352
-3.14937
-0.296974
6.26175
-2.81824
0.231939
-1.17694
-2.39994
-2.86715
2.68907
6.17615
0.293968
3.11344
5.197
3.09936
0.22638
3.88361
-5.65453
-3.68547
-5.87349
-0.369647
4.50589
1.76339
7.98281
5.86914
4.85362
-1.85006
-10.0236
6.51147
-2.06293
5.17789
-1.17015
-4.91886
5.04859
2.37324
-5.70508
0.0386385
-4.88022
-6.94315
-0.51198
8.22798
-9.58697
8.53697
5.69536
1.36455
-4.40222
-0.740341
4.23742
0.135431
10.4853
-1.12891
-6.71176
7.84067
-4.57742
3.60952
0.73908
2.66894
2.07333
1.29202
-5.41974
-9.99083
-2.06536
-1.51602
-4.43806
0.540926
-2.41626
6.21889
-2.60937
3.9091
5.2313
6.24518
-2.12941
-4.10087
6.41968
-2.51058
3.7346
)
;

boundaryField
{
    wall-4
    {
        type            calculated;
        value           uniform 0;
    }
    velocity-inlet-5
    {
        type            calculated;
        value           uniform -3.75095;
    }
    velocity-inlet-6
    {
        type            calculated;
        value           uniform -5.62643;
    }
    pressure-outlet-7
    {
        type            calculated;
        value           nonuniform List<scalar> 8(3.31761 7.73463 4.43969 9.70732 7.43637 5.16093 5.75503 8.96176);
    }
    wall-8
    {
        type            calculated;
        value           uniform 0;
    }
    frontAndBackPlanes
    {
        type            empty;
    }
}


// ************************************************************************* //
