/*--------------------------------*- C++ -*----------------------------------*\
  =========                 |
  \\      /  F ield         | OpenFOAM: The Open Source CFD Toolbox
   \\    /   O peration     | Website:  https://openfoam.org
    \\  /    A nd           | Version:  13
     \\/     M anipulation  |
\*---------------------------------------------------------------------------*/
FoamFile
{
    format      ascii;
    class       volScalarField;
    location    "4";
    object      Ma;
}
// * * * * * * * * * * * * * * * * * * * * * * * * * * * * * * * * * * * * * //

dimensions      [];

internalField   nonuniform List<scalar> 
5250
(
3
2.99997
2.99991
2.99975
2.99941
2.99844
2.99642
2.99045
2.97809
2.94273
2.86236
2.65235
2.17753
1.29334
0.534998
0.266805
0.323357
0.338869
0.305223
0.249805
0.198679
0.157709
0.116961
0.072631
0.039913
3
2.99997
2.99992
2.99975
2.99943
2.99845
2.99646
2.99072
2.97809
2.94429
2.86373
2.65858
2.18859
1.31083
0.544039
0.267736
0.325609
0.341947
0.308561
0.254
0.204112
0.164484
0.125841
0.0864178
0.0624772
3
2.99997
2.99992
2.99976
2.99945
2.99851
2.99663
2.99086
2.97926
2.9455
2.8693
2.6694
2.21403
1.35035
0.565275
0.272599
0.332717
0.350959
0.318475
0.266027
0.218809
0.182261
0.148142
0.116447
0.0999035
3
2.99998
2.99992
2.99979
2.99944
2.9987
2.99649
2.99209
2.97882
2.95082
2.87328
2.68929
2.25126
1.41274
0.598278
0.282145
0.344926
0.366007
0.33498
0.285343
0.241386
0.208463
0.179226
0.153735
0.141078
3
2.99998
2.99992
2.99981
2.99947
2.99878
2.9968
2.99242
2.98085
2.95335
2.88352
2.71065
2.30193
1.49804
0.642787
0.299627
0.36358
0.387525
0.358046
0.311532
0.270609
0.241209
0.216258
0.195427
0.185205
3
2.99998
2.99993
2.99982
2.99954
2.99883
2.9972
2.99278
2.98307
2.95643
2.89519
2.73551
2.36202
1.60586
0.700334
0.330656
0.39181
0.417002
0.388914
0.345262
0.307039
0.28067
0.259656
0.243007
0.235355
3
2.99998
2.99994
2.99982
2.99961
2.99889
2.99754
2.99336
2.98473
2.96057
2.90515
2.76129
2.42119
1.71704
0.76406
0.367081
0.424105
0.449048
0.423742
0.384538
0.349797
0.326964
0.31013
0.298373
0.295149
3
2.99998
2.99995
2.99985
2.99963
2.99902
2.99773
2.99398
2.98619
2.9638
2.91424
2.78208
2.47019
1.80607
0.832671
0.404829
0.45059
0.472176
0.454864
0.424229
0.395981
0.378822
0.368342
0.364155
0.370903
3
2.99999
2.99995
2.99986
2.99967
2.99911
2.99794
2.99455
2.98748
2.9672
2.9223
2.80243
2.51725
1.89709
0.927245
0.464617
0.471013
0.486067
0.482682
0.462794
0.444031
0.435031
0.434017
0.444112
0.473987
3
2.99999
2.99996
2.99988
2.99969
2.99923
2.9981
2.99524
2.98858
2.97093
2.93005
2.82343
2.56588
1.99444
1.04643
0.536262
0.486353
0.502101
0.509454
0.500233
0.492665
0.493949
0.509119
0.549003
0.650485
3
2.99999
2.99996
2.9999
2.99972
2.99934
2.99826
2.99602
2.98938
2.97565
2.93657
2.84708
2.61558
2.10095
1.19182
0.620438
0.503963
0.521312
0.536531
0.537305
0.540121
0.554732
0.592813
0.675771
0.844232
3
2.99999
2.99997
2.99991
2.99978
2.99939
2.99865
2.99625
2.99167
2.9777
2.94792
2.86665
2.67275
2.21757
1.37048
0.71947
0.529199
0.546269
0.565746
0.5746
0.586587
0.614568
0.671604
0.778275
0.960472
3
3
2.99998
2.99993
2.99981
2.99951
2.99884
2.99694
2.99303
2.98147
2.95708
2.88951
2.73052
2.34563
1.58743
0.835715
0.572681
0.584663
0.601782
0.615318
0.633449
0.670238
0.736131
0.844001
1.00333
3.00001
3
2.99998
2.99994
2.99986
2.99959
2.99908
2.99753
2.9943
2.98535
2.96505
2.91246
2.78523
2.47658
1.83365
0.967891
0.636254
0.633889
0.645997
0.661757
0.681811
0.720476
0.785854
0.884249
1.02007
3.00001
3
2.99999
2.99995
2.99988
2.99968
2.99922
2.99807
2.99517
2.98844
2.97072
2.92968
2.82332
2.56813
2.00688
1.10987
0.704558
0.673056
0.686886
0.704765
0.727139
0.765192
0.825925
0.912768
1.0291
3.00001
3
2.99999
2.99997
2.9999
2.99975
2.99937
2.99843
2.9962
2.99036
2.97716
2.94186
2.85912
2.64769
2.173
1.32178
0.809387
0.704409
0.716872
0.737413
0.765615
0.803554
0.859708
0.936227
1.03614
3.00001
3
3
2.99997
2.99993
2.99979
2.99953
2.9987
2.99715
2.99222
2.9824
2.95415
2.89034
2.72412
2.33996
1.58393
0.94035
0.745985
0.748095
0.767721
0.798957
0.836875
0.888721
0.956901
1.04315
3.00001
3
3
2.99998
2.99994
2.99986
2.99962
2.99908
2.99772
2.9944
2.98647
2.96615
2.91848
2.79689
2.51005
1.90198
1.10256
0.81247
0.791512
0.805563
0.833882
0.870132
0.916503
0.976722
1.05141
3.00001
3.00001
3
2.99999
2.99996
2.99989
2.99971
2.9993
2.99827
2.99571
2.98973
2.97407
2.938
2.84462
2.621
2.11946
1.28638
0.888211
0.828551
0.840571
0.865863
0.901487
0.943406
0.996248
1.06134
3.00001
3.00001
3
2.99999
2.99997
2.99992
2.99978
2.99951
2.99863
2.99701
2.9918
2.98158
2.95188
2.88543
2.71238
2.31712
1.55792
1.01563
0.871627
0.87319
0.893836
0.927875
0.968297
1.01545
1.07232
3.00001
3.00001
3
3
2.99998
2.99995
2.99984
2.99964
2.99902
2.99781
2.99423
2.98665
2.96605
2.91885
2.79803
2.51493
1.91452
1.18599
0.936852
0.913292
0.926467
0.955496
0.993476
1.03588
1.08525
3.00001
3.00001
3
3
2.99999
2.99996
2.99989
2.99975
2.9993
2.99841
2.99585
2.99035
2.97555
2.94146
2.85443
2.64545
2.17565
1.3923
1.01725
0.950777
0.959529
0.983426
1.01776
1.05615
1.10013
3.00001
3.00001
3.00001
3
2.99999
2.99998
2.99992
2.99982
2.9995
2.99889
2.99697
2.99335
2.98216
2.95918
2.89553
2.74782
2.39319
1.69837
1.15296
1.00079
0.993976
1.00901
1.03875
1.07573
1.11605
3.00001
3.00001
3.00001
3
3
2.99999
2.99995
2.99987
2.99967
2.99922
2.99797
2.99541
2.9879
2.97253
2.92939
2.83229
2.58956
2.06747
1.34796
1.07657
1.03343
1.04027
1.06283
1.0959
1.13273
3.00001
3.00001
3.00001
3.00001
3
2.99999
2.99997
2.99991
2.99979
2.99942
2.99874
2.99655
2.99237
2.97992
2.95349
2.88259
2.71666
2.32852
1.61733
1.18713
1.07731
1.07207
1.08559
1.11406
1.14952
3.00001
3.00001
3.00001
3.00001
3
3
2.99998
2.99995
2.99986
2.99964
2.99913
2.9978
2.99489
2.98685
2.96981
2.92313
2.81754
2.55737
2.00803
1.36285
1.14023
1.10794
1.11384
1.13571
1.16647
3.00001
3.00001
3.00001
3.00001
3.00001
3
2.99999
2.99997
2.99991
2.99976
2.99942
2.99857
2.99649
2.99162
2.97903
2.95042
2.87654
2.70261
2.30055
1.60425
1.23221
1.14705
1.14298
1.15622
1.18234
3.00001
3.00001
3.00001
3.00001
3.00001
3
3
2.99998
2.99994
2.99985
2.99962
2.99908
2.9977
2.99466
2.98632
2.96852
2.92016
2.81041
2.54165
1.98187
1.39734
1.20382
1.17582
1.18162
1.20225
3.00001
3.00001
3.00001
3.00001
3.00001
3.00001
3
2.99999
2.99996
2.99991
2.99975
2.99943
2.99848
2.99667
2.99105
2.98007
2.94856
2.87916
2.7023
2.30756
1.64026
1.29736
1.21665
1.2104
1.22124
3.00001
3.00001
3.00001
3.00001
3.00001
3.00001
3
3
2.99998
2.99994
2.99986
2.99962
2.99911
2.99779
2.99466
2.98722
2.96837
2.92503
2.81551
2.56268
2.02427
1.46432
1.27394
1.24277
1.24548
3.00001
3.00001
3.00001
3.00001
3.00001
3.00001
3.00001
3
2.99999
2.99997
2.99991
2.99976
2.99947
2.99856
2.99686
2.99157
2.98129
2.95176
2.88717
2.72241
2.35323
1.71781
1.37294
1.28385
1.27346
3.00001
3.00001
3.00001
3.00001
3.00001
3.00001
3.00001
3
3
2.99998
2.99995
2.99987
2.99966
2.99919
2.99795
2.99533
2.98798
2.97279
2.93109
2.83862
2.61095
2.12727
1.55452
1.34446
1.30705
3.00001
3.00001
3.00001
3.00001
3.00001
3.00001
3.00001
3.00001
3
2.99999
2.99997
2.99992
2.99981
2.99947
2.99885
2.99692
2.99312
2.98239
2.95903
2.89866
2.75785
2.42821
1.82719
1.4464
1.3446
3.00001
3.00001
3.00001
3.00001
3.00001
3.00001
3.00001
3.00001
3
3
2.99999
2.99995
2.99989
2.99969
2.99932
2.99816
2.996
2.98947
2.97629
2.94022
2.85954
2.66115
2.22702
1.64985
1.41586
3.00001
3.00001
3.00001
3.00001
3.00001
3.00001
3.00001
3.00001
3.00001
3
2.99999
2.99998
2.99993
2.99983
2.99956
2.99898
2.99749
2.99397
2.98565
2.96461
2.9167
2.79627
2.5216
1.9775
1.54608
3.00001
3.00001
3.00001
3.00001
3.00001
3.00001
3.00001
3.00001
3.00001
3
3
2.99999
2.99997
2.9999
2.99977
2.99937
2.99862
2.99637
2.99188
2.97938
2.95224
2.8824
2.72185
2.35122
1.7839
3.00001
3.00001
3.00001
3.00001
3.00001
3.00001
3.00001
3.00001
3.00001
3.00001
3
3
2.99998
2.99995
2.99986
2.99968
2.99914
2.99811
2.99512
2.98897
2.97248
2.93578
2.84418
2.63378
2.18346
3.00001
3.00001
3.00001
3.00001
3.00001
3.00001
3.00001
3.00001
3.00001
3.00001
3.00001
3
2.99999
2.99997
2.99993
2.9998
2.99955
2.99886
2.99731
2.99353
2.98431
2.96304
2.90971
2.78672
2.4961
3.00001
3.00001
3.00001
3.00001
3.00001
3.00001
3.00001
3.00001
3.00001
3.00001
3.00001
3
3
2.99999
2.99996
2.9999
2.99974
2.99938
2.99847
2.99646
2.99111
2.97982
2.94937
2.88278
2.71669
3.00001
3.00001
3.00001
3.00001
3.00001
3.00001
3.00001
3.00001
3.00001
3.00001
3.00001
3.00001
3
3
2.99998
2.99994
2.99987
2.99964
2.99922
2.99793
2.99546
2.98842
2.97366
2.93523
2.84845
3.00001
3.00001
3.00001
3.00001
3.00001
3.00001
3.00001
3.00001
3.00001
3.00001
3.00001
3.00001
3.00001
3
2.99999
2.99997
2.99993
2.99981
2.99956
2.99887
2.9975
2.99347
2.9857
2.96324
2.91666
3.00001
3.00001
3.00001
3.00001
3.00001
3.00001
3.00001
3.00001
3.00001
3.00001
3.00001
3.00001
3.00001
3.00001
3
2.99999
2.99996
2.99991
2.99975
2.99943
2.99854
2.99668
2.99185
2.98084
2.95415
3.00001
3.00001
3.00001
3.00001
3.00001
3.00001
3.00001
3.00001
3.00001
3.00001
3.00001
3.00001
3.00001
3.00001
3
3
2.99998
2.99995
2.99987
2.99969
2.99922
2.99826
2.9955
2.99021
2.9747
3.00001
3.00001
3.00001
3.00001
3.00001
3.00001
3.00001
3.00001
3.00001
3.00001
3.00001
3.00001
3.00001
3.00001
3.00001
3
3
2.99998
2.99993
2.99983
2.99958
2.999
2.99754
2.9944
2.98596
3.00001
3.00001
3.00001
3.00001
3.00001
3.00001
3.00001
3.00001
3.00001
3.00001
3.00001
3.00001
3.00001
3.00001
3.00001
3
3
2.99999
2.99996
2.99989
2.99974
2.99935
2.9985
2.99619
2.99148
3.00001
3.00001
3.00001
3.00001
3.00001
3.00001
3.00001
3.00001
3.00001
3.00001
3.00001
3.00001
3.00001
3.00001
3.00001
3.00001
3
2.99999
2.99997
2.99992
2.9998
2.99951
2.99879
2.9971
2.99277
3.00001
3.00001
3.00001
3.00001
3.00001
3.00001
3.00001
3.00001
3.00001
3.00001
3.00001
3.00001
3.00001
3.00001
3.00001
3.00001
3
3
2.99998
2.99993
2.99983
2.99955
2.99896
2.99724
2.99374
3.00001
3.00001
3.00001
3.00001
3.00001
3.00001
3.00001
3.00001
3.00001
3.00001
3.00001
3.00001
3.00001
3.00001
3.00001
3.00001
3
3
2.99998
2.99994
2.99984
2.99957
2.99899
2.99734
2.99392
3.00001
3.00001
3.00001
3.00001
3.00001
3.00001
3.00001
3.00001
3.00001
3.00001
3.00001
3.00001
3.00001
3.00001
3.00001
3.00001
3
3
2.99998
2.99994
2.99985
2.99957
2.99901
2.9974
2.9938
3.00001
3.00001
3.00001
3.00001
3.00001
3.00001
3.00001
3.00001
3.00001
3.00001
3.00001
3.00001
3.00001
3.00001
3.00001
3.00001
3
3
2.99998
2.99994
2.99985
2.99957
2.99902
2.99738
2.9939
1.11968
1.32447
1.38845
1.35109
1.27869
1.19038
1.10791
1.06482
1.05538
1.05601
1.05383
1.04409
1.01789
0.958469
0.833708
0.595631
0.321747
0.140483
0.0788164
0.127414
0.21353
0.29563
0.3683
0.419727
0.453098
0.479103
0.503029
0.524399
0.539297
0.547064
0.549646
0.54305
0.521544
0.483724
0.434229
0.379253
0.322429
0.266681
0.212049
0.16063
0.112592
0.0680202
0.0352263
0.0371318
0.0689035
0.105295
0.139437
0.171513
0.201209
0.229625
0.259289
0.288434
0.316363
0.342595
0.368249
0.39268
0.416782
0.439795
0.46254
0.484319
0.505889
0.526596
0.547154
0.566905
0.586557
0.605452
0.624303
0.642417
0.660524
0.677933
0.695352
0.712133
0.728922
0.745122
0.761365
0.777012
0.792784
0.807902
0.823239
0.837857
0.852765
0.866915
0.881409
0.895098
0.909221
0.922456
0.936229
0.949062
0.962473
0.974946
0.987984
1.00008
1.0127
1.0243
1.03637
1.04718
1.0581
1.06701
1.07466
1.07905
1.13407
1.25251
1.3188
1.36338
1.40879
1.44359
1.45226
1.44687
1.42836
1.40043
1.37791
1.36283
1.34161
1.29783
1.20146
0.998457
0.705009
0.498322
0.390461
0.30969
0.236368
0.169747
0.107448
0.0674713
0.103749
0.16706
0.228983
0.280507
0.311869
0.323486
0.323284
0.310933
0.287295
0.245272
0.198527
0.149075
0.103826
0.0723257
0.0657749
0.0886425
0.122408
0.156945
0.190784
0.221524
0.252815
0.283505
0.313608
0.342094
0.368962
0.394095
0.420193
0.446365
0.471483
0.495096
0.518124
0.540183
0.561911
0.582761
0.603368
0.623157
0.642792
0.661674
0.680463
0.698539
0.716579
0.733927
0.751285
0.767971
0.784703
0.800784
0.816952
0.832472
0.848141
0.863138
0.878368
0.892878
0.907711
0.921774
0.936223
0.949878
0.963947
0.977211
0.990928
1.00381
1.01719
1.02971
1.04277
1.05497
1.0677
1.07963
1.09208
1.10376
1.11593
1.12727
1.13895
1.14957
1.16017
1.16905
1.17657
1.18103
1.13399
1.24209
1.33959
1.43288
1.51901
1.587
1.61904
1.62102
1.61531
1.5992
1.57559
1.55156
1.528
1.49228
1.4216
1.2722
1.01832
0.794071
0.676305
0.599651
0.531606
0.46901
0.404988
0.339007
0.273721
0.211749
0.151931
0.0956873
0.0502372
0.0383273
0.0500302
0.0655691
0.0573406
0.0821839
0.114078
0.152614
0.190236
0.225967
0.258304
0.289319
0.319726
0.348913
0.376905
0.403102
0.428907
0.454067
0.478914
0.502799
0.52553
0.546616
0.568059
0.590147
0.611956
0.632392
0.65221
0.671276
0.690165
0.708417
0.726533
0.744048
0.761445
0.778297
0.79506
0.811308
0.827506
0.8432
0.858873
0.874057
0.889236
0.903951
0.918674
0.932961
0.947282
0.961169
0.97514
0.988656
1.00229
1.01547
1.02878
1.04163
1.05462
1.06714
1.07984
1.09206
1.10448
1.11643
1.12859
1.14037
1.15235
1.16397
1.17573
1.18707
1.19852
1.20952
1.22053
1.23092
1.24098
1.24984
1.25709
1.26167
1.14232
1.25012
1.34967
1.44096
1.52208
1.58958
1.64184
1.67969
1.69898
1.7026
1.69964
1.68921
1.66893
1.63712
1.58274
1.47285
1.27748
1.03671
0.891224
0.820433
0.763766
0.707195
0.649453
0.594593
0.538345
0.480397
0.422849
0.367007
0.314644
0.271586
0.244307
0.233859
0.257101
0.294515
0.334247
0.37301
0.407038
0.435549
0.460791
0.483686
0.506107
0.527545
0.548692
0.568796
0.588873
0.608439
0.628115
0.647319
0.665847
0.682931
0.700136
0.718131
0.736697
0.754237
0.771252
0.787685
0.804005
0.819926
0.835766
0.851219
0.866591
0.881609
0.896569
0.911185
0.925761
0.939978
0.954181
0.968013
0.98187
0.99535
1.0089
1.02204
1.03531
1.04812
1.06114
1.07365
1.08643
1.09867
1.1112
1.12319
1.13545
1.14716
1.15917
1.17063
1.18244
1.19378
1.20549
1.2167
1.2282
1.23921
1.25048
1.26126
1.27225
1.28271
1.29333
1.30322
1.31306
1.32156
1.32888
1.33317
1.14439
1.24927
1.34518
1.43281
1.51247
1.58402
1.64668
1.69976
1.74052
1.7661
1.77433
1.77286
1.76605
1.74908
1.7123
1.63646
1.48636
1.25357
1.07667
0.995407
0.939222
0.888214
0.844233
0.798858
0.747656
0.697084
0.645864
0.592868
0.542942
0.499467
0.465126
0.45618
0.474426
0.507996
0.544624
0.579299
0.607243
0.62739
0.642821
0.656493
0.670117
0.683988
0.698199
0.712234
0.726522
0.740693
0.755293
0.769801
0.784265
0.797578
0.810852
0.824691
0.839723
0.854389
0.868735
0.882573
0.896396
0.909929
0.923539
0.93686
0.950284
0.963456
0.976718
0.989784
1.00287
1.01577
1.02863
1.04127
1.05391
1.0663
1.07879
1.09101
1.10338
1.11546
1.12765
1.13955
1.15151
1.1632
1.17496
1.18643
1.19805
1.20938
1.22092
1.23217
1.24355
1.2546
1.26567
1.27654
1.2874
1.29811
1.30884
1.31938
1.32995
1.34022
1.35046
1.36025
1.36974
1.37834
1.38555
1.39007
1.14174
1.2412
1.33313
1.41764
1.49511
1.56628
1.62976
1.68625
1.73345
1.77225
1.80106
1.81687
1.8184
1.81338
1.7964
1.75454
1.65784
1.47956
1.24727
1.12229
1.07289
1.02915
0.987038
0.950627
0.91326
0.868547
0.818605
0.770284
0.720258
0.669467
0.628979
0.620247
0.638586
0.67255
0.710884
0.745681
0.773483
0.790671
0.799216
0.804318
0.809668
0.816153
0.824157
0.832765
0.84211
0.851755
0.862108
0.872678
0.883653
0.893914
0.90399
0.914311
0.926095
0.938336
0.950569
0.962359
0.974262
0.985994
0.997943
1.00976
1.02171
1.0335
1.04539
1.05714
1.06903
1.08081
1.09272
1.10449
1.11628
1.12787
1.13947
1.15089
1.16243
1.17384
1.18543
1.19685
1.20839
1.21964
1.23094
1.24191
1.25301
1.26381
1.2748
1.28554
1.29653
1.30724
1.31819
1.32872
1.33948
1.34975
1.36026
1.37033
1.38064
1.39058
1.4007
1.41032
1.41994
1.42845
1.43601
1.44041
1.13752
1.23058
1.31739
1.39902
1.47409
1.54373
1.60771
1.66552
1.71778
1.76302
1.80165
1.83109
1.85033
1.85415
1.84884
1.82982
1.78068
1.66346
1.46137
1.26318
1.1703
1.13123
1.10112
1.06795
1.03346
0.996494
0.953616
0.906087
0.848891
0.786213
0.741137
0.734718
0.755587
0.792743
0.835462
0.87421
0.903131
0.923147
0.931139
0.930843
0.928193
0.927224
0.928536
0.93178
0.936428
0.941954
0.94838
0.955221
0.962822
0.970215
0.977496
0.984728
0.993384
1.00312
1.01344
1.02352
1.03381
1.04398
1.0545
1.06487
1.07555
1.08606
1.09684
1.1075
1.11842
1.12928
1.14035
1.15138
1.16255
1.17364
1.1848
1.19585
1.20695
1.21792
1.229
1.23993
1.25099
1.26191
1.27296
1.28386
1.29479
1.30548
1.31626
1.32676
1.33747
1.34789
1.35854
1.36899
1.37953
1.38995
1.40031
1.41053
1.42067
1.43055
1.44046
1.44996
1.45941
1.46807
1.47566
1.48055
1.13499
1.21983
1.30216
1.37906
1.45226
1.51947
1.58277
1.64076
1.69366
1.7421
1.78389
1.82085
1.84944
1.86958
1.87428
1.86872
1.84796
1.79287
1.66144
1.44856
1.28776
1.21593
1.18249
1.15694
1.12777
1.09193
1.05108
1.00174
0.931634
0.855274
0.812626
0.812177
0.83594
0.876087
0.925568
0.969787
0.999711
1.019
1.03103
1.0335
1.02773
1.02029
1.0148
1.0121
1.01167
1.01319
1.01604
1.01983
1.0248
1.03009
1.03551
1.04077
1.04702
1.05457
1.06349
1.07251
1.08189
1.09114
1.10078
1.11034
1.12029
1.13012
1.14027
1.15039
1.1608
1.17127
1.18198
1.1927
1.20361
1.21438
1.22533
1.23604
1.24693
1.25763
1.26848
1.27922
1.29017
1.30098
1.31201
1.32271
1.33368
1.34423
1.35501
1.36542
1.37599
1.38634
1.39677
1.40709
1.41751
1.42774
1.43817
1.44822
1.45854
1.46834
1.47838
1.48785
1.49732
1.50599
1.51367
1.51854
1.13478
1.21182
1.28773
1.36124
1.43022
1.49603
1.55695
1.61453
1.66744
1.7162
1.76129
1.80054
1.83636
1.86447
1.88483
1.88911
1.88312
1.86027
1.79927
1.65571
1.44536
1.31349
1.25595
1.22391
1.19754
1.16637
1.12108
1.05805
0.968821
0.887465
0.856617
0.862746
0.888578
0.934279
0.988738
1.03633
1.06974
1.08945
1.10136
1.10798
1.10662
1.09848
1.08819
1.07986
1.07436
1.07159
1.07127
1.07259
1.07535
1.07899
1.08329
1.08729
1.09201
1.0978
1.10541
1.11374
1.12255
1.13142
1.14061
1.14982
1.15936
1.16881
1.17863
1.18828
1.19839
1.20835
1.21879
1.22908
1.23974
1.2502
1.26095
1.27148
1.28228
1.29284
1.30369
1.31435
1.32522
1.33589
1.34672
1.3574
1.36816
1.37877
1.38942
1.39986
1.4104
1.42062
1.43109
1.44116
1.45158
1.46161
1.47195
1.482
1.4922
1.50216
1.51212
1.52178
1.53128
1.54005
1.54788
1.5528
1.13714
1.20612
1.27619
1.34457
1.41078
1.47311
1.53277
1.58842
1.64081
1.68986
1.73464
1.77702
1.81379
1.84793
1.87488
1.89414
1.89727
1.89022
1.86467
1.79719
1.64605
1.44372
1.33562
1.28821
1.25208
1.21579
1.16425
1.07873
0.970043
0.894821
0.877372
0.889585
0.92239
0.974709
1.03147
1.07872
1.11387
1.13747
1.15086
1.15805
1.16133
1.15858
1.14998
1.13867
1.12946
1.12257
1.11883
1.11782
1.11879
1.12137
1.12508
1.12879
1.13291
1.13765
1.14426
1.15212
1.16085
1.16962
1.1788
1.18789
1.19731
1.20664
1.21628
1.22583
1.23575
1.2456
1.25589
1.26607
1.27667
1.28707
1.29779
1.30826
1.31897
1.32952
1.34023
1.35073
1.36134
1.37179
1.38239
1.39282
1.40346
1.41383
1.4245
1.43478
1.44538
1.45555
1.46599
1.47607
1.4863
1.49628
1.50634
1.51622
1.52619
1.53592
1.5458
1.55524
1.56479
1.57347
1.58143
1.58643
1.14226
1.20396
1.26766
1.33114
1.39323
1.45292
1.50983
1.56405
1.61527
1.66315
1.70885
1.7502
1.79013
1.82468
1.8575
1.88315
1.90102
1.90285
1.89449
1.86603
1.79193
1.63716
1.4456
1.3515
1.30292
1.25132
1.17921
1.06198
0.943563
0.888648
0.885191
0.902903
0.944488
1.00108
1.05618
1.10166
1.13743
1.16383
1.18188
1.19202
1.19686
1.19916
1.19731
1.19047
1.18064
1.17242
1.16571
1.16272
1.16223
1.16392
1.16733
1.17131
1.17568
1.18025
1.18621
1.19356
1.20224
1.21111
1.22035
1.22943
1.23881
1.24807
1.25768
1.26716
1.27696
1.28663
1.2966
1.30646
1.31666
1.32674
1.33714
1.34736
1.35794
1.36823
1.37878
1.38898
1.39946
1.40956
1.41994
1.42998
1.44031
1.45033
1.46062
1.47067
1.48089
1.49091
1.50103
1.51093
1.52091
1.53062
1.54046
1.54994
1.55968
1.56896
1.57856
1.58762
1.59687
1.60532
1.61307
1.61808
1.15012
1.20512
1.26244
1.32092
1.37849
1.43514
1.48924
1.54169
1.59115
1.63882
1.68288
1.72574
1.76443
1.80202
1.83488
1.86608
1.89055
1.90586
1.90651
1.89627
1.86403
1.78218
1.62579
1.44339
1.34868
1.27632
1.16587
1.01336
0.904234
0.8752
0.882896
0.911045
0.960417
1.01723
1.06759
1.10981
1.1449
1.17308
1.19521
1.21106
1.22106
1.22727
1.23127
1.2334
1.23061
1.22457
1.21816
1.2135
1.21143
1.21189
1.21448
1.21847
1.22345
1.22825
1.23376
1.24023
1.24831
1.25684
1.26588
1.27472
1.28385
1.29277
1.30206
1.31121
1.3207
1.33001
1.33958
1.34899
1.35872
1.36837
1.37835
1.38829
1.39842
1.40833
1.41842
1.42827
1.43831
1.4481
1.45807
1.46775
1.47763
1.48723
1.49705
1.50659
1.51639
1.52589
1.53564
1.54506
1.55471
1.56397
1.57349
1.58253
1.59189
1.60072
1.60988
1.61845
1.62723
1.6352
1.64255
1.64724
1.16058
1.20924
1.26089
1.31393
1.36736
1.41991
1.47164
1.52118
1.56945
1.61515
1.65928
1.70062
1.74047
1.7773
1.81247
1.84414
1.87317
1.89698
1.9085
1.90703
1.8944
1.857
1.7646
1.6001
1.41677
1.28556
1.12072
0.945243
0.865212
0.857756
0.873272
0.913046
0.967998
1.01982
1.06548
1.10488
1.13981
1.17069
1.19765
1.22007
1.23842
1.25231
1.2627
1.27147
1.27769
1.28013
1.2781
1.27391
1.27035
1.26874
1.26929
1.27185
1.27629
1.28112
1.28608
1.29119
1.2977
1.30518
1.31341
1.32159
1.33011
1.33841
1.34704
1.35553
1.3644
1.37316
1.38224
1.39117
1.40039
1.40949
1.41896
1.42822
1.43776
1.44707
1.45663
1.46591
1.47542
1.48467
1.49413
1.50334
1.51275
1.5219
1.53125
1.54034
1.5496
1.55865
1.56785
1.57682
1.58596
1.59479
1.60384
1.61246
1.62137
1.62974
1.63842
1.64647
1.65473
1.6621
1.66894
1.67321
1.1725
1.21563
1.26191
1.31
1.35941
1.40819
1.45695
1.50408
1.55037
1.5944
1.63753
1.67792
1.71741
1.75401
1.7898
1.82175
1.85335
1.87906
1.90107
1.90772
1.90272
1.8842
1.83541
1.72378
1.53078
1.30282
1.05426
0.865689
0.823379
0.832405
0.861791
0.909776
0.961723
1.00925
1.0526
1.09329
1.13168
1.16788
1.20098
1.2312
1.25753
1.28022
1.29872
1.31399
1.3255
1.33451
1.33956
1.33982
1.33682
1.33292
1.33058
1.33011
1.33149
1.33462
1.33859
1.34235
1.34674
1.35208
1.35888
1.36596
1.37356
1.38106
1.38891
1.39661
1.40464
1.41257
1.42087
1.42915
1.43779
1.44642
1.45524
1.46389
1.47278
1.4815
1.4905
1.49929
1.50835
1.51716
1.52622
1.53501
1.54404
1.55277
1.56175
1.57038
1.57929
1.58782
1.59667
1.60511
1.61393
1.62227
1.63102
1.63922
1.64783
1.65581
1.66414
1.67175
1.67954
1.68641
1.69267
1.69672
1.18523
1.22378
1.26545
1.30909
1.35437
1.40014
1.44524
1.49046
1.53395
1.577
1.61789
1.65816
1.69578
1.73307
1.7673
1.80102
1.83167
1.86013
1.88514
1.89863
1.89784
1.88694
1.85523
1.77875
1.62136
1.34203
0.992382
0.791754
0.774011
0.793549
0.837327
0.893292
0.946622
0.997637
1.04665
1.09391
1.13879
1.18081
1.21972
1.25498
1.28672
1.31499
1.33883
1.35849
1.37387
1.38542
1.39379
1.39856
1.39993
1.39729
1.39311
1.38872
1.38623
1.38528
1.38653
1.38879
1.39179
1.39504
1.3998
1.40559
1.41221
1.41893
1.42607
1.43314
1.44054
1.44787
1.45554
1.46321
1.47132
1.47934
1.48764
1.49582
1.50427
1.51255
1.52112
1.52947
1.53815
1.5466
1.55538
1.5639
1.57271
1.58123
1.59002
1.59845
1.60719
1.61551
1.62418
1.63233
1.64091
1.64884
1.65727
1.66494
1.6731
1.68044
1.68818
1.69503
1.70208
1.70816
1.71381
1.71733
1.19956
1.23418
1.27156
1.3114
1.35223
1.39516
1.43721
1.47974
1.52118
1.56222
1.60168
1.64066
1.67721
1.7139
1.74722
1.78115
1.81101
1.84055
1.86533
1.8812
1.8812
1.87178
1.8448
1.77949
1.64173
1.38115
1.02172
0.812391
0.798253
0.824561
0.871839
0.93126
0.988899
1.0427
1.09207
1.13734
1.17954
1.21932
1.25666
1.29083
1.32195
1.34975
1.37468
1.39576
1.41284
1.42613
1.43695
1.44418
1.44861
1.45044
1.44864
1.44394
1.4386
1.43436
1.43202
1.43164
1.43309
1.4352
1.43809
1.44192
1.44733
1.45333
1.45996
1.46654
1.47349
1.48042
1.48776
1.4952
1.50294
1.51057
1.51849
1.52627
1.53436
1.54229
1.55054
1.55857
1.5669
1.57494
1.5833
1.59135
1.59974
1.60779
1.61619
1.6242
1.63258
1.64047
1.6488
1.65652
1.66473
1.67223
1.68023
1.68744
1.69508
1.70182
1.70889
1.71497
1.72143
1.72673
1.73135
1.73426
1.21486
1.24761
1.28069
1.31695
1.35419
1.39282
1.43254
1.47215
1.51107
1.55064
1.58765
1.62603
1.6608
1.69693
1.72944
1.76243
1.79232
1.82013
1.84447
1.85558
1.85224
1.84037
1.80961
1.73766
1.60568
1.40055
1.15922
0.958454
0.907805
0.921083
0.947249
0.993355
1.04692
1.09504
1.13757
1.17638
1.2131
1.24799
1.28128
1.31262
1.34209
1.3697
1.39509
1.41795
1.43803
1.45476
1.46832
1.479
1.48709
1.4917
1.49378
1.4933
1.48977
1.48484
1.47994
1.47682
1.47491
1.47533
1.47685
1.47874
1.48173
1.48619
1.49217
1.49834
1.50488
1.51135
1.51821
1.52505
1.53222
1.53932
1.54678
1.55411
1.5618
1.56928
1.57715
1.58476
1.59277
1.60051
1.60864
1.61647
1.62467
1.6325
1.64073
1.64846
1.65664
1.66422
1.67227
1.67965
1.68748
1.69455
1.70204
1.70863
1.71559
1.72146
1.72782
1.73304
1.73854
1.74246
1.7454
1.74753
1.23071
1.26107
1.29228
1.32445
1.35904
1.39429
1.43032
1.46799
1.50398
1.54155
1.57706
1.61302
1.64757
1.68127
1.71412
1.74479
1.77453
1.79963
1.81858
1.82132
1.81322
1.79214
1.74448
1.64329
1.49928
1.38481
1.27708
1.12793
1.02061
0.994699
1.00513
1.02511
1.06232
1.10867
1.15199
1.19075
1.22667
1.26075
1.29305
1.32394
1.35343
1.38158
1.40791
1.43231
1.45444
1.47429
1.49117
1.505
1.5163
1.52556
1.53106
1.5337
1.53436
1.5324
1.52783
1.5227
1.51822
1.5157
1.51497
1.51587
1.51755
1.51984
1.52379
1.52899
1.53512
1.54136
1.54805
1.55456
1.56139
1.56807
1.57514
1.58206
1.58941
1.59656
1.60415
1.61146
1.61923
1.62664
1.63451
1.64196
1.64987
1.6573
1.66518
1.67252
1.68028
1.68744
1.69501
1.70187
1.70914
1.71552
1.72231
1.72793
1.7341
1.73909
1.74456
1.74852
1.75226
1.75414
1.75498
1.75719
1.24479
1.27532
1.30491
1.33471
1.36568
1.39851
1.43156
1.46591
1.50039
1.53493
1.56922
1.60313
1.63617
1.66867
1.69975
1.72958
1.7558
1.77778
1.78435
1.77809
1.76156
1.72255
1.63897
1.5124
1.42177
1.37634
1.3381
1.26907
1.16963
1.09221
1.06609
1.07094
1.08547
1.11582
1.15713
1.19705
1.23428
1.26897
1.30143
1.33239
1.36199
1.39037
1.41708
1.44248
1.4662
1.48831
1.50806
1.52546
1.53978
1.55197
1.56212
1.56905
1.57264
1.57418
1.5737
1.57058
1.56551
1.56092
1.55728
1.55537
1.55535
1.55649
1.55824
1.56101
1.56567
1.57138
1.57774
1.58392
1.59041
1.59671
1.60341
1.60994
1.61694
1.62367
1.63092
1.6378
1.64524
1.65223
1.65976
1.66683
1.67437
1.68144
1.68894
1.69589
1.70328
1.70992
1.7171
1.72321
1.72994
1.73529
1.74118
1.74594
1.75098
1.75499
1.75842
1.76059
1.76147
1.7613
1.7596
1.76215
1.26334
1.28903
1.31768
1.34535
1.37439
1.40403
1.43515
1.46686
1.49871
1.5315
1.56358
1.5958
1.62741
1.65788
1.6874
1.71414
1.73669
1.74632
1.74185
1.72742
1.69273
1.62117
1.49993
1.4113
1.37984
1.37326
1.36694
1.34617
1.30122
1.22996
1.16041
1.12603
1.12408
1.13598
1.15997
1.19555
1.23445
1.27151
1.3058
1.33806
1.36858
1.3974
1.42485
1.45103
1.47613
1.49957
1.52143
1.54116
1.55894
1.57401
1.587
1.59792
1.60636
1.61094
1.61297
1.61339
1.61169
1.60744
1.6027
1.5981
1.5954
1.59428
1.59485
1.596
1.59812
1.60178
1.6073
1.61306
1.61934
1.62537
1.63181
1.63792
1.64458
1.65088
1.65779
1.66429
1.67134
1.67798
1.68509
1.69175
1.6989
1.70543
1.71259
1.71883
1.72582
1.73166
1.7381
1.74336
1.74876
1.75334
1.75794
1.76177
1.76499
1.76707
1.76792
1.76781
1.76692
1.76467
1.75865
1.75967
1.28138
1.30209
1.33018
1.35736
1.38407
1.41198
1.4401
1.46996
1.49964
1.52991
1.56042
1.59058
1.62035
1.64901
1.67526
1.69789
1.70907
1.70622
1.69262
1.66084
1.59541
1.47656
1.38643
1.35827
1.36078
1.37203
1.38302
1.3848
1.37471
1.34295
1.28576
1.21903
1.18021
1.17418
1.18435
1.20331
1.2342
1.27095
1.30746
1.34192
1.3741
1.40403
1.43232
1.45928
1.4851
1.5095
1.53255
1.55418
1.57423
1.59232
1.60814
1.62166
1.63339
1.64279
1.6487
1.65153
1.65247
1.65192
1.64896
1.64395
1.6395
1.63554
1.63359
1.63303
1.63381
1.6352
1.63806
1.64236
1.64812
1.65387
1.6601
1.66597
1.67225
1.6782
1.68463
1.69066
1.6973
1.70334
1.71013
1.71611
1.72292
1.72879
1.73535
1.74102
1.74701
1.7522
1.75724
1.76155
1.76574
1.76932
1.77225
1.77415
1.77484
1.77461
1.7736
1.77117
1.76609
1.76094
1.75302
1.75178
1.30579
1.3192
1.34241
1.36952
1.39545
1.42106
1.44761
1.47454
1.50272
1.5308
1.55919
1.58723
1.61486
1.64027
1.66228
1.67392
1.67178
1.65832
1.62767
1.56465
1.45272
1.36064
1.33274
1.33692
1.35121
1.37446
1.39744
1.40944
1.4109
1.40415
1.38105
1.33515
1.27581
1.23767
1.22756
1.23497
1.24853
1.27368
1.30782
1.34357
1.37768
1.40926
1.43888
1.46708
1.49365
1.51891
1.54286
1.56578
1.58726
1.60732
1.6254
1.64162
1.65568
1.66813
1.67834
1.68566
1.68943
1.69086
1.69103
1.68936
1.68546
1.68029
1.67581
1.67259
1.67114
1.67128
1.67205
1.67387
1.67756
1.68249
1.68822
1.6937
1.69977
1.7052
1.71139
1.71679
1.72306
1.72851
1.73474
1.74024
1.74626
1.75166
1.7572
1.76216
1.76682
1.77082
1.77446
1.77773
1.78031
1.78184
1.78233
1.78176
1.78054
1.77727
1.77275
1.76651
1.76009
1.75342
1.74578
1.74464
1.33098
1.33749
1.35613
1.38122
1.40635
1.43099
1.45564
1.48118
1.5068
1.53339
1.55954
1.58535
1.60941
1.63038
1.64162
1.63938
1.62554
1.59487
1.53218
1.42475
1.3306
1.30293
1.30775
1.32337
1.34923
1.3796
1.40735
1.42603
1.43511
1.4371
1.43333
1.41735
1.38218
1.33463
1.29735
1.28192
1.28502
1.29511
1.31485
1.34504
1.37849
1.41164
1.4433
1.4731
1.50103
1.52717
1.55223
1.57598
1.59877
1.61988
1.63992
1.65812
1.67476
1.68927
1.7022
1.7132
1.72155
1.7266
1.72899
1.72952
1.72877
1.72591
1.7209
1.71628
1.71182
1.70946
1.70836
1.70875
1.70985
1.71231
1.71665
1.72134
1.72712
1.73218
1.73793
1.74293
1.7485
1.75352
1.75888
1.76383
1.7688
1.77337
1.7776
1.7812
1.78427
1.78707
1.78923
1.79034
1.79056
1.78976
1.788
1.78396
1.77934
1.77252
1.76599
1.75908
1.75252
1.74846
1.74344
1.74418
1.36771
1.36288
1.37199
1.39191
1.41728
1.44153
1.46505
1.48864
1.51267
1.53671
1.56075
1.58321
1.6025
1.61261
1.60963
1.59499
1.56342
1.50037
1.39322
1.29825
1.27117
1.27719
1.29365
1.32179
1.35548
1.3856
1.41248
1.43421
1.45094
1.46056
1.46464
1.46453
1.45545
1.43088
1.39459
1.35728
1.33786
1.3358
1.34363
1.35811
1.38232
1.41315
1.44569
1.47712
1.50649
1.53415
1.56045
1.58549
1.60896
1.63138
1.65234
1.67241
1.6907
1.70763
1.7224
1.73592
1.74757
1.75689
1.76313
1.76653
1.76744
1.76732
1.76552
1.76159
1.75596
1.75128
1.74723
1.74573
1.74498
1.74544
1.74688
1.74982
1.75444
1.75897
1.76405
1.76873
1.77353
1.77798
1.78238
1.78642
1.79014
1.79327
1.79577
1.79782
1.79944
1.80012
1.79982
1.79884
1.79643
1.79156
1.78624
1.7792
1.77195
1.76518
1.75844
1.75448
1.75093
1.75044
1.75027
1.75226
1.41185
1.3892
1.3911
1.40516
1.42697
1.45135
1.47441
1.49664
1.51881
1.54066
1.56125
1.57887
1.58729
1.58292
1.56703
1.53351
1.46856
1.36019
1.2687
1.24292
1.24971
1.26621
1.29525
1.33
1.36187
1.38937
1.41494
1.43771
1.45867
1.47669
1.48789