/*--------------------------------*- C++ -*----------------------------------*\
  =========                 |
  \\      /  F ield         | OpenFOAM: The Open Source CFD Toolbox
   \\    /   O peration     | Website:  https://openfoam.org
    \\  /    A nd           | Version:  13
     \\/     M anipulation  |
\*---------------------------------------------------------------------------*/
FoamFile
{
    format      ascii;
    class       volScalarField;
    location    "4";
    object      p;
}
// * * * * * * * * * * * * * * * * * * * * * * * * * * * * * * * * * * * * * //

dimensions      [1 -1 -2 0 0 0 0];

internalField   nonuniform List<scalar> 
5250
(
1.00001
1.00003
1.00008
1.00022
1.00051
1.00137
1.0031
1.0083
1.01906
1.05
1.1207
1.3164
1.84903
3.42111
8.00611
11.687
11.2839
11.0395
11.1233
11.3519
11.5796
11.7167
11.8214
11.904
11.9655
1.00001
1.00003
1.00008
1.00021
1.00052
1.00128
1.00323
1.00773
1.01971
1.04754
1.12101
1.30848
1.83623
3.37539
7.89131
11.7007
11.2835
11.0298
11.1144
11.344
11.5716
11.7092
11.8153
11.8993
11.9623
1
1.00003
1.00007
1.00021
1.00048
1.0013
1.00295
1.00786
1.01822
1.04727
1.11495
1.29934
1.80232
3.28132
7.63322
11.728
11.2794
10.9999
11.083
11.3104
11.536
11.6718
11.7776
11.8612
11.9246
1.00001
1.00002
1.00008
1.00018
1.0005
1.00113
1.00304
1.00693
1.0183
1.04311
1.11102
1.28021
1.75635
3.13832
7.23558
11.768
11.2741
10.9504
11.029
11.2499
11.4727
11.605
11.7079
11.7898
11.8545
1
1.00002
1.00007
1.00018
1.00044
1.00112
1.00267
1.00684
1.01615
1.04156
1.10089
1.26152
1.69344
2.95833
6.71225
11.8049
11.2675
10.8846
10.9552
11.1645
11.3837
11.5106
11.6086
11.6879
11.7554
1
1.00002
1.00006
1.00017
1.00039
1.00105
1.00238
1.00637
1.01456
1.03833
1.09133
1.23786
1.62407
2.75049
6.08676
11.7894
11.2487
10.8032
10.8616
11.0517
11.2643
11.3822
11.4708
11.5435
11.6129
1
1.00002
1.00006
1.00015
1.00036
1.00094
1.00224
1.00558
1.01372
1.03369
1.08409
1.21228
1.55939
2.55112
5.48801
11.6344
11.1747
10.7002
10.7455
10.9082
11.1071
11.2104
11.282
11.3394
11.4054
1
1.00002
1.00005
1.00014
1.00032
1.00087
1.00196
1.00527
1.01197
1.03164
1.07489
1.19435
1.50326
2.39687
5.04075
11.1918
10.9813
10.5848
10.61
10.7296
10.9042
10.984
11.026
11.0489
11.0913
1
1.00002
1.00005
1.00013
1.00029
1.00079
1.00177
1.00478
1.01084
1.02867
1.06774
1.17561
1.45236
2.2506
4.60009
10.4873
10.6965
10.5109
10.4643
10.5246
10.6523
10.6941
10.6846
10.6341
10.5841
1
1.00001
1.00004
1.00011
1.00026
1.0007
1.0016
1.00426
1.0097
1.02574
1.06044
1.15699
1.40114
2.10469
4.15697
9.60836
10.5373
10.4112
10.2845
10.3054
10.3582
10.3414
10.2518
10.0317
9.69249
1
1.00001
1.00004
1.00009
1.00025
1.00057
1.00153
1.00346
1.00921
1.02125
1.05537
1.13452
1.35261
1.952
3.71105
8.56973
10.4262
10.3127
10.0975
10.065
10.0407
9.94701
9.68925
9.08788
7.53019
1
1.00001
1.00003
1.00009
1.0002
1.00053
1.00121
1.00318
1.00747
1.01896
1.04619
1.11629
1.29706
1.79867
3.25178
7.37435
10.3436
10.215
9.92998
9.81767
9.72873
9.53412
9.11845
8.28641
6.63921
1
1.00001
1.00003
1.00007
1.00016
1.00044
1.001
1.00269
1.00606
1.01613
1.0375
1.09701
1.24151
1.64516
2.78908
6.07203
10.2344
10.1085
9.78853
9.57681
9.42104
9.14306
8.6255
7.76402
6.42088
1
1.00001
1.00002
1.00006
1.00014
1.00035
1.00085
1.00206
1.00519
1.01232
1.03137
1.07562
1.19312
1.4988
2.36207
4.79321
9.91838
9.90513
9.6766
9.35594
9.12673
8.80135
8.26612
7.46746
6.3924
1
1.00001
1.00002
1.00004
1.00012
1.00027
1.00072
1.00163
1.00433
1.00984
1.026
1.06089
1.15759
1.40065
2.09359
4.0673
9.02298
9.63072
9.47798
9.15192
8.8645
8.51571
8.00229
7.28732
6.39051
1
1.00001
1.00001
1.00004
1.00009
1.00023
1.00054
1.00142
1.00323
1.00856
1.01962
1.05137
1.12331
1.32261
1.85856
3.40577
7.54703
9.35487
9.26159
8.99606
8.64726
8.28004
7.79707
7.15869
6.38652
1
1
1.00001
1.00003
1.00007
1.00018
1.00042
1.00111
1.00258
1.00657
1.01578
1.03937
1.09722
1.24733
1.65294
2.80006
5.98829
9.16478
9.11767
8.89234
8.48022
8.08832
7.63056
7.05663
6.37901
1
1
1.00001
1.00002
1.00005
1.00014
1.00032
1.00084
1.00192
1.00506
1.01148
1.03025
1.07071
1.1827
1.46437
2.25025
4.37731
8.74841
8.9793
8.7954
8.3814
7.94142
7.49461
6.97258
6.3702
1
1
1.00001
1.00002
1.00004
1.00011
1.00025
1.00064
1.00146
1.00386
1.00874
1.02308
1.0537
1.13856
1.34828
1.93707
3.57283
7.68036
8.72694
8.60721
8.28384
7.82147
7.38107
6.90069
6.36005
1
1
1.00001
1.00001
1.00003
1.00007
1.0002
1.00045
1.00117
1.00271
1.00695
1.01654
1.04136
1.10185
1.25882
1.68196
2.86424
6.03803
8.45517
8.41315
8.1966
7.74523
7.29277
6.83948
6.34885
1
1
1
1.00001
1.00002
1.00005
1.00014
1.00033
1.00083
1.00201
1.00485
1.01212
1.02897
1.07269
1.17914
1.46303
2.22324
4.2396
7.99931
8.27633
8.11649
7.72583
7.23845
6.79345
6.34013
1
1
1
1.00001
1.00002
1.00004
1.0001
1.00024
1.0006
1.00145
1.00349
1.00876
1.02079
1.05249
1.1276
1.32786
1.8599
3.32474
6.90791
8.04981
7.95926
7.68472
7.21293
6.76516
6.33655
1
1
1
1
1.00001
1.00003
1.00007
1.00017
1.00044
1.00099
1.00259
1.00598
1.01526
1.03643
1.09127
1.22777
1.59401
2.59284
5.21849
7.71696
7.74722
7.59901
7.22714
6.76628
6.33927
1
1
1
1
1.00001
1.00002
1.00005
1.00011
1.0003
1.00068
1.00179
1.00403
1.01057
1.02422
1.06216
1.14948
1.38481
1.99737
3.59446
7.01337
7.61436
7.51215
7.22608
6.78112
6.35081
1
1
1
1
1.00001
1.00001
1.00003
1.00009
1.00019
1.0005
1.00115
1.00293
1.00691
1.01715
1.0417
1.10281
1.25848
1.66999
2.77745
5.56273
7.3625
7.35023
7.20238
6.83769
6.38065
1
1
1
1
1
1.00001
1.00002
1.00006
1.00013
1.00033
1.00075
1.00197
1.00443
1.01163
1.02643
1.06824
1.16279
1.41984
2.07593
3.73324
6.83064
7.24756
7.14913
6.88498
6.44048
1
1
1
1
1
1.00001
1.00001
1.00004
1.00009
1.00021
1.00054
1.00122
1.00318
1.00716
1.01879
1.04307
1.11051
1.27049
1.70554
2.83832
5.61617
7.0258
7.01592
6.87505
6.54282
1
1
1
1
1
1
1.00001
1.00002
1.00006
1.00014
1.00035
1.00079
1.00206
1.00463
1.01212
1.02755
1.071
1.16937
1.43643
2.11503
3.81945
6.52211
6.90496
6.82443
6.59575
1
1
1
1
1
1
1.00001
1.00001
1.00004
1.00009
1.00023
1.00051
1.00132
1.00301
1.00768
1.01795
1.04473
1.10824
1.27187
1.69399
2.7865
5.3808
6.67423
6.6891
6.57991
1
1
1
1
1
1
1
1.00001
1.00002
1.00006
1.00014
1.00033
1.00083
1.00187
1.00487
1.01093
1.02851
1.06548
1.1671
1.41219
2.05362
3.61264
6.14901
6.57812
6.52433
1
1
1
1
1
1
1
1.00001
1.00001
1.00004
1.00008
1.00022
1.00048
1.00125
1.00285
1.00723
1.01693
1.04183
1.1015
1.25239
1.64044
2.62774
4.9752
6.33202
6.40632
1
1
1
1
1
1
1
1
1.00001
1.00002
1.00005
1.00012
1.00032
1.00071
1.00183
1.0041
1.01062
1.02406
1.06129
1.14462
1.3655
1.90499
3.19266
5.76416
6.29216
1
1
1
1
1
1
1
1
1.00001
1.00001
1.00003
1.00008
1.00018
1.00046
1.00107
1.00261
1.00634
1.01499
1.03728
1.08862
1.2221
1.55464
2.40863
4.47166
5.98986
1
1
1
1
1
1
1
1
1
1.00001
1.00002
1.00005
1.00011
1.00028
1.00062
1.00159
1.00366
1.00903
1.02158
1.05211
1.12715
1.31336
1.78075
2.90083
5.27352
1
1
1
1
1
1
1
1
1
1
1.00001
1.00003
1.00007
1.00016
1.00038
1.00095
1.00214
1.00551
1.01233
1.03198
1.07311
1.18586
1.45405
2.14186
3.7753
1
1
1
1
1
1
1
1
1
1
1.00001
1.00002
1.00004
1.0001
1.00022
1.00055
1.00127
1.00309
1.00747
1.01768
1.04345
1.10371
1.25688
1.63444
2.55647
1
1
1
1
1
1
1
1
1
1
1
1.00001
1.00002
1.00005
1.00013
1.0003
1.00074
1.00175
1.00417
1.01015
1.02374
1.05853
1.13881
1.3435
1.83113
1
1
1
1
1
1
1
1
1
1
1
1.00001
1.00001
1.00003
1.00007
1.00017
1.00042
1.00098
1.00247
1.00557
1.01424
1.03222
1.08175
1.19232
1.48403
1
1
1
1
1
1
1
1
1
1
1
1
1.00001
1.00002
1.00004
1.0001
1.00024
1.00054
1.00139
1.00309
1.00797
1.01779
1.04534
1.10471
1.26154
1
1
1
1
1
1
1
1
1
1
1
1
1
1.00001
1.00002
1.00006
1.00013
1.00032
1.00072
1.00178
1.00421
1.00994
1.02422
1.05669
1.1387
1
1
1
1
1
1
1
1
1
1
1
1
1
1.00001
1.00001
1.00003
1.00007
1.00018
1.00039
1.00101
1.00225
1.00572
1.01297
1.03223
1.07551
1
1
1
1
1
1
1
1
1
1
1
1
1
1
1.00001
1.00002
1.00004
1.00009
1.00023
1.00053
1.00125
1.00307
1.00701
1.01757
1.04003
1
1
1
1
1
1
1
1
1
1
1
1
1
1
1
1.00001
1.00002
1.00005
1.00013
1.00028
1.00071
1.00157
1.00397
1.00889
1.02226
1
1
1
1
1
1
1
1
1
1
1
1
1
1
1
1.00001
1.00001
1.00003
1.00007
1.00016
1.00039
1.00088
1.00223
1.00495
1.01261
1
1
1
1
1
1
1
1
1
1
1
1
1
1
1
1
1.00001
1.00002
1.00004
1.0001
1.00023
1.0006
1.00132
1.00341
1.0076
1
1
1
1
1
1
1
1
1
1
1
1
1
1
1
1
1.00001
1.00001
1.00003
1.00007
1.00019
1.00043
1.00111
1.0025
1.00652
1
1
1
1
1
1
1
1
1
1
1
1
1
1
1
1
1
1.00001
1.00003
1.00007
1.00015
1.00041
1.00091
1.00244
1.00551
1
1
1
1
1
1
1
1
1
1
1
1
1
1
1
1
1
1.00001
1.00002
1.00006
1.00014
1.00039
1.00087
1.00235
1.00531
1
1
1
1
1
1
1
1
1
1
1
1
1
1
1
1
1
1.00001
1.00002
1.00006
1.00015
1.00036
1.00092
1.00218
1.00564
1
1
1
1
1
1
1
1
1
1
1
1
1
1
1
1
1
1.00001
1.00002
1.00006
1.00015
1.00037
1.0009
1.00219
1.00557
3.0278
1.53286
1.03805
0.941877
0.969061
1.05314
1.22981
1.3705
1.41932
1.41951
1.42133
1.43141
1.46254
1.53913
1.71001
2.08165
2.80739
3.30716
3.41335
3.45667
3.43732
3.38131
3.32165
3.27712
3.24157
3.20685
3.16984
3.14215
3.13027
3.12722
3.13562
3.17171
3.24848
3.36817
3.51309
3.66444
3.81189
3.94745
4.07
4.17636
4.26471
4.33806
4.39508
4.44733
4.4864
4.51073
4.52516
4.53159
4.53067
4.52538
4.51237
4.49157
4.46646
4.43857
4.4069
4.3726
4.3353
4.29611
4.25481
4.21221
4.16814
4.12322
4.07728
4.03079
3.98357
3.93596
3.88782
3.83942
3.79064
3.74168
3.6925
3.64325
3.59393
3.54466
3.49547
3.44649
3.39775
3.34935
3.30136
3.25386
3.20691
3.16055
3.11483
3.06976
3.0254
2.98169
2.93871
2.89637
2.85476
2.81378
2.77355
2.734
2.69524
2.65739
2.62066
2.58522
2.55173
2.52112
2.49508
2.47795
3.73104
2.33882
1.74496
1.49479
1.37888
1.29625
1.2811
1.29032
1.31622
1.3699
1.42261
1.44936
1.47832
1.53998
1.67715
1.98515
2.65494
3.2958
3.45225
3.44848
3.42272
3.36657
3.316
3.28835
3.25252
3.21379
3.17232
3.1361
3.11909
3.11473
3.12649
3.1615
3.23311
3.34852
3.49194
3.64144
3.78765
3.92131
4.04756
4.15693
4.24659
4.32108
4.3811
4.43414
4.47321
4.49949
4.51472
4.5218
4.5213
4.51743
4.50646
4.48459
4.45905
4.43135
4.40046
4.3667
4.32999
4.29113
4.25025
4.20793
4.16419
4.11947
4.07377
4.0274
3.98035
3.93283
3.88483
3.8365
3.78785
3.73898
3.68993
3.64078
3.59158
3.54242
3.49336
3.44447
3.39585
3.34754
3.29966
3.25223
3.20538
3.15908
3.11345
3.06843
3.02412
2.98046
2.93751
2.89521
2.85362
2.81265
2.77249
2.73301
2.69439
2.65649
2.61965
2.58408
2.5504
2.51948
2.49287
2.47516
4.55969
3.2628
2.4462
1.92897
1.59475
1.38961
1.26937
1.259
1.26737
1.29158
1.34196
1.39748
1.44642
1.49926
1.6065
1.83286
2.31522
3.15838
3.42855
3.4296
3.41122
3.36667
3.31404
3.27651
3.23794
3.19845
3.16175
3.13541
3.12145
3.11282
3.11797
3.14756
3.20788
3.32452
3.46906
3.61652
3.76412
3.90125
4.0265
4.13563
4.2265
4.30247
4.36436
4.41621
4.45582
4.48357
4.50015
4.50786
4.50762
4.50479
4.49592
4.47657
4.44948
4.42114
4.3908
4.35779
4.32188
4.28363
4.24333
4.20147
4.15818
4.1138
4.06842
4.02229
3.97546
3.92811
3.88028
3.8321
3.7836
3.73488
3.68599
3.63699
3.58796
3.53895
3.49006
3.44132
3.39285
3.34469
3.29695
3.24967
3.20295
3.15678
3.11128
3.06636
3.02219
2.97864
2.93575
2.89354
2.85207
2.81127
2.77113
2.73166
2.69298
2.65508
2.61817
2.58248
2.54852
2.51718
2.48983
2.47113
5.01721
3.84147
2.97157
2.366
1.95955
1.68671
1.51493
1.40788
1.34515
1.33426
1.33928
1.35526
1.38936
1.44916
1.53324
1.7023
2.05396
2.79548
3.34307
3.42164
3.40934
3.37454
3.32001
3.27751
3.23837
3.20123
3.16915
3.14446
3.12911
3.1219
3.12929
3.16084
3.22937
3.33066
3.4601
3.59789
3.73588
3.86914
3.99185
4.10058
4.19279
4.27034
4.33424
4.38694
4.42788
4.45744
4.47592
4.48507
4.48544
4.48364
4.47716
4.4619
4.43485
4.40596
4.37583
4.34361
4.30874
4.27144
4.23199
4.19082
4.14816
4.10428
4.05937
4.01361
3.96713
3.92007
3.87253
3.8246
3.77637
3.7279
3.67928
3.63053
3.58177
3.53301
3.48436
3.43585
3.38762
3.33967
3.29216
3.24509
3.19859
3.15263
3.10733
3.06249
3.01855
2.97521
2.9326
2.89055
2.84918
2.80843
2.76838
2.72897
2.69032
2.65243
2.61549
2.57965
2.54541
2.51358
2.48542
2.46561
5.29305
4.26099
3.42296
2.79005
2.32744
1.99112
1.74667
1.57181
1.45013
1.37401
1.34076
1.3427
1.35279
1.37879
1.43513
1.55174
1.7933
2.29425
3.10802
3.37883
3.39951
3.38255
3.33988
3.28894
3.24704
3.21381
3.18952
3.17332
3.17002
3.1766
3.20035
3.25013
3.31066
3.38673
3.48389
3.59322
3.70467
3.82319
3.94247
4.05294
4.1488
4.22944
4.29577
4.34979
4.39213
4.42347
4.44409
4.45517
4.45714
4.45595
4.45135
4.43997
4.41665
4.38776
4.35747
4.32576
4.29192
4.25576
4.21741
4.17717
4.13534
4.09216
4.04786
4.00263
3.95662
3.90998
3.86284
3.81528
3.76742
3.7193
3.67103
3.62263
3.5742
3.52576
3.47743
3.42922
3.38127
3.33361
3.28639
3.23961
3.19339
3.14769
3.10267
3.05841
3.01462
2.97145
2.92896
2.88707
2.84583
2.8052
2.76524
2.72592
2.68733
2.64946
2.61248
2.57654
2.54203
2.50974
2.48085
2.45984
5.4786
4.58274
3.8046
3.17493
2.68326
2.30607
2.01823
1.80147
1.63954
1.52271
1.44206
1.38756
1.37898
1.38517
1.40871
1.47048
1.6115
1.92003
2.58029
3.21262
3.37135
3.37457
3.3584
3.31815
3.26985
3.24055
3.23027
3.23216
3.24395
3.27811
3.34895
3.41524
3.46183
3.50335
3.55399
3.61324
3.68419
3.7572
3.86616
3.9803
4.08567
4.17464
4.2464
4.3033
4.34763
4.38092
4.40388
4.41741
4.4219
4.42124
4.41825
4.41031
4.39313
4.36574
4.33565
4.30428
4.27128
4.23627
4.19914
4.16002
4.11916
4.07681
4.03324
3.98863
3.9432
3.89707
3.85042
3.80333
3.75591
3.70823
3.66038
3.61239
3.56436
3.51629
3.46831
3.42045
3.37284
3.32553
3.27863
3.23219
3.18637
3.14115
3.09653
3.05249
3.00902
2.96609
2.92379
2.88206
2.84099
2.8005
2.76068
2.72148
2.68299
2.64519
2.60825
2.57224
2.53757
2.50491
2.47541
2.4534
5.60798
4.82859
4.11706
3.50973
3.01065
2.6095
2.29064
2.03864
1.84043
1.68568
1.56673
1.48101
1.42054
1.40031
1.40611
1.43123
1.5021
1.66979
2.03563
2.79371
3.25617
3.35738
3.35548
3.34198
3.31095
3.2854
3.28794
3.30355
3.34892
3.45073
3.58687
3.66125
3.68434
3.68413
3.68033
3.67291
3.68153
3.71248
3.77565
3.87687
3.99221
4.09623
4.18032
4.24493
4.29403
4.33035
4.35601
4.37231
4.38013
4.38012
4.37872
4.37392
4.36256
4.33956
4.31073
4.27985
4.24751
4.21351
4.17759
4.13969
4.09998
4.05864
4.01596
3.97214
3.92742
3.88195
3.83591
3.78941
3.74256
3.69542
3.64809
3.6006
3.55302
3.5054
3.45783
3.41037
3.36318
3.31628
3.26991
3.22405
3.17874
3.13393
3.08967
3.0459
3.00271
2.96003
2.91796
2.87645
2.83557
2.79527
2.75562
2.71658
2.67822
2.64054
2.60367
2.56768
2.53292
2.50001
2.47004
2.4472
5.7006
5.01537
4.36897
3.79384
3.3023
2.89144
2.55354
2.27755
2.05324
1.87242
1.72711
1.61302
1.52598
1.46383
1.43861
1.44444
1.47158
1.55021
1.73813
2.14049
2.93692
3.27513
3.34529
3.34831
3.34465
3.3445
3.35611
3.39908
3.50477
3.72233
3.91114
3.96751
3.96003
3.9279
3.85143
3.75225
3.70351
3.70794
3.73053
3.78155
3.87512
3.98659
4.08659
4.16635
4.2264
4.2697
4.30026
4.3204
4.3319
4.33509
4.33437
4.33153
4.32424
4.30856
4.28264
4.25287
4.22124
4.18808
4.15324
4.11654
4.07802
4.0378
3.99613
3.95321
3.90931
3.86459
3.81925
3.7734
3.72718
3.68063
3.63387
3.58689
3.53981
3.49264
3.44553
3.39849
3.35183
3.30559
3.25983
3.21449
3.16963
3.12519
3.08126
3.03779
2.99489
2.95249
2.91069
2.86943
2.82878
2.78871
2.74928
2.71043
2.67228
2.63476
2.59803
2.56214
2.52739
2.49437
2.4641
2.4407
5.76824
5.15927
4.57151
4.03299
3.55733
3.1477
2.80038
2.50918
2.26614
2.06455
1.89791
1.76083
1.64982
1.56269
1.49725
1.4718
1.47834
1.50848
1.596
1.80585
2.26091
3.00578
3.28021
3.34254
3.36438
3.38656
3.43376
3.53846
3.75979
4.10211
4.30218
4.31299
4.28664
4.20533
4.03436
3.86662
3.76
3.71918
3.72325
3.7422
3.78528
3.86636
3.96739
4.06098
4.13698
4.19381
4.23403
4.26099
4.27779
4.28555
4.28558
4.28439
4.2803
4.27054
4.25049
4.22284
4.19235
4.1601
4.12621
4.09059
4.05323
4.01417
3.97362
3.93175
3.88881
3.84496
3.80045
3.75535
3.70986
3.66398
3.61785
3.57145
3.52489
3.47822
3.43163
3.38533
3.33939
3.2938
3.24862
3.20379
3.15936
3.11533
3.07177
3.02866
2.98609
2.94401
2.90252
2.86155
2.8212
2.78139
2.74223
2.70364
2.66573
2.62845
2.59193
2.55623
2.5216
2.48861
2.45822
2.43444
5.8193
5.2721
4.73609
4.23378
3.77911
3.37717
3.02821
2.7285
2.47297
2.25629
2.07303
1.91886
1.78963
1.68296
1.59768
1.53226
1.50933
1.51706
1.55163
1.65043
1.88746
2.39997
3.05337
3.29207
3.36405
3.42825
3.53004
3.7364
4.15055
4.57092
4.72021
4.70378
4.63421
4.4693
4.21587
4.00537
3.85806
3.77021
3.73379
3.73607
3.74952
3.78256
3.84899
3.93688
4.0232
4.09587
4.15138
4.19013
4.21547
4.22921
4.2338
4.23333
4.23111
4.22518
4.21226
4.18868
4.16036
4.12938
4.09651
4.06191
4.02566
3.9878
3.94846
3.90775
3.86591
3.82308
3.7795
3.73526
3.69056
3.64541
3.59994
3.55411
3.50808
3.46205
3.41626
3.37074
3.32554
3.28058
3.23596
3.19161
3.14765
3.10404
3.0609
3.01816
2.97597
2.93424
2.89309
2.85245
2.81242
2.77293
2.73408
2.69581
2.65821
2.62124
2.58505
2.54964
2.51529
2.48249
2.45218
2.42822
5.85927
5.36273
4.87135
4.40336
3.97138
3.58168
3.23611
2.93347
2.67046
2.44319
2.24766
2.07969
1.93623
1.81396
1.71127
1.62804
1.56362
1.54499
1.5544
1.59383
1.70417
1.96438
2.51762
3.10203
3.33253
3.47865
3.66508
4.04042
4.67441
5.08988
5.13547
5.09506
4.96654
4.69503
4.39901
4.16275
3.9875
3.86386
3.78501
3.74415
3.74247
3.74873
3.77108
3.82022
3.89658
3.97627
4.04671
4.10141
4.13989
4.16358
4.17567
4.17803
4.17708
4.17378
4.16581
4.14921
4.12404
4.09496
4.06346
4.03005
3.99499
3.95836
3.9203
3.88085
3.84023
3.79854
3.75603
3.71277
3.66896
3.6246
3.57982
3.53458
3.48938
3.44424
3.39935
3.35462
3.31013
3.2658
3.22175
3.17794
3.13449
3.09136
3.04867
3.00638
2.96461
2.92329
2.88253
2.84229
2.80264
2.76353
2.72507
2.68719
2.65001
2.61345
2.57769
2.54273
2.50883
2.47647
2.44648
2.42266
5.89192
5.43708
4.98421
4.54802
4.13893
3.76383
3.42513
3.12346
2.85675
2.62274
2.41792
2.23963
2.08438
1.95006
1.83408
1.7355
1.65509
1.59298
1.58094
1.59274
1.63819
1.76237
2.04398
2.63505
3.18993
3.49182
3.84454
4.52499
5.30109
5.59054
5.56852
5.46901
5.23287
4.88237
4.57607
4.33022
4.13631
3.98538
3.87261
3.79443
3.74928
3.73614
3.73806
3.7507
3.78314
3.84871
3.92095
3.98853
4.04301
4.08151
4.10522
4.11633
4.11711
4.11577
4.11147
4.10164
4.08181
4.05565
4.02613
3.99431
3.9607
3.92548
3.88883
3.85077
3.8115
3.7711
3.72979
3.68765
3.64484
3.60134
3.5573
3.51307
3.46886
3.42471
3.3807
3.33675
3.29297
3.24929
3.20586
3.16263
3.11974
3.07714
3.03498
2.99318
2.95189
2.91104
2.87075
2.83096
2.79178
2.75314
2.71516
2.67776
2.64111
2.6051
2.56994
2.53562
2.50241
2.47081
2.44147
2.41835
5.91996
5.49921
5.08044
4.67319
4.28655
3.92658
3.59708
3.29872
3.03148
2.79325
2.58229
2.39576
2.23162
2.0872
1.96083
1.85075
1.75606
1.67977
1.61971
1.6198
1.63509
1.68883
1.83287
2.15004
2.81037
3.44251
4.08107
5.20451
5.94347
6.03035
5.96841
5.78373
5.41256
5.05356
4.75195
4.50193
4.29435
4.12223
3.98299
3.87415
3.79488
3.74436
3.72272
3.71718
3.72297
3.74398
3.79006
3.85473
3.91948
3.97385
4.01382
4.03851
4.04999
4.05005
4.04849
4.04354
4.03234
4.01073
3.98393
3.95414
3.92231
3.88878
3.85375
3.81726
3.77948
3.74051
3.70056
3.65965
3.61792
3.57537
3.53248
3.48942
3.44634
3.40319
3.36007
3.31693
3.2739
3.23094
3.18819
3.14561
3.10334
3.06135
3.01977
2.97854
2.93781
2.89751
2.85777
2.81853
2.77992
2.74185
2.70448
2.66771
2.63175
2.59649
2.56217
2.5288
2.49662
2.46628
2.43802
2.41649
5.94969
5.55659
5.16668
4.78466
4.41849
4.07331
3.75345
3.46011
3.19403
2.95391
2.73883
2.54641
2.37526
2.22294
2.08811
1.96881
1.86426
1.77489
1.70063
1.65678
1.66115
1.68677
1.76392
1.95147
2.36148
3.21713
4.32292
5.99244
6.49647
6.45325
6.29743
5.96442
5.56745
5.22074
4.9258
4.67256
4.45392
4.26643
4.10711
3.97481
3.86825
3.78734
3.73122
3.70237
3.6859
3.68743
3.69841
3.72592
3.78129
3.84013
3.89384
3.93551
3.96258
3.97539
3.97683
3.97533
3.9703
3.9588
3.93655
3.90951
3.87977
3.84811
3.81489
3.78014
3.74406
3.70671
3.66827
3.6287
3.58814
3.54691
3.50539
3.4636
3.42167
3.37954
3.33736
3.29509
3.25288
3.2107
3.16871
3.12685
3.0853
3.04399
3.00309
2.96253
2.92246
2.88281
2.84374
2.80516
2.76724
2.72989
2.69329
2.65735
2.62231
2.58809
2.55494
2.52296
2.49233
2.46397
2.43748
2.41811
5.98681
5.61381
5.2466
4.88585
4.53743
4.20636
3.89583
3.60861
3.34474
3.10471
2.88692
2.69083
2.51402
2.35594
2.21397
2.08755
1.97541
1.87572
1.7949
1.72264
1.71654
1.7287
1.77601
1.90752
2.21491
2.90302
4.35649
6.61376
6.89396
6.78748
6.51218
6.08313
5.70151
5.37261
5.08475
4.83112
4.60766
4.41126
4.23931
4.09029
3.96275
3.85729
3.77327
3.71143
3.67367
3.64995
3.64021
3.64502
3.66209
3.69934
3.75214
3.80367
3.84685
3.87739
3.89414
3.8984
3.89719
3.89262
3.88186
3.86021
3.83364
3.80404
3.77256
3.73954
3.70523
3.66966
3.63288
3.59479
3.55577
3.51612
3.47604
3.43556
3.3948
3.35376
3.31259
3.27127
3.22998
3.18866
3.1475
3.10645
3.06569
3.02514
2.985
2.94519
2.90588
2.86698
2.82871
2.79093
2.75388
2.71743
2.68185
2.64702
2.61326
2.58051
2.5491
2.51919
2.49096
2.46526
2.4403
2.42426
6.03925
5.67326
5.32151
4.9786
4.64497
4.32678
4.02568
3.74487
3.48442
3.24563
3.02671
2.82835
2.64755
2.48505
2.33754
2.20543
2.0873
1.98069
1.89455
1.81352
1.7992
1.80971
1.85042
1.96549
2.24287
2.86981
4.22131
6.76312
7.09592
6.98288
6.69106
6.2523
5.86432
5.53157
5.24312
4.98936
4.76383
4.56198
4.38081
4.21842
4.07484
3.94897
3.84201
3.75409
3.68608
3.64
3.60912
3.58792
3.58884
3.59685
3.61769
3.6602
3.70799
3.75255
3.78635
3.80697
3.81545
3.81477
3.81121
3.80204
3.78309
3.75714
3.72747
3.6959
3.66317
3.62931
3.59419
3.55784
3.52065
3.48269
3.44414
3.40502
3.36553
3.32566
3.2856
3.24532
3.20503
3.16468
3.12447
3.08433
3.04447
3.00481
2.96556
2.92663
2.88824
2.85027
2.81297
2.7762
2.74026
2.70502
2.6708
2.63754
2.6056
2.57503
2.54619
2.5194
2.49352
2.47065
2.44871
2.43879
6.10912
5.73501
5.39178
5.06226
4.74325
4.43606
4.14441
3.87035
3.61404
3.37759
3.15868
2.95924
2.77584
2.60992
2.45843
2.3217
2.19925
2.08862
1.99994
1.9206
1.92095
1.93571
1.98672
2.12241
2.42308
3.05835
4.12617
6.09305
6.98991
6.96359
6.82369
6.50588
6.08547
5.7171
5.41009
5.149
4.91997
4.71326
4.52459
4.35191
4.19503
4.0538
3.92867
3.82013
3.72889
3.65562
3.60199
3.56409
3.53598
3.52444
3.52796
3.5404
3.56803
3.61106
3.65342
3.68928
3.71459
3.72824
3.72863
3.72658
3.71986
3.70498
3.67936
3.64984
3.61852
3.586
3.55244
3.51795
3.48264
3.44649
3.40961
3.37202
3.33392
3.29533
3.2565
3.21739
3.17822
3.13895
3.09979
3.06068
3.02184
2.98319
2.94497
2.90708
2.86977
2.83292
2.79683
2.76137
2.72689
2.69329
2.661
2.63001
2.60075
2.57349
2.54789
2.5237
2.50167
2.48367
2.46781
2.4668
6.17989
5.79942
5.45916
5.13945
4.8322
4.53679
4.25356
3.98655
3.73491
3.50129
3.28367
3.08366
2.89914
2.73052
2.57647
2.43656
2.31121
2.20181
2.11154
2.06686
2.07419
2.10814
2.20341
2.42032
2.87072
3.53624
4.12709
5.03432
6.22499
6.72625
6.70361
6.58914
6.32541
5.95643
5.61519
5.32884
5.08341
4.86533
4.66686
4.48478
4.31755
4.1646
4.02579
3.90154
3.79224
3.69843
3.62085
3.56011
3.51679
3.48103
3.45745
3.4581
3.46386
3.47941
3.51168
3.5512
3.58909
3.61819
3.63575
3.64101
3.63981
3.63501
3.62348
3.60022
3.57185
3.5406
3.50826
3.47518
3.44155
3.40721
3.37214
3.33626
3.29975
3.26264
3.22518
3.18737
3.14946
3.11139
3.07343
3.03549
2.99784
2.96038
2.92338
2.88676
2.85078
2.81537
2.78085
2.74715
2.7147
2.68347
2.65402
2.62644
2.60122
2.57699
2.55483
2.53572
2.52005
2.50984
2.50726
2.50953
6.30183
5.88646
5.53147
5.21466
4.91625
4.63007
4.35611
4.09518
3.84858
3.61785
3.40222
3.20238
3.01746
2.84737
2.69178
2.55072
2.426
2.32169
2.24986
2.25244
2.27639
2.35397
2.54203
2.93858
3.5076
3.89585
4.14525
4.52786
5.1691
5.99581
6.44185
6.44252
6.37913
6.20953
5.87228
5.55075
5.27259
5.02909
4.8126
4.61772
4.44008
4.27715
4.12771
3.99155
3.86856
3.75895
3.66309
3.58171
3.51518
3.46616
3.42314
3.39353
3.38299
3.38534
3.39426
3.41465
3.45046
3.48626
3.51745
3.5393
3.55054
3.55015
3.54718
3.53879
3.52093
3.49336
3.46239
3.43028
3.39784
3.36497
3.33158
3.29747
3.26275
3.22735
3.19152
3.15522
3.11876
3.08209
3.04551
3.00894
2.97269
2.93665
2.90115
2.8661
2.83184
2.7983
2.76593
2.73471
2.70522
2.67753
2.65237
2.62892
2.60679
2.58789
2.57168
2.56127
2.55642
2.55797
2.56254
2.57593
6.34491
5.97711
5.61139
5.29103
4.99754
4.71891
4.45198
4.19798
3.95595
3.72848
3.51502
3.3161
3.13149
2.96113
2.80585
2.66633
2.54976
2.45792
2.45172
2.47089
2.53967
2.71991
3.09856
3.67416
4.01428
4.14827
4.2163
4.35734
4.60416
5.04012
5.68492
6.14735
6.25083
6.21055
6.07989
5.81007
5.50489
5.22326
4.97634
4.75972
4.56671
4.39177
4.23207
4.08584
3.95205
3.83018
3.72036
3.6229
3.53839
3.46727
3.41172
3.3642
3.32821
3.30618
3.30654
3.31064
3.32248
3.34753
3.38135
3.41446
3.44002
3.45581
3.45874
3.45717
3.45177
3.43893
3.41336
3.38398
3.35279
3.32083
3.28855
3.25591
3.22294
3.1894
3.15541
3.12089
3.08614
3.05112
3.01618
2.98126
2.94669
2.91241
2.8788
2.84578
2.8138
2.7829
2.75358
2.72611
2.70102
2.67871
2.65703
2.63853
2.62244
2.61215
2.60643
2.60769
2.61188
2.62245
2.64118
2.67915
6.32416
6.10153
5.71455
5.37621
5.07905
4.80447
4.54349
4.29478
4.05823
3.83391
3.62295
3.42558
3.24223
3.07352
2.92118
2.7912
2.6889
2.66511
2.68246
2.74803
2.92072
3.28646
3.90674
4.2546
4.34347
4.33628
4.31371
4.3222
4.38042
4.53658
4.86498
5.4267
5.90407
6.07425
6.04839
5.94982
5.73438
5.45208
5.17153
4.92446
4.70679
4.51357
4.34052
4.18347
4.03963
3.9075
3.78656
3.67668
3.57802
3.49101
3.41623
3.35536
3.30379
3.26133
3.23313
3.22414
3.22577
3.23247
3.24816
3.2787
3.3097
3.33752
3.35671
3.3659
3.36521
3.36167
3.35241
3.33304
3.30584
3.27529
3.2439
3.21233
3.18079
3.14894
3.11686
3.08433
3.05161
3.01861
2.9857
2.95281
2.92038
2.88836
2.85721
2.82699
2.7982
2.77123
2.74644
2.72488
2.70454
2.68663
2.67142
2.66122
2.65608
2.6575
2.662
2.67297
2.69298
2.72408
2.75239
2.80933
6.26341
6.12838
5.83277
5.47469
5.1654
4.88955
4.63236
4.38807
4.15555
3.93518
3.72703
3.53209
3.35168
3.18749
3.04598
2.93347
2.89769
2.91404
2.97934
3.1544
3.53106
4.18377
4.54868
4.60803
4.58644
4.52086
4.38578
4.3039
4.31185
4.35757
4.48078
4.74346
5.21115
5.65379
5.87429
5.86317
5.79994
5.64602
5.38618
5.12179
4.87504
4.65549
4.46194
4.28935
4.13288
3.98988
3.85873
3.73841
3.6284
3.52877
3.43989
3.36226
3.29722
3.24188
3.19481
3.16111
3.14201
3.14203
3.1449
3.15405
3.17396
3.20373
3.23286
3.25542
3.27032
3.27203
3.27038
3.26455
3.25136
3.22606
3.19766
3.16759
3.13721
3.1067
3.07636
3.04589
3.01548
2.98491
2.95451
2.92426
2.89459
2.86563
2.83787
2.81172
2.78769
2.76676
2.74855
2.73152
2.71771
2.70786
2.70411
2.70591
2.71121
2.72356
2.7462
2.77626
2.81027
2.85201
2.88218
2.93628
6.1643
6.10026
5.92436
5.5769
5.25644
4.97548
4.71905
4.47822
4.24957
4.03288
3.82858
3.63789
3.46338
3.31175
3.19055
3.14658
3.16299
3.23092
3.4151
3.816
4.5094
4.88803
4.92772
4.89861
4.81055
4.63047
4.46061
4.33528
4.2926
4.30049
4.33673
4.43174
4.6341
4.99063
5.39005
5.64141
5.66194
5.62816
5.52798
5.31688
5.07003
4.82367
4.6049
4.41023
4.23613
4.07927
3.93675
3.80608
3.68594
3.57575
3.47554
3.38542
3.30576
3.23736
3.17904
3.1284
3.08868
3.06489
3.05531
3.05647
3.06168
3.07432
3.09971
3.12728
3.15291
3.17089
3.1792
3.17848
3.17494
3.16578
3.14688
3.12116
3.09278
3.06372
3.03498
3.00653
2.97854
2.95079
2.92347
2.89664
2.87072
2.84605
2.82342
2.80335
2.78723
2.7719
2.76
2.75096
2.74932
2.75155
2.75792
2.7725
2.79813
2.82996
2.86669
2.9064
2.94319
2.97758
2.99756
3.02616
5.9986
6.00325
5.91867
5.70741
5.36744
5.06868
4.80673
4.56677
4.3416
4.12912
3.93005
3.74683
3.58695
3.45859
3.41031
3.42773
3.50083
3.69749
4.12577
4.85695
5.25801
5.28095
5.2444
5.13661
4.91986
4.72072
4.55813
4.42869
4.33599
4.28751
4.28992
4.3082
4.37001
4.5086
4.77385
5.11583
5.37138
5.46373
5.44663
5.37961
5.22825
5.0021
4.77315
4.55449
4.35734
4.18154
4.02392
3.88078
3.74969
3.62954
3.51942
3.41902
3.32812
3.24704
3.17611
3.11534
3.06129
3.01743
2.98832
2.97054
2.96943
2.97174
2.97933
2.99603
3.02289
3.04996
3.07105
3.08439
3.08681
3.08531
3.08002
3.06804
3.0456
3.02049
2.9941
2.96786
2.94238
2.91775
2.89417
2.87183
2.8513
2.83295
2.81866
2.80658
2.79684
2.78937
2.79009
2.79339
2.80164
2.81898
2.84786
2.88254
2.9218
2.96292
3.00075
3.03315
3.05427
3.06756
3.06799
3.0687
5.57466
5.89965
5.87103
5.74848
5.48394
5.17031
4.89784
4.65616
4.43389
4.22687
4.03615
3.86928
3.73549
3.68786
3.70758
3.78879
4.00513
4.47418
5.25695
5.66271
5.66139
5.61547
5.48712
5.24268
5.0196
4.83533
4.68232
4.5495
4.43443
4.34031
4.27821
4.25718
4.26187
4.29227
4.37763
4.55487
4.83031
5.08536
5.2452
5.23959
5.20368
5.11407
4.93248
4.71545
4.49835
4.30191
4.12517
3.96583
3.82165
3.6905
3.57043
3.46043
3.35992
3.26861
3.18644
3.11352
3.05052
2.9936
2.94668
2.91213
2.89036
2.88157
2.88259
2.88722
2.8984
2.92102
2.94747
2.97158
2.98833
2.99809
2.99782
2.9955
2.98881
2.97454
2.9536
2.93146
2.90925
2.88839
2.86945
2.85343
2.84061
2.83309
2.8259
2.82235
2.82382
2.82889
2.84091
2.86372
2.89464
2.93246
2.97495
3.01842
3.05744
3.08964
3.11064
3.11844
3.11635
3.10961
3.09423
3.07385
4.61991
5.66317
5.77748
5.7258
5.58029
5.28495
4.99913
4.75145
4.53081
4.33111
4.15799
4.02
3.97787
4.00122
4.09432
4.33785
4.86037
5.70933
6.09773
6.08938
6.02399
5.85642
5.58809
5.34375
5.14196
4.97197
4.82142
4.68212
4.55145
4.43178
4.32818
4.24938
4.21037
4.19218
4.20273
4.2485
4.35495
4.56421
4.80108
4.97967
5.03825
5.02333
4.96822
4.8441
4.64422
4.44202
4.24536
4.0663
3.90604
3.76152
3.62994
3.5097
3.39991
3.29935
3.20749
3.12414
3.04956
2.98457
2.92591
2.87624
2.83786
2.81193
2.79608
2.7962
2.79862
2.80588
2.82189
2.84819
2.87422
2.89578
2.90966
2.91725
2.91695
2.91477
2.90891
2.89662
2.88093
2.86638
2.85475
2.84849
2.84548
2.84631
2.84974
2.85784
2.87393
2.90244
2.9373
2.97861
3.02454
3.07095
3.11216
3.1444
3.16619
3.17033
3.1677
3.15968
3.14207
3.11321
3.08412
3.05617
2.95711
5.10157
5.65166
5.65292
5.58475
5.41502
5.12256
4.86138
4.63878
4.45405
4.31025
4.27805
4.30689
4.41715
4.69937
5.29932
6.16241
6.54453
6.53201
6.45041
6.24992
5.95222
5.68726
5.4697
5.28587
5.12128
4.96696
4.81837
4.67476
4.5379
4.41035
4.29799
4.20593
4.15232
4.1068
4.10679
4.12488
4.18342
4.31036
4.51727
4.69813
4.8213
4.817
4.78949
4.7217
4.57787
4.37773
4.18424
4.00663
3.8449
3.69911
3.56734
3.44745
3.33753
3.23653
3.14424
3.06034
2.98491
2.91833
2.85854
2.80686
2.76572
2.7352
2.71616
2.71095
2.71239
2.71774
2.73012
2.75492
2.78217
2.80737
2.82785
2.84207
2.85137
2.85623
2.85622
2.85572
2.85538
2.85649
2.85954
2.86634
2.88028
2.90192
2.93271
2.97122
3.01846
3.06929
3.11899
3.16299
3.19604
3.21877
3.22062
3.21764
3.20862
3.18904
3.15737
3.12512
3.09293
3.06246
3.03779
2.17988
3.83645
5.29681
5.56682