/*--------------------------------*- C++ -*----------------------------------*\
  =========                 |
  \\      /  F ield         | OpenFOAM: The Open Source CFD Toolbox
   \\    /   O peration     | Website:  https://openfoam.org
    \\  /    A nd           | Version:  13
     \\/     M anipulation  |
\*---------------------------------------------------------------------------*/
FoamFile
{
    format      ascii;
    class       surfaceScalarField;
    location    "4";
    object      phi;
}
// * * * * * * * * * * * * * * * * * * * * * * * * * * * * * * * * * * * * * //

dimensions      [1 0 -1 0 0 0 0];

internalField   nonuniform List<scalar> 
10325
(
0.00840003
1.97407e-11
0.00840001
8.62656e-10
0.0084001
9.83436e-10
0.00839986
8.61096e-09
0.00840044
7.3241e-09
0.00839899
5.66969e-08
0.00840237
3.18842e-08
0.00839462
3.4633e-07
0.00840978
2.58304e-07
0.00838156
1.76368e-06
0.00841423
2.85075e-06
0.00836762
1.01911e-05
0.0083646
2.99711e-05
0.00823905
0.000112571
0.00766927
0.000572006
0.00700308
0.000666802
0.00637138
0.000631457
0.00571994
0.000651067
0.0050367
0.000682841
0.00431361
0.00072288
0.00354132
0.00077224
0.0027209
0.000820038
0.00185918
0.00086309
0.000953108
0.000906687
0.000952147
0.00840003
2.73392e-10
0.00840003
7.84286e-10
0.00840005
5.00477e-09
0.00839998
7.57218e-09
0.00840004
3.70518e-08
0.00839994
4.92348e-08
0.00839961
2.29482e-07
0.00840002
3.21916e-07
0.00839808
1.29698e-06
0.00839828
2.38579e-06
0.00839422
7.41155e-06
0.00838293
1.92537e-05
0.00835247
6.19155e-05
0.00823969
0.000225425
0.00768046
0.00113106
0.00699866
0.00134897
0.00637515
0.00125467
0.00573331
0.00129254
0.00505472
0.00136105
0.00432439
0.00145301
0.00354328
0.00155331
0.00271463
0.00164831
0.00184119
0.00173791
0.000928351
0.00182015
0.00187955
0.00840003
1.79615e-10
0.00840001
1.93536e-09
0.0084001
4.21442e-09
0.00839986
1.89353e-08
0.00840044
3.2264e-08
0.00839907
1.18977e-07
0.00840216
2.27252e-07
0.00839522
6.77584e-07
0.00840819
1.55643e-06
0.00838442
3.96992e-06
0.00841106
1.04601e-05
0.00837032
2.87096e-05
0.00836476
9.10005e-05
0.00825111
0.000327946
0.00775687
0.00162694
0.00706439
0.00204205
0.00643856
0.00188029
0.00580107
0.00192969
0.00512696
0.00203479
0.00439446
0.00218523
0.00360769
0.00234014
0.00276805
0.00248761
0.00187906
0.00262816
0.000945952
0.00275394
0.0028248
0.00840003
4.14869e-10
0.00840005
1.60838e-09
0.00839997
8.05605e-09
0.00840019
1.57535e-08
0.00839966
5.88054e-08
0.00840091
1.07986e-07
0.00839805
3.64637e-07
0.00840419
7.05408e-07
0.00839124
2.16523e-06
0.00841155
4.769e-06
0.00837944
1.34944e-05
0.00840266
3.61025e-05
0.00835582
0.000113923
0.00828745
0.000408104
0.00791468
0.00199693
0.00721599
0.00274082
0.00657653
0.00251955
0.00593695
0.00256895
0.00526366
0.00270771
0.00453167
0.00291702
0.00373707
0.00313481
0.00288486
0.00333934
0.00197092
0.00354374
0.000999506
0.00372586
0.00382312
0.00840003
3.40588e-10
0.00840003
2.17979e-09
0.00840003
7.68088e-09
0.00840003
2.11656e-08
0.00840003
5.67168e-08
0.00839985
1.44318e-07
0.00840035
3.52749e-07
0.00839838
9.24721e-07
0.00840226
2.18928e-06
0.00839416
5.84312e-06
0.00840231
1.4631e-05
0.00838834
4.12735e-05
0.00838331
0.000126325
0.00833664
0.000449981
0.00818775
0.00214626
0.00748478
0.00344433
0.00680759
0.00319672
0.00615336
0.00322296
0.005477
0.00338375
0.00474206
0.0036519
0.00394103
0.00393596
0.00306763
0.00421247
0.00211713
0.00449568
0.00108497
0.00475867
0.00490699
0.00840003
2.74595e-10
0.00840002
2.46434e-09
0.00840007
6.68261e-09
0.00839994
2.41021e-08
0.00840027
5.06943e-08
0.00839939
1.59532e-07
0.00840164
3.22068e-07
0.00839648
9.91197e-07
0.00840782
2.04749e-06
0.00838729
6.00472e-06
0.0084172
1.40921e-05
0.00838582
4.04777e-05
0.00841743
0.000120551
0.00843261
0.00042082
0.00867271
0.0019084
0.00795702
0.00416076
0.00717708
0.00397671
0.0064859
0.00391393
0.00579172
0.0040778
0.00505297
0.00439038
0.00423443
0.00475451
0.00333419
0.00511246
0.00233585
0.00549525
0.00121968
0.00587564
0.00612619
0.00840003
3.77869e-10
0.00840002
1.91264e-09
0.00840007
7.81736e-09
0.00839996
1.86105e-08
0.00840019
5.79641e-08
0.00839974
1.23322e-07
0.00840055
3.68396e-07
0.00839921
7.51056e-07
0.00840167
2.21247e-06
0.00839818
4.78381e-06
0.00840644
1.33127e-05
0.00840283
3.40112e-05
0.00843061
0.000102135
0.00850639
0.000340683
0.00894205
0.00147272
0.00839669
0.00470622
0.00755128
0.00482189
0.00685059
0.00461442
0.00617045
0.00475751
0.00543624
0.00512482
0.00461333
0.00557712
0.00368746
0.00603818
0.0026413
0.0065425
0.00142465
0.0070934
0.00755039
0.00840003
3.07382e-10
0.00840002
1.9712e-09
0.00840008
6.6709e-09
0.00839993
1.92838e-08
0.00840032
4.95779e-08
0.00839939
1.27104e-07
0.0084017
3.12e-07
0.00839675
7.79777e-07
0.00840786
1.916e-06
0.00838781
4.78056e-06
0.00841926
1.21153e-05
0.00838581
3.21515e-05
0.00842406
9.3698e-05
0.00843852
0.000309776
0.00860984
0.00130556
0.00831501
0.00500007
0.00764621
0.00549032
0.00710052
0.00515986
0.00648526
0.00537256
0.00581267
0.00579696
0.00502894
0.00636122
0.00411874
0.00694756
0.00305137
0.00761114
0.00174128
0.00840439
0.00929128
0.00840003
3.27354e-10
0.00840002
1.89479e-09
0.00840007
6.8601e-09
0.00839994
1.86038e-08
0.00840028
5.06694e-08
0.00839945
1.23059e-07
0.00840147
3.1954e-07
0.00839705
7.58871e-07
0.00840682
1.96123e-06
0.00838854
4.69374e-06
0.00841655
1.22045e-05
0.00838352
3.18497e-05
0.0084138
9.2174e-05
0.00840547
0.000301592
0.00849971
0.00121594
0.00819817
0.00530045
0.00791706
0.00577127
0.00733224
0.00574454
0.00673676
0.00596781
0.00615642
0.00637679
0.00546523
0.00705255
0.0046426
0.0077697
0.00364854
0.00860557
0.00226509
0.00978924
0.0115561
0.00840003
2.50389e-10
0.00840002
2.28411e-09
0.00840005
5.95569e-09
0.00839998
2.20572e-08
0.00840015
4.49644e-08
0.00839967
1.41923e-07
0.0084009
2.91461e-07
0.0083978
8.57752e-07
0.00840496
1.8566e-06
0.00839039
5.12161e-06
0.00841349
1.21131e-05
0.0083838
3.30144e-05
0.00841039
9.25498e-05
0.00839118
0.000300502
0.00845683
0.00115985
0.00830662
0.00544832
0.00789705
0.00618069
0.00747136
0.00617016
0.00702462
0.0064143
0.00652018
0.00688076
0.00598065
0.00759201
0.00533938
0.00841088
0.00444826
0.00949682
0.00314401
0.0110945
0.0147
0.00840003
3.60692e-10
0.00840004
1.90428e-09
0.00840001
7.59567e-09
0.00840009
1.87669e-08
0.00839986
5.53778e-08
0.00840047
1.29048e-07
0.008399
3.39821e-07
0.00840256
8.19981e-07
0.00839475
2.03596e-06
0.00841019
5.16468e-06
0.00838389
1.26839e-05
0.00841632
3.38302e-05
0.00838196
9.40744e-05
0.00840468
0.000300914
0.00843609
0.00111774
0.00849836
0.00538699
0.00807624
0.00660309
0.0076518
0.00659457
0.00730938
0.00675658
0.00693558
0.00725424
0.00657367
0.0079536
0.00614426
0.00884002
0.00573075
0.00991025
0.00569946
0.0111263
0.0115044
0.00889525
0.00840003
3.37984e-10
0.00840002
2.02226e-09
0.00840006
7.24581e-09
0.00839998
1.96896e-08
0.00840017
5.42912e-08
0.00839975
1.30046e-07
0.00840072
3.46477e-07
0.00839868
8.02492e-07
0.00840262
2.13147e-06
0.00839526
4.99329e-06
0.00840718
1.32242e-05
0.00838961
3.32992e-05
0.00841007
9.39559e-05
0.00840458
0.000290981
0.00847641
0.00105249
0.00890975
0.00495139
0.00845185
0.00706115
0.00797673
0.00706998
0.00762669
0.00710622
0.00734014
0.00754065
0.00708186
0.00821171
0.00688493
0.00903686
0.00685002
0.00994499
0.00729853
0.0106775
0.0104763
0.00832717
0.00840003
2.72827e-10
0.00840003
2.01628e-09
0.00840005
6.12831e-09
0.00839998
1.97e-08
0.00840018
4.59092e-08
0.00839971
1.30742e-07
0.00840093
2.91849e-07
0.00839832
8.13013e-07
0.00840471
1.82816e-06
0.00839236
4.97183e-06
0.00841587
1.17549e-05
0.00838593
3.1603e-05
0.00843024
8.44958e-05
0.00843395
0.000258224
0.00860209
0.000899598
0.00965437
0.0038945
0.009077
0.00763844
0.00847573
0.00767117
0.00808323
0.00749908
0.00781509
0.00780835
0.00763906
0.00838754
0.00760779
0.00906756
0.00783453
0.00971845
0.00837948
0.0101329
0.009846
0.00900939
0.00840003
2.49009e-10
0.00840003
1.61044e-09
0.00840004
5.38303e-09
0.00840002
1.5711e-08
0.00840007
4.00417e-08
0.00840003
1.02991e-07
0.0084001
2.53999e-07
0.00840034
6.26809e-07
0.00839996
1.56445e-06
0.00840266
3.79649e-06
0.00840162
9.60417e-06
0.00841367
2.39363e-05
0.00843055
6.38875e-05
0.00850782
0.000183572
0.00880108
0.000603658
0.0102482
0.0024483
0.00976306
0.00812284
0.00930196
0.00813232
0.00869401
0.00810647
0.00837136
0.00813141
0.00824362
0.00851475
0.0082893
0.00902185
0.00854491
0.00946237
0.0090183
0.00965958
0.00934338
0.00952161
0.00840003
2.465e-10
0.00840003
1.25304e-09
0.00840003
5.09773e-09
0.00840004
1.22237e-08
0.0084
3.74132e-08
0.00840017
8.13759e-08
0.00839975
2.33206e-07
0.00840105
5.02328e-07
0.00839827
1.39715e-06
0.00840588
3.09482e-06
0.00839328
8.3449e-06
0.0084201
1.97089e-05
0.00840248
5.32952e-05
0.00846555
0.000147659
0.00857192
0.000476016
0.00919421
0.00183634
0.009901
0.00741346
0.00957314
0.00845987
0.00915341
0.008526
0.00887599
0.008409
0.00877899
0.00861113
0.00884989
0.00895133
0.00908396
0.0092279
0.00946792
0.00927562
0.00893578
0.00987521
0.00840003
1.78267e-10
0.00840003
1.22115e-09
0.00840004
3.97854e-09
0.00840002
1.19603e-08
0.00840007
2.94601e-08
0.00839994
7.9521e-08
0.00840036
1.83972e-07
0.00839935
4.9086e-07
0.00840226
1.12285e-06
0.00839625
2.98758e-06
0.00841077
6.93714e-06
0.00838907
1.83607e-05
0.00842785
4.59801e-05
0.00841358
0.000129431
0.00851278
0.000401783
0.00886757
0.00146827
0.00988089
0.0064017
0.00975367
0.00858736
0.00952506
0.00875458
0.00929159
0.00864265
0.00921866
0.00868387
0.00930045
0.00886892
0.00950645
0.00902246
0.00980739
0.00897395
0.00862053
0.0101238
0.00840003
1.71161e-10
0.00840003
1.02669e-09
0.00840004
3.6121e-09
0.00840001
1.00005e-08
0.00840009
2.69372e-08
0.00839995
6.54698e-08
0.00840032
1.72135e-07
0.00839965
3.99792e-07
0.00840132
1.06395e-06
0.00839855
2.43829e-06
0.00840508
6.54017e-06
0.00839764
1.54108e-05
0.00841712
4.1363e-05
0.00841879
0.000110029
0.00849963
0.000335703
0.00879135
0.00116899
0.010368
0.00482525
0.0102063
0.00874924
0.00996344
0.00899733
0.00969217
0.00891433
0.00961453
0.00876124
0.00967885
0.00880473
0.00984792
0.00885299
0.0100789
0.00874311
0.00838749
0.0103109
0.00840003
1.26438e-10
0.00840003
8.14344e-10
0.00840003
2.76733e-09
0.00840004
7.97066e-09
0.00840004
2.04875e-08
0.00840003
5.26128e-08
0.00840019
1.28125e-07
0.00839981
3.21865e-07
0.00840138
7.74733e-07
0.0083986
1.94e-06
0.00840814
4.68916e-06
0.00839637
1.17967e-05
0.00843302
2.93574e-05
0.00843575
7.75458e-05
0.00857785
0.000220505
0.00901476
0.000714761
0.0110703
0.00277485
0.0109107
0.00890741
0.0106612
0.00924673
0.010303
0.00927263
0.0100767
0.00898738
0.0100514
0.00882982
0.0101559
0.0087489
0.0103187
0.00858027
0.00822607
0.0104801
0.00840003
9.43471e-11
0.00840003
6.77391e-10
0.00840003
2.12478e-09
0.00840003
6.5937e-09
0.00840004
1.58217e-08
0.00840002
4.31034e-08
0.00840016
9.95165e-08
0.00839985
2.61145e-07
0.00840104
6.07275e-07
0.00839882
1.55706e-06
0.00840604
3.69959e-06
0.00839566
9.32378e-06
0.00842365
2.30077e-05
0.00841351
5.96771e-05
0.00849722
0.000164866
0.00867182
0.00051728
0.00952584
0.00193237
0.0109669
0.00746269
0.0109078
0.00930552
0.0106983
0.00948204
0.0104645
0.00922181
0.0103912
0.00890275
0.0104345
0.00870519
0.0105366
0.00847845
0.00812258
0.0106401
0.00840003
8.34632e-11
0.00840003
5.0827e-10
0.00840003
1.79704e-09
0.00840004
4.96325e-09
0.00840001
1.33242e-08
0.0084001
3.30274e-08
0.00839995
8.34947e-08
0.00840041
2.04096e-07
0.00839964
5.07224e-07
0.00840183
1.24029e-06
0.00839861
3.08628e-06
0.00840729
7.62062e-06
0.00839966
1.91203e-05
0.0084265
4.8953e-05
0.00843937
0.000132962
0.00856946
0.000402329
0.00907778
0.00141626
0.0110068
0.00553397
0.0111484
0.00916419
0.0110612
0.00956949
0.010835
0.00944802
0.0107082
0.00903014
0.0106946
0.00871855
0.0107402
0.00843263
0.0080662
0.0107964
0.00840003
6.22427e-11
0.00840003
3.87664e-10
0.00840003
1.35362e-09
0.00840004
3.79259e-09
0.00840002
9.98571e-09
0.00840008
2.50687e-08
0.0084
6.21764e-08
0.00840023
1.53226e-07
0.00840008
3.74186e-07
0.00840065
9.24589e-07
0.00840128
2.23959e-06
0.00840293
5.57511e-06
0.00840905
1.36428e-05
0.00842335
3.45044e-05
0.00846424
8.99854e-05
0.00861319
0.000256404
0.00919945
0.000828435
0.0116339
0.00309772
0.0117202
0.00907766
0.0116256
0.00966444
0.0113704
0.00970354
0.0110893
0.00931174
0.0109807
0.00882713
0.0109624
0.00845074
0.00806087
0.0109675
0.00840003
4.44983e-11
0.00840003
2.99603e-10
0.00840003
9.95732e-10
0.00840004
2.91014e-09
0.00840003
7.39517e-09
0.00840007
1.9048e-08
0.00840002
4.60677e-08
0.00840017
1.16499e-07
0.0084001
2.76079e-07
0.00840042
6.99732e-07
0.00840109
1.65138e-06
0.00840147
4.18325e-06
0.00840735
1.00239e-05
0.00841253
2.54498e-05
0.00844233
6.44156e-05
0.00851722
0.000177925
0.00880253
0.000547856
0.00989346
0.00200255
0.0117319
0.00723804
0.01184
0.00955666
0.0116915
0.00985241
0.0114074
0.00959584
0.0112766
0.00895828
0.0111983
0.00852878
0.00809993
0.0111595
0.00840003
3.50828e-11
0.00840003
2.18876e-10
0.00840003
7.64077e-10
0.00840004
2.14172e-09
0.00840003
5.6436e-09
0.00840006
1.41861e-08
0.0084
3.51641e-08
0.0084002
8.69982e-08
0.00839989
2.11725e-07
0.00840095
5.26669e-07
0.00839943
1.26949e-06
0.00840444
3.18407e-06
0.00839892
7.69237e-06
0.00841843
1.95022e-05
0.0084137
4.88222e-05
0.00848411
0.000131548
0.00862496
0.000386349
0.00930601
0.00133207
0.0117104
0.0048291
0.011999
0.00926796
0.0120694
0.00978207
0.0119182
0.00974702
0.0115844
0.00929185
0.0114506
0.00866283
0.00818688
0.0113631
0.00840003
2.65754e-11
0.00840003
1.5259e-10
0.00840003
5.68811e-10
0.00840003
1.48888e-09
0.00840003
4.18904e-09
0.00840005
9.83488e-09
0.00840002
2.59049e-08
0.00840014
6.02014e-08
0.00839995
1.53939e-07
0.00840079
3.64011e-07
0.00839952
9.08162e-07
0.00840448
2.19334e-06
0.00839828
5.37166e-06
0.00842147
1.33281e-05
0.00840936
3.28709e-05
0.00849186
8.54199e-05
0.00860623
0.000236301
0.00921625
0.000743598
0.0113876
0.00265072
0.0124173
0.00823719
0.0124111
0.00978783
0.0122285
0.00992943
0.0118874
0.0096328
0.0117261
0.0088241
0.00832953
0.0115829
0.00840003
1.82137e-11
0.00840003
1.14397e-10
0.00840003
3.91333e-10
0.00840003
1.11577e-09
0.00840004
2.88397e-09
0.00840003
7.29483e-09
0.00840007
1.80653e-08
0.00840001
4.39936e-08
0.00840023
1.09552e-07
0.00839997
2.6137e-07
0.00840101
6.57715e-07
0.00840005
1.55715e-06
0.00840429
3.95275e-06
0.00840315
9.3843e-06
0.00842015
2.40378e-05
0.00843359
5.96448e-05
0.00852239
0.000162229
0.00877119
0.000483061
0.00972621
0.00170082
0.0121787
0.00578135
0.0125143
0.00945192
0.0125881
0.00985551
0.0124451
0.00977578
0.0120517
0.00921789
0.00855222
0.0118287
0.00840003
1.17489e-11
0.00840003
8.04479e-11
0.00840003
2.63366e-10
0.00840003
7.84288e-10
0.00840003
1.94347e-09
0.00840004
5.14301e-09
0.00840005
1.19627e-08
0.00840004
3.12879e-08
0.00840015
7.13143e-08
0.0084
1.86086e-07
0.00840086
4.23387e-07
0.00839969
1.09705e-06
0.00840529
2.52832e-06
0.00839895
6.47044e-06
0.00842687
1.53025e-05
0.00841482
3.91648e-05
0.00852025
9.94662e-05
0.00868105
0.000280188
0.00951655
0.00089095
0.0122343
0.00305386
0.0129434
0.00874174
0.0129573
0.00984145
0.0127383
0.00999466
0.0123961
0.0095596
0.00880819
0.0121413
0.00840003
8.56905e-12
0.00840003
5.34239e-11
0.00840003
1.85979e-10
0.00840003
5.21096e-10
0.00840003
1.37132e-09
0.00840003
3.40418e-09
0.00840004
8.51644e-09
0.00840005
2.05512e-08
0.00840005
5.09427e-08
0.00840019
1.22026e-07
0.00840003
3.02776e-07
0.00840121
7.22053e-07
0.0083998
1.79785e-06
0.00840727
4.29803e-06
0.00840044
1.07288e-05
0.00843431
2.61787e-05
0.00843674
6.67814e-05
0.00857236
0.000178481
0.00889587
0.000537185
0.0100962
0.00186961
0.01268
0.00615312
0.0129846
0.00953647
0.0131615
0.00981758
0.0128911
0.00983009
0.00918002
0.0125192
0.00840003
5.69783e-12
0.00840003
3.65317e-11
0.00840003
1.23566e-10
0.00840003
3.56208e-10
0.00840003
9.14253e-10
0.00840003
2.31016e-09
0.00840004
5.70407e-09
0.00840005
1.38077e-08
0.00840004
3.42113e-08
0.00840016
8.14552e-08
0.00840003
2.02842e-07
0.00840092
4.80008e-07
0.00839982
1.19804e-06
0.00840561
2.83963e-06
0.00839961
7.10484e-06
0.00842856
1.70464e-05
0.00841869
4.32521e-05
0.00853035
0.000110478
0.00871282
0.00031143
0.00961075
0.000998514
0.012414
0.00333975
0.0132859
0.00866407
0.0133622
0.00974132
0.013222
0.00997051
0.00955973
0.012842
0.00840003
3.97458e-12
0.00840003
2.35815e-11
0.00840003
8.57258e-11
0.00840003
2.30075e-10
0.00840003
6.27686e-10
0.00840004
1.51178e-09
0.00840003
3.85815e-09
0.00840005
9.19005e-09
0.00840003
2.27495e-08
0.00840014
5.49563e-08
0.00840002
1.33115e-07
0.00840063
3.27157e-07
0.00840005
7.78183e-07
0.00840321
1.94567e-06
0.00840097
4.58177e-06
0.00841542
1.16027e-05
0.00841593
2.77363e-05
0.00847577
7.16406e-05
0.00857288
0.000189124
0.00902343
0.000569011
0.010417
0.00193413
0.0130078
0.0060748
0.0133333
0.00941582
0.0135667
0.00973749
0.0097656
0.013361
0.00840003
2.55687e-12
0.00840003
1.5686e-11
0.00840003
5.4923e-11
0.00840003
1.52628e-10
0.00840003
4.04408e-10
0.00840003
9.89309e-10
0.00840004
2.508e-09
0.00840003
5.91776e-09
0.00840005
1.49651e-08
0.00840006
3.47681e-08
0.0084001
8.82907e-08
0.0084003
2.04119e-07
0.0084002
5.17562e-07
0.00840201
1.2029e-06
0.00840063
3.02943e-06
0.00841231
7.14179e-06
0.00840692
1.78989e-05
0.00846065
4.37359e-05
0.00850284
0.000113322
0.00879093
0.000314137
0.00970051
0.00100173
0.0125502
0.00322831
0.0135942
0.00837276
0.0136614
0.00967075
0.00978324
0.0136441
0.00840003
1.53152e-12
0.00840003
1.04182e-11
0.00840003
3.41938e-11
0.00840003
1.01675e-10
0.00840003
2.51742e-10
0.00840003
6.63277e-10
0.00840004
1.5476e-09
0.00840003
3.98708e-09
0.00840005
9.20297e-09
0.00840003
2.34338e-08
0.00840015
5.44555e-08
0.00840003
1.36864e-07
0.00840066
3.22964e-07
0.00840015
7.96846e-07
0.00840325
1.91991e-06
0.00840172
4.66432e-06
0.00841522
1.14798e-05
0.00841955
2.79392e-05
0.00847786
7.09814e-05
0.00858541
0.00018689
0.00904842
0.000555077
0.0104143
0.00185204
0.0131962
0.00559286
0.0136944
0.00917235
0.00961259
0.0138652
0.00840003
1.05362e-12
0.00840003
6.29764e-12
0.00840003
2.25606e-11
0.00840003
6.13523e-11
0.00840003
1.65588e-10
0.00840003
3.97721e-10
0.00840003
1.01965e-09
0.00840004
2.37329e-09
0.00840004
6.01622e-09
0.00840005
1.39475e-08
0.00840005
3.50821e-08
0.00840018
8.18363e-08
0.00840008
2.03208e-07
0.008401
4.80991e-07
0.00840023
1.1743e-06
0.00840581
2.8284e-06
0.00840225
6.81836e-06
0.00843047
1.67473e-05
0.00843146
4.08124e-05
0.00855328
0.000104504
0.00878323
0.000284733
0.00977632
0.000884202
0.0126079
0.00275425
0.0139093
0.00786887
0.00956286
0.0139589
0.00840003
6.27276e-13
0.00840003
4.05875e-12
0.00840003
1.37005e-11
0.00840003
3.95556e-11
0.00840003
1.00543e-10
0.00840003
2.55948e-10
0.00840003
6.19592e-10
0.00840003
1.52388e-09
0.00840004
3.67244e-09
0.00840003
8.90508e-09
0.00840007
2.15435e-08
0.00840005
5.17383e-08
0.00840025
1.26236e-07
0.00840019
3.00655e-07
0.008401
7.39009e-07
0.0084016
1.74941e-06
0.00840415
4.33221e-06
0.00841111
1.02972e-05
0.00842414
2.56887e-05
0.00846855
6.32295e-05
0.00858338
0.000166618
0.00899173
0.000480311
0.01016
0.00158305
0.0132338
0.00479194
0.00878569
0.0140111
0.00840003
3.6873e-13
0.00840003
2.53448e-12
0.00840003
8.26834e-12
0.00840003
2.46487e-11
0.00840003
6.09018e-11
0.00840003
1.59403e-10
0.00840003
3.74152e-10
0.00840003
9.47996e-10
0.00840004
2.21406e-09
0.00840003
5.50492e-09
0.00840006
1.30128e-08
0.00840004
3.17645e-08
0.00840019
7.63339e-08
0.00840009
1.82802e-07
0.00840087
4.4711e-07
0.0084006
1.05388e-06
0.00840402
2.61831e-06
0.00840524
6.10915e-06
0.00842011
1.53933e-05
0.00843927
3.65451e-05
0.00852253
9.43026e-05
0.00874069
0.000250065
0.00957116
0.000759382
0.0119778
0.00238454
0.00679672
0.0139637
0.00840003
2.49508e-13
0.00840003
1.46597e-12
0.00840003
5.35233e-12
0.00840003
1.43043e-11
0.00840003
3.90597e-11
0.00840003
9.31556e-11
0.00840003
2.37856e-10
0.00840003
5.58545e-10
0.00840003
1.38555e-09
0.00840004
3.294e-09
0.00840004
7.99123e-09
0.00840006
1.93361e-08
0.00840008
4.59135e-08
0.00840014
1.13352e-07
0.00840041
2.64231e-07
0.0084004
6.61939e-07
0.00840269
1.52719e-06
0.00840165
3.85999e-06
0.00841629
8.92331e-06
0.00841278
2.26733e-05
0.00848275
5.4304e-05
0.00855003
0.00014255
0.00895425
0.000396403
0.010042
0.00126831
0.00379354
0.0130504
0.00840003
1.36863e-13
0.00840003
9.40891e-13
0.00840003
3.05773e-12
0.00840003
9.14452e-12
0.00840003
2.24519e-11
0.00840003
5.90334e-11
0.00840003
1.37338e-10
0.00840003
3.50192e-10
0.00840003
8.10537e-10
0.00840003
2.03052e-09
0.00840004
4.74312e-09
0.00840004
1.17032e-08
0.00840009
2.77529e-08
0.00840007
6.72237e-08
0.00840031
1.62341e-07
0.00840032
3.86354e-07
0.00840129
9.49967e-07
0.00840239
2.22356e-06
0.00840607
5.56599e-06
0.00841533
1.29945e-05
0.00843741
3.29033e-05
0.00849735
8.00631e-05
0.0086837
0.000214301
0.00932421
0.000625331
0.00197017
0.0111446
0.00840003
8.96649e-14
0.00840003
5.26058e-13
0.00840003
1.92144e-12
0.00840003
5.12682e-12
0.00840003
1.40141e-11
0.00840003
3.31907e-11
0.00840003
8.52329e-11
0.00840003
1.97337e-10
0.00840003
4.95745e-10
0.00840004
1.15355e-09
0.00840003
2.84879e-09
0.00840005
6.71261e-09
0.00840004
1.62935e-08
0.00840011
3.90578e-08
0.0084001
9.29634e-08
0.00840041
2.26654e-07
0.00840057
5.30584e-07
0.00840175
1.31349e-06
0.00840408
3.03828e-06
0.00840884
7.5971e-06
0.00842575
1.76897e-05
0.00845798
4.46548e-05
0.00856567
0.000109896
0.00888538
0.000301482
0.000911432
0.0099466
0.00840003
4.88713e-14
0.00840003
3.21761e-13
0.00840003
1.08131e-12
0.00840003
3.12964e-12
0.00840003
7.90856e-12
0.00840003
2.01966e-11
0.00840003
4.81581e-11
0.00840003
1.19383e-10
0.00840003
2.81796e-10
0.00840003
6.89864e-10
0.00840004
1.6324e-09
0.00840004
3.96692e-09
0.00840005
9.42884e-09
0.00840005
2.2726e-08
0.00840011
5.4539e-08
0.00840019
1.3009e-07
0.00840034
3.14497e-07
0.00840123
7.4586e-07
0.00840126
1.81379e-06
0.0084078
4.2928e-06
0.00840715
1.04912e-05
0.00844326
2.51522e-05
0.0084618
6.26538e-05
0.00864254
0.000159863
0.000453529
0.00905856
0.00840003
2.9158e-14
0.00840003
1.85296e-13
0.00840003
6.31935e-13
0.00840003
1.80249e-12
0.00840003
4.6213e-12
0.00840003
1.15558e-11
0.00840003
2.82957e-11
0.00840003
6.78738e-11
0.00840003
1.65631e-10
0.00840003
3.91013e-10
0.00840003
9.59968e-10
0.00840004
2.23897e-09
0.00840004
5.53725e-09
0.00840005
1.28446e-08
0.00840006
3.18174e-08
0.00840016
7.38233e-08
0.00840015
1.82271e-07
0.00840088
4.26101e-07
0.00840057
1.04138e-06
0.00840515
2.46664e-06
0.00840343
5.97382e-06
0.00842783
1.4386e-05
0.00843049
3.49917e-05
0.00853995
8.7223e-05
0.000228809
0.00872361
0.00840003
1.59941e-14
0.00840003
1.06755e-13
0.00840003
3.56496e-13
0.00840003
1.03709e-12
0.00840003
2.60262e-12
0.00840003
6.66926e-12
0.00840003
1.57753e-11
0.00840003
3.92829e-11
0.00840003
9.18061e-11
0.00840003
2.26204e-10
0.00840003
5.29404e-10
0.00840003
1.2891e-09
0.00840004
3.05313e-09
0.00840004
7.33681e-09
0.00840007
1.75357e-08
0.00840006
4.17311e-08
0.00840024
1.00684e-07
0.00840023
2.37334e-07
0.00840104
5.76513e-07
0.00840163
1.35046e-06
0.00840473
3.30366e-06
0.00841114
7.72463e-06
0.00842609
1.90267e-05
0.00846962
4.55161e-05
0.000115498
0.00858117
0.00840003
9.44486e-15
0.00840003
5.90082e-14
0.00840003
2.06691e-13
0.00840003
5.73985e-13
0.00840003
1.50528e-12
0.00840003
3.70215e-12
0.00840003
9.07708e-12
0.00840003
2.19317e-11
0.00840003
5.22593e-11
0.00840003
1.27279e-10
0.00840003
2.97514e-10
0.00840003
7.33361e-10
0.00840004
1.69379e-09
0.00840004
4.1931e-09
0.00840005
9.68176e-09
0.00840005
2.38515e-08
0.00840015
5.54747e-08
0.00840011
1.35235e-07
0.00840072
3.18356e-07
0.00840052
7.6523e-07
0.00840384
1.83044e-06
0.0084033
4.34101e-06
0.00841975
1.0562e-05
0.0084255
2.50556e-05
6.25034e-05
0.0085019
0.00840003
5.35067e-15
0.00840003
3.2694e-14
0.00840003
1.16334e-13
0.00840003
3.17261e-13
0.00840003
8.47421e-13
0.00840003
2.03808e-12
0.00840003
5.12172e-12
0.00840003
1.19804e-11
0.00840003
2.95802e-11
0.00840003
6.88955e-11
0.00840003
1.68862e-10
0.00840003
3.95365e-10
0.00840003
9.57282e-10
0.00840004
2.27021e-09
0.00840004
5.42204e-09
0.00840006
1.30356e-08
0.00840006
3.06921e-08
0.00840016
7.46526e-08
0.00840024
1.74129e-07
0.00840062
4.26994e-07
0.00840156
9.89682e-07
0.00840265
2.43662e-06
0.00841
5.66833e-06
0.00841473
1.39714e-05
3.31633e-05
0.0084563
0.00840003
2.85487e-15
0.00840003
1.79762e-14
0.00840003
6.23154e-14
0.00840003
1.76527e-13
0.00840003
4.51331e-13
0.00840003
1.12727e-12
0.00840003
2.73309e-12
0.00840003
6.57235e-12
0.00840003
1.58526e-11
0.00840003
3.7441e-11
0.00840003
9.05822e-11
0.00840003
2.12405e-10
0.00840003
5.15023e-10
0.00840003
1.2027e-09
0.00840004
2.92082e-09
0.00840005
6.81556e-09
0.00840005
1.65068e-08
0.00840012
3.86985e-08
0.00840011
9.30282e-08
0.00840056
2.19697e-07
0.00840045
5.24237e-07
0.008403
1.24686e-06
0.00840276
2.95544e-06
0.00841625
7.09879e-06
1.6842e-05
0.00841926
0.00840003
1.42532e-15
0.00840003
9.98168e-15
0.00840003
3.19628e-14
0.00840003
9.5197e-14
0.00840003
2.32705e-13
0.00840003
6.05112e-13
0.00840003
1.39779e-12
0.00840003
3.51046e-12
0.00840003
8.04437e-12
0.00840003
1.98184e-11
0.00840003
4.58239e-11
0.00840003
1.10729e-10
0.00840003
2.60491e-10
0.00840003
6.15876e-10
0.00840004
1.4751e-09
0.00840004
3.41567e-09
0.00840005
8.33322e-09
0.00840007
1.89287e-08
0.0084001
4.67318e-08
0.00840028
1.05115e-07
0.00840032
2.60122e-07
0.00840161
5.85817e-07
0.00840146
1.43607e-06
0.00840946
3.27093e-06
7.93882e-06
0.00840899
0.00840003
8.1326e-16
0.00840003
4.49732e-15
0.00840003
1.69276e-14
0.00840003
4.4612e-14
0.00840003
1.23757e-13
0.00840003
2.85802e-13
0.00840003
7.36033e-13
0.00840003
1.65837e-12
0.00840003
4.14026e-12
0.00840003
9.38439e-12
0.00840003
2.28606e-11
0.00840003
5.27173e-11
0.00840003
1.25101e-10
0.00840003
2.94504e-10
0.00840003
6.79399e-10
0.00840004
1.64237e-09
0.00840004
3.66382e-09
0.00840005
9.06391e-09
0.00840009
1.97451e-08
0.00840009
4.94617e-08
0.00840041
1.06022e-07
0.00840027
2.66112e-07
0.00840229
5.693e-07
0.00840139
1.4133e-06
3.04783e-06
0.00841259
0.00840003
2.99484e-16
0.00840003
2.49093e-15
0.00840003
7.80785e-15
0.00840003
2.38315e-14
0.00840003
5.53497e-14
0.00840003
1.4789e-13
0.00840003
3.27319e-13
0.00840003
8.37112e-13
0.00840003
1.84832e-12
0.00840003
4.56103e-12
0.00840003
1.02906e-11
0.00840003
2.44391e-11
0.00840003
5.70936e-11
0.00840003
1.28958e-10
0.00840003
3.14373e-10
0.00840003
6.74464e-10
0.00840004
1.71612e-09
0.00840004
3.49212e-09
0.00840005
9.2091e-09
0.0084001
1.80407e-08
0.00840007
4.8396e-08
0.00840048
9.26887e-08
0.00840008
2.4875e-07
0.0084028
4.73715e-07
1.24237e-06
0.00840013
0.00840003
2.22343e-16
0.00840003
1.15538e-15
0.00840003
3.6002e-15
0.00840003
1.048e-14
0.00840003
2.65019e-14
0.00840003
6.54493e-14
0.00840003
1.55024e-13
0.00840003
3.67923e-13
0.00840003
8.48003e-13
0.00840003
2.00377e-12
0.00840003
4.54623e-12
0.00840003
1.06746e-11
0.00840003
2.40289e-11
0.00840003
5.65512e-11
0.00840003
1.25916e-10
0.00840003
2.93189e-10
0.00840004
6.54925e-10
0.00840003
1.50696e-09
0.00840005
3.34389e-09
0.00840001
7.60579e-09
0.00840019
1.68746e-08
0.00839985
3.78383e-08
0.00840097
8.31936e-08
0.00839897
1.83578e-07
4.05607e-07
0.00840498
0.00840003
4.85994e-17
0.00840003
3.65539e-16
0.00840003
1.74532e-15
0.00840003
3.48593e-15
0.00840003
1.33056e-14
0.00840003
2.2768e-14
0.00840003
7.71189e-14
0.00840003
1.27212e-13
0.00840003
4.12243e-13
0.00840003
7.02428e-13
0.00840003
2.09192e-12
0.00840003
3.96129e-12
0.00840003
1.03016e-11
0.00840003
2.24892e-11
0.00840003
4.79906e-11
0.00840003
1.29038e-10
0.00840003
2.16037e-10
0.00840003
7.17277e-10
0.00840005
9.29351e-10
0.0084
3.94586e-09
0.00840015
3.65887e-09
0.0083998
2.08864e-08
0.0084008
1.24783e-08
0.00839858
1.05953e-07
3.60255e-08
0.00840419
0.00840003
8.00954e-17
0.00840003
2.33673e-16
0.00840003
7.0549e-16
0.00840003
2.04795e-15
0.00840003
4.84923e-15
0.00840003
1.16096e-14
0.00840003
2.49268e-14
0.00840003
6.06733e-14
0.00840003
1.34801e-13
0.00840003
3.02272e-13
0.00840003
7.43541e-13
0.00840003
1.52152e-12
0.00840003
3.86566e-12
0.00840003
7.55696e-12
0.00840003
2.06548e-11
0.00840003
3.69479e-11
0.00840004
1.02539e-10
0.00840003
1.83718e-10
0.00840004
5.22837e-10
0.00840002
8.06148e-10
0.00840004
2.62032e-09
0.00840003
3.79128e-09
0.00839989
1.12931e-08
0.00840039
1.82538e-08
4.82654e-08
0.00839859
0.00840003
0.00840003
0.00840003
0.00840003
0.00840003
0.00840003
0.00840003
0.00840003
0.00840003
0.00840003
0.00840003
0.00840003
0.00840003
0.00840003
0.00840003
0.00840003
0.00840004
0.00840003
0.00840005
0.00840001
0.00840007
0.00839997
0.00839999
0.00840004
0.00839916
0.00483763
0.00405753
0.00321639
0.00162112
0.00252208
0.000694169
0.00224449
0.000277351
0.00222683
1.68753e-05
0.00241638
-0.000189945
0.00263574
-0.000219711
0.0027554
-0.00012054
0.0027889
-3.51396e-05
0.0027646
2.23154e-05
0.00272352
3.82949e-05
0.00268366
3.51549e-05
0.002642
3.23732e-05
0.00257903
4.31959e-05
0.00243645
0.000102103
0.00205188
0.000279612
0.00116915
0.000724746
0.000359214
0.000764882
-0.000306245
0.000657792
-0.000906107
0.000610487
-0.00140825
0.000516977
-0.00181852
0.000417434
-0.00213552
0.000317871
-0.0023457
0.000214961
-0.00248039
0.000139602
-0.00258158
0.00010554
-0.00265682
8.37052e-05
-0.00273258
8.0104e-05
-0.00279768
6.87397e-05
-0.00284063
4.64382e-05
-0.00285293
1.41911e-05
-0.00283683
-1.65864e-05
-0.00277663
-6.378e-05
-0.00264166
-0.000140878
-0.00243879
-0.000209492
-0.00218927
-0.000256687
-0.00190238
-0.000293215
-0.00159785
-0.000310462
-0.00127591
-0.000327303
-0.000951124
-0.000329327
-0.000630868
-0.000324194
-0.000312103
-0.000322067
2.11377e-05
-0.000336241
0.000328897
-0.000310017
0.000611282
-0.00028409
0.000880337
-0.000270151
0.00113602
-0.000256183
0.00137769
-0.000241672
0.00160398
-0.000226192
0.00181832
-0.000213997
0.00202726
-0.000208397
0.00222727
-0.00019958
0.00241679
-0.000189335
0.00259442
-0.000177781
0.00276216
-0.000167766
0.00291972
-0.000157924
0.00306858
-0.000149215
0.00320835
-0.000140372
0.00334008
-0.000132264
0.00346361
-0.000124151
0.00357987
-0.000116682
0.00368891
-0.000109326
0.0037913
-0.000102561
0.00388707
-9.59625e-05
0.00397674
-8.99094e-05
0.00406045
-8.40493e-05
0.00413851
-7.86761e-05