/*--------------------------------*- C++ -*----------------------------------*\
  =========                 |
  \\      /  F ield         | OpenFOAM: The Open Source CFD Toolbox
   \\    /   O peration     | Website:  https://openfoam.org
    \\  /    A nd           | Version:  13
     \\/     M anipulation  |
\*---------------------------------------------------------------------------*/
FoamFile
{
    format      ascii;
    class       volScalarField;
    location    "4";
    object      rho;
}
// * * * * * * * * * * * * * * * * * * * * * * * * * * * * * * * * * * * * * //

dimensions      [1 -3 0 0 0 0 0];

internalField   nonuniform List<scalar> 
5250
(
1.40001
1.40002
1.40006
1.40016
1.40036
1.40096
1.40224
1.40573
1.41361
1.4338
1.47919
1.58363
1.80178
2.28261
4.23216
5.92639
5.75965
5.64572
5.66499
5.74443
5.83499
5.88455
5.9258
5.96331
5.98266
1.40001
1.40002
1.40006
1.40014
1.4004
1.40085
1.40243
1.40517
1.41436
1.43169
1.4801
1.57882
1.79783
2.26768
4.17916
5.93388
5.76113
5.64303
5.66276
5.74283
5.83348
5.88329
5.92534
5.96358
5.98377
1.40001
1.40002
1.40006
1.40015
1.40035
1.4009
1.40217
1.40536
1.41315
1.43179
1.47602
1.5749
1.78515
2.23881
4.06045
5.9508
5.76427
5.6346
5.65335
5.73319
5.82239
5.87223
5.91376
5.95197
5.97204
1.40001
1.40002
1.40006
1.40013
1.40035
1.40082
1.4021
1.40505
1.41246
1.43027
1.47216
1.56662
1.7678
2.1959
3.87656
5.97733
5.7709
5.62106
5.63847
5.71356
5.80302
5.84916
5.89002
5.92772
5.95014
1.40001
1.40002
1.40005
1.40014
1.4003
1.40084
1.40179
1.40504
1.41095
1.42931
1.46573
1.55776
1.74401
2.14317
3.63327
6.00807
5.78239
5.60504
5.61759
5.68878
5.77471
5.82004
5.8575
5.8927
5.915
1.40001
1.40002
1.40005
1.40013
1.40027
1.40076
1.40168
1.40451
1.41027
1.42641
1.46087
1.54475
1.71854
2.08435
3.34185
6.02314
5.79661
5.58852
5.59507
5.65478
5.73831
5.77743
5.81171
5.84501
5.86898
1.40001
1.40002
1.40005
1.40011
1.40028
1.40063
1.40169
1.40373
1.41009
1.42264
1.45734
1.53008
1.69416
2.02749
3.06444
5.9736
5.78802
5.56509
5.56568
5.61291
5.68867
5.72323
5.74685
5.77447
5.80051
1.40001
1.40002
1.40004
1.4001
1.40023
1.40062
1.40141
1.40368
1.40858
1.42169
1.45085
1.521
1.66942
1.97991
2.86999
5.77891
5.71331
5.52762
5.52426
5.55658
5.6212
5.64744
5.66087
5.67514
5.6975
1.40001
1.40002
1.40004
1.4001
1.40021
1.40056
1.40127
1.40334
1.40776
1.4197
1.44619
1.51054
1.64696
1.93492
2.69569
5.46964
5.58512
5.5031
5.47527
5.48616
5.53641
5.54621
5.54112
5.52844
5.52981
1.40001
1.40002
1.40003
1.40009
1.40018
1.40052
1.4011
1.40308
1.40676
1.41806
1.44092
1.50047
1.62342
1.88917
2.53401
5.08017
5.5174
5.46749
5.40836
5.40849
5.4301
5.42195
5.38991
5.31829
5.26021
1.40001
1.40001
1.40003
1.40007
1.40018
1.40041
1.40107
1.40251
1.40634
1.41518
1.43731
1.4875
1.60104
1.83811
2.38242
4.61463
5.47748
5.43622
5.33855
5.3218
5.31199
5.2783
5.18364
4.95823
4.29995
1.40001
1.40001
1.40003
1.40006
1.40015
1.40036
1.40092
1.40213
1.40556
1.41274
1.43264
1.47497
1.57565
1.78342
2.23696
4.06858
5.46112
5.41187
5.28276
5.23183
5.19772
5.12587
4.96936
4.64402
3.93155
1.40001
1.40001
1.40002
1.40006
1.40012
1.40032
1.40072
1.40188
1.40438
1.41109
1.42638
1.46386
1.54705
1.72716
2.09774
3.45985
5.45237
5.39924
5.24812
5.15095
5.0878
4.98033
4.77854
4.43404
3.85724
1.40001
1.40001
1.40002
1.40004
1.40011
1.40023
1.40065
1.40138
1.40388
1.40832
1.42253
1.45004
1.52235
1.66847
1.97534
2.84549
5.36044
5.35001
5.24178
5.08616
4.98798
4.85645
4.64212
4.31535
3.8617
1.40001
1.40001
1.40002
1.40003
1.40009
1.40019
1.40053
1.40113
1.40313
1.40686
1.41829
1.44129
1.50118
1.62448
1.88961
2.5349
4.95911
5.25108
5.18579
5.03015
4.89921
4.7563
4.54633
4.24833
3.87095
1.40001
1.40001
1.40001
1.40003
1.40007
1.40018
1.40037
1.40103
1.40226
1.40609
1.41373
1.43528
1.48036
1.58801
1.8073
2.29771
4.26771
5.1412
5.1059
4.98721
4.82994
4.67303
4.47549
4.20513
3.877
1.40001
1.40001
1.40001
1.40003
1.40006
1.40013
1.40032
1.40074
1.40195
1.4044
1.41161
1.42641
1.4657
1.54879
1.73193
2.10233
3.52355
5.09188
5.06846
4.96969
4.78126
4.60861
4.41802
4.17433
3.88216
1.40001
1.40001
1.40001
1.40002
1.40004
1.40011
1.40022
1.40063
1.40132
1.40369
1.40796
1.42138
1.44759
1.51623
1.65507
1.93896
2.72076
4.95133
5.05163
4.9679
4.77423
4.57016
4.37519
4.15175
3.88892
1.40001
1.40001
1.40001
1.40002
1.40003
1.40008
1.40017
1.40048
1.40101
1.4028
1.4061
1.41631
1.43666
1.49026
1.60074
1.8383
2.37786
4.4458
4.962
4.91114
4.76256
4.54677
4.34554
4.13369
3.89641
1.40001
1.40001
1.40001
1.40001
1.40003
1.40006
1.40014
1.40034
1.40079
1.40205
1.40465
1.4122
1.42771
1.46881
1.55497
1.74449
2.12704
3.64164
4.86956
4.84762
4.75264
4.5391
4.33047
4.12324
3.90338
1.40001
1.40001
1.40001
1.40001
1.40002
1.40005
1.4001
1.40025
1.40056
1.40152
1.40327
1.40898
1.41957
1.45049
1.51239
1.6572
1.92634
2.71595
4.70114
4.82797
4.75439
4.56787
4.33326
4.12578
3.91539
1.40001
1.40001
1.40001
1.40001
1.40002
1.40003
1.40007
1.40019
1.40041
1.4011
1.40236
1.4065
1.41411
1.43702
1.48235
1.59342
1.81021
2.30702
4.16825
4.75208
4.71194
4.58508
4.3532
4.13671
3.93522
1.40001
1.40001
1.40001
1.40001
1.40001
1.40003
1.40006
1.40013
1.40031
1.40075
1.40176
1.40449
1.41031
1.42617
1.46002
1.54154
1.70939
2.04467
3.30265
4.63082
4.63841
4.57248
4.39325
4.16534
3.95902
1.40001
1.40001
1.40001
1.40001
1.40001
1.40002
1.40004
1.40009
1.40022
1.40049
1.40126
1.40294
1.40732
1.41742
1.44203
1.49753
1.62036
1.85277
2.45012
4.31932
4.61979
4.56836
4.42831
4.20481
3.98913
1.40001
1.40001
1.40001
1.40001
1.40001
1.40002
1.40003
1.40006
1.40015
1.40035
1.40087
1.40198
1.40518
1.41161
1.42985
1.46733
1.55853
1.74003
2.11549
3.56491
4.53532
4.51935
4.44937
4.26689
4.03326
1.40001
1.40001
1.40001
1.40001
1.40001
1.40001
1.40002
1.40005
1.40009
1.40025
1.40054
1.40142
1.40319
1.40818
1.41881
1.44637
1.5052
1.63781
1.87547
2.55962
4.30282
4.51277
4.46083
4.32984
4.09561
1.40001
1.40001
1.40001
1.40001
1.40001
1.40001
1.40002
1.40003
1.40007
1.40015
1.4004
1.40085
1.40233
1.40502
1.4134
1.42978
1.47378
1.56366
1.75498
2.14984
3.66043
4.43671
4.4239
4.35586
4.18553
1.40001
1.40001
1.40001
1.40001
1.40001
1.40001
1.40001
1.40002
1.40005
1.4001
1.40026
1.40056
1.40149
1.40333
1.40855
1.41957
1.44826
1.509
1.64545
1.8887
2.6551
4.20566
4.40642
4.36432
4.25076
1.40001
1.40001
1.40001
1.40001
1.40001
1.40001
1.40001
1.40002
1.40003
1.40007
1.40016
1.40038
1.40091
1.40227
1.40522
1.41325
1.43025
1.47338
1.56407
1.74959
2.14253
3.59585
4.32453
4.32394
4.27069
1.40001
1.40001
1.40001
1.40001
1.40001
1.40001
1.40001
1.40001
1.40002
1.40004
1.40011
1.40023
1.40062
1.4013
1.40358
1.40763
1.42033
1.44463
1.50835
1.63387
1.8681
2.58074
4.07196
4.30441
4.27361
1.40001
1.40001
1.40001
1.40001
1.40001
1.40001
1.40001
1.40001
1.40002
1.40003
1.40007
1.40016
1.40037
1.40086
1.40216
1.40491
1.41257
1.42828
1.46947
1.55377
1.72923
2.08874
3.42533
4.20922
4.24142
1.40001
1.40001
1.40001
1.40001
1.40001
1.40001
1.40001
1.40001
1.40001
1.40002
1.40005
1.40009
1.40024
1.40051
1.40131
1.40299
1.40747
1.41734
1.44193
1.49532
1.61294
1.81504
2.36746
3.92372
4.22055
1.40001
1.40001
1.40001
1.40001
1.40001
1.40001
1.40001
1.40001
1.40001
1.40002
1.40003
1.40006
1.40014
1.40032
1.40082
1.40177
1.4048
1.41018
1.42705
1.45875
1.54085
1.69368
2.00866
3.1709
4.07747
1.40001
1.40001
1.40001
1.40001
1.40001
1.40001
1.40001
1.40001
1.40001
1.40001
1.40002
1.40004
1.40008
1.4002
1.40048
1.40109
1.40278
1.40616
1.41595
1.43525
1.48572
1.58624
1.77388
2.23982
3.69364
1.40001
1.40001
1.40001
1.40001
1.40001
1.40001
1.40001
1.40001
1.40001
1.40001
1.40001
1.40003
1.40005
1.40013
1.40026
1.40071
1.40149
1.40406
1.40865
1.4228
1.44982
1.5197
1.65206
1.90823
2.7898
1.40001
1.40001
1.40001
1.40001
1.40001
1.40001
1.40001
1.40001
1.40001
1.40001
1.40001
1.40002
1.40003
1.40007
1.40017
1.40038
1.40098
1.40211
1.40564
1.41208
1.43138
1.4685
1.56003
1.72041
2.09189
1.40001
1.40001
1.40001
1.40001
1.40001
1.40001
1.40001
1.40001
1.40001
1.40001
1.40001
1.40001
1.40002
1.40004
1.4001
1.40023
1.40051
1.40134
1.40286
1.40762
1.41629
1.44178
1.49036
1.60403
1.78829
1.40001
1.40001
1.40001
1.40001
1.40001
1.40001
1.40001
1.40001
1.40001
1.40001
1.40001
1.40001
1.40001
1.40003
1.40006
1.40012
1.40033
1.40069
1.40184
1.40392
1.41035
1.42253
1.45641
1.52254
1.66616
1.40001
1.40001
1.40001
1.40001
1.40001
1.40001
1.40001
1.40001
1.40001
1.40001
1.40001
1.40001
1.40001
1.40002
1.40004
1.40007
1.40019
1.40039
1.40102
1.40224
1.40571
1.41284
1.4316
1.471
1.56122
1.40001
1.40001
1.40001
1.40001
1.40001
1.40001
1.40001
1.40001
1.40001
1.40001
1.40001
1.40001
1.40001
1.40001
1.40002
1.40005
1.4001
1.40022
1.40056
1.40122
1.40321
1.40682
1.41794
1.43852
1.49358
1.40001
1.40001
1.40001
1.40001
1.40001
1.40001
1.40001
1.40001
1.40001
1.40001
1.40001
1.40001
1.40001
1.40001
1.40001
1.40003
1.40005
1.40014
1.40029
1.40072
1.40169
1.40398
1.40969
1.42212
1.45329
1.40001
1.40001
1.40001
1.40001
1.40001
1.40001
1.40001
1.40001
1.40001
1.40001
1.40001
1.40001
1.40001
1.40001
1.40001
1.40002
1.40003
1.40008
1.40016
1.40041
1.40087
1.40232
1.40489
1.41294
1.42769
1.40001
1.40001
1.40001
1.40001
1.40001
1.40001
1.40001
1.40001
1.40001
1.40001
1.40001
1.40001
1.40001
1.40001
1.40001
1.40001
1.40002
1.40004
1.4001
1.40021
1.40051
1.40117
1.40279
1.40669
1.4154
1.40001
1.40001
1.40001
1.40001
1.40001
1.40001
1.40001
1.40001
1.40001
1.40001
1.40001
1.40001
1.40001
1.40001
1.40001
1.40001
1.40001
1.40003
1.40006
1.40012
1.4003
1.40063
1.40163
1.40361
1.409
1.40001
1.40001
1.40001
1.40001
1.40001
1.40001
1.40001
1.40001
1.40001
1.40001
1.40001
1.40001
1.40001
1.40001
1.40001
1.40001
1.40001
1.40002
1.40003
1.40008
1.40017
1.40044
1.40097
1.40244
1.4056
1.40001
1.40001
1.40001
1.40001
1.40001
1.40001
1.40001
1.40001
1.40001
1.40001
1.40001
1.40001
1.40001
1.40001
1.40001
1.40001
1.40001
1.40001
1.40003
1.40006
1.40015
1.4003
1.40082
1.40177
1.40471
1.40001
1.40001
1.40001
1.40001
1.40001
1.40001
1.40001
1.40001
1.40001
1.40001
1.40001
1.40001
1.40001
1.40001
1.40001
1.40001
1.40001
1.40001
1.40002
1.40006
1.40011
1.4003
1.40066
1.40172
1.40403
1.40001
1.40001
1.40001
1.40001
1.40001
1.40001
1.40001
1.40001
1.40001
1.40001
1.40001
1.40001
1.40001
1.40001
1.40001
1.40001
1.40001
1.40001
1.40002
1.40005
1.40011
1.40028
1.40063
1.40166
1.40386
1.40001
1.40001
1.40001
1.40001
1.40001
1.40001
1.40001
1.40001
1.40001
1.40001
1.40001
1.40001
1.40001
1.40001
1.40001
1.40001
1.40001
1.40001
1.40002
1.40005
1.40012
1.40025
1.4007
1.40148
1.40417
1.40001
1.40001
1.40001
1.40001
1.40001
1.40001
1.40001
1.40001
1.40001
1.40001
1.40001
1.40001
1.40001
1.40001
1.40001
1.40001
1.40001
1.40001
1.40002
1.40005
1.40012
1.40025
1.40069
1.40147
1.40417
1.89667
1.03707
0.720336
0.644116
0.644091
0.677095
0.767044
0.842068
0.868829
0.868925
0.869233
0.872151
0.882539
0.909122
0.968123
1.10114
1.37768
1.57209
1.61479
1.63206
1.6209
1.59642
1.58284
1.57532
1.56465
1.55651
1.545
1.53618
1.53606
1.53701
1.54203
1.55844
1.5905
1.64003
1.6989
1.76095
1.82123
1.87664
1.92935
1.97477
2.01456
2.04847
2.07733
2.10257
2.12497
2.13915
2.15219
2.15865
2.16519
2.16655
2.16862
2.16315
2.16031
2.15156
2.14588
2.13475
2.1265
2.11349
2.10282
2.08814
2.07549
2.05953
2.04551
2.02851
2.01336
1.99555
1.97961
1.96113
1.94445
1.92547
1.90814
1.88885
1.87098
1.85142
1.83328
1.81346
1.79531
1.7753
1.75729
1.73725
1.71944
1.69958
1.68206
1.66243
1.64534
1.62593
1.6093
1.59025
1.57396
1.55537
1.53941
1.52131
1.50575
1.48823
1.4734
1.45673
1.44306
1.42808
1.41698
1.40735
2.34338
1.5366
1.1763
1.02588
0.963621
0.918812
0.911074
0.915568
0.926789
0.953714
0.981235
0.993576
1.00445
1.02744
1.07613
1.18179
1.416
1.66262
1.69633
1.66617
1.63177
1.59052
1.55769
1.53794
1.51938
1.50067
1.48111
1.46837
1.46877
1.46953
1.47547
1.49196
1.52288
1.5738
1.63944
1.70844
1.78176
1.84687
1.91404
1.97207
2.03088
2.07401
2.11869
2.15263
2.18632
2.20795
2.22931
2.24238
2.25508
2.26247
2.27014
2.26943
2.26947
2.26567
2.26234
2.25479
2.24765
2.23678
2.22684
2.21362
2.20159
2.18667
2.17305
2.15678
2.14192
2.12456
2.10869
2.09048
2.07377
2.05485
2.0375
2.018
2.00021
1.9802
1.96216
1.94176
1.92362
1.90303
1.88488
1.86435
1.84629
1.82595
1.80814
1.78805
1.77057
1.75081
1.73365
1.71432
1.69743
1.6786
1.66208
1.64385
1.62782
1.61017
1.59468
1.57781
1.56339
1.54816
1.53614
1.52636
2.86468
2.13367
1.66173
1.36007
1.16502
1.04443
0.96714
0.959967
0.963984
0.975677
1.00362
1.03441
1.05984
1.08167
1.12443
1.19725
1.38363
1.73788
1.80327
1.76302
1.72644
1.68118
1.62767
1.58204
1.54306
1.50837
1.47927
1.46181
1.45225
1.44732
1.44857
1.46095
1.4893
1.54867
1.62547
1.70797
1.79542
1.87722
1.95409
2.02173
2.08108
2.13125
2.17597
2.21256
2.24526
2.26959
2.29046
2.30463
2.31672
2.32489
2.33197
2.33279
2.33104
2.32658
2.32206
2.3143
2.30648
2.29571
2.28527
2.27236
2.25987
2.24528
2.23117
2.21518
2.19981
2.18266
2.16621
2.14811
2.13074
2.1119
2.09378
2.07435
2.0557
2.03579
2.01683
1.99658
1.97741
1.95701
1.93774
1.91738
1.89819
1.87799
1.85906
1.83909
1.82049
1.80093
1.7826
1.76354
1.74563
1.7271
1.70956
1.69146
1.67438
1.65682
1.64035
1.62362
1.60824
1.59318
1.58017
1.57043
3.16335
2.52043
2.0267
1.67382
1.43348
1.26918
1.16561
1.10081
1.06062
1.0535
1.05607
1.06365
1.08095
1.11193
1.14872
1.21076
1.3585
1.6668
1.87133
1.87528
1.85232
1.79904
1.72741
1.68642
1.64407
1.59603
1.55452
1.5216
1.49654
1.48284
1.4799
1.49621
1.53658
1.59989
1.68183
1.76911
1.85858
1.94118
2.01982
2.08642
2.14684
2.19702
2.24315
2.28069
2.3147
2.34038
2.36255
2.37814
2.39036
2.39919
2.40746
2.41043
2.40876
2.40437
2.39992
2.39306
2.38553
2.37551
2.36496
2.35236
2.33952
2.32502
2.31049
2.29449
2.27859
2.26125
2.24418
2.22572
2.20771
2.18838
2.1697
2.14964
2.13047
2.10977
2.09026
2.06912
2.04944
2.02817
2.00844
1.98723
1.96755
1.94646
1.92694
1.90599
1.88679
1.8664
1.84762
1.82772
1.80926
1.78984
1.7717
1.75271
1.73496
1.71643
1.69928
1.6814
1.66532
1.64889
1.63504
1.62364
3.33947
2.79494
2.33044
1.96738
1.69569
1.49482
1.34651
1.23976
1.16392
1.1153
1.09199
1.09281
1.09762
1.11022
1.1367
1.18842
1.28176
1.49231
1.87371
1.97478
1.94287
1.89458
1.85345
1.80543
1.74442
1.70074
1.66746
1.63175
1.60642
1.59435
1.59115
1.61715
1.65676
1.71493
1.78407
1.86112
1.93485
2.00953
2.08147
2.14774
2.2069
2.25818
2.30316
2.34057
2.37322
2.39865
2.42031
2.43551
2.44751
2.45549
2.46299
2.466
2.46465
2.45876
2.45268
2.44461
2.43605
2.42503
2.41349
2.3997
2.38588
2.37039
2.35503
2.3385
2.32191
2.30431
2.2865
2.26765
2.24888
2.22906
2.2098
2.1895
2.16998
2.1494
2.12948
2.10861
2.08826
2.06717
2.04673
2.02569
2.00558
1.98481
1.96511
1.94483
1.92525
1.90512
1.88556
1.86577
1.84642
1.82709
1.80828
1.78943
1.77123
1.75283
1.73516
1.71739
1.70053
1.68413
1.66934
1.65765
3.45307
2.99666
2.57829
2.22552
1.94116
1.71892
1.54489
1.41309
1.31211
1.23973
1.18847
1.15187
1.14498
1.14741
1.1579
1.18592
1.24187
1.38083
1.65732
1.95595
2.03075
1.99537
1.94735
1.90356
1.85994
1.81619
1.77613
1.75375
1.73313
1.7285
1.74412
1.77909
1.81329
1.85452
1.903
1.95681
2.01271
2.06456
2.13167
2.19877
2.26195
2.31585
2.36249
2.40032
2.43276
2.4587
2.48092
2.49712
2.50972
2.51759
2.52472
2.52815
2.52871
2.52276
2.5159
2.50688
2.49788
2.48678
2.47528
2.4617
2.44755
2.43164
2.41534
2.39774
2.38021
2.36176
2.34348
2.32429
2.30495
2.28461
2.26417
2.24295
2.22214
2.20081
2.18024
2.15911
2.13859
2.11723
2.09632
2.07448
2.05337
2.03163
2.01089
1.98975
1.96975
1.94921
1.92979
1.9095
1.89029
1.87005
1.85092
1.83103
1.81228
1.79313
1.77516
1.75683
1.73998
1.72276
1.70782
1.69473
3.52781
3.14539
2.77151
2.4417
2.15903
1.92636
1.73739
1.58457
1.46338
1.36657
1.29217
1.23676
1.19688
1.18108
1.18297
1.19359
1.22494
1.28717
1.45281
1.80684
2.01528
2.05471
2.04061
2.00484
1.95611
1.91912
1.89404
1.87459
1.86262
1.88621
1.93369
1.97336
1.99815
2.02187
2.0477
2.07153
2.0969
2.1314
2.17457
2.23369
2.29863
2.35863
2.40827
2.44816
2.48059
2.50616
2.52712
2.54208
2.55341
2.55895
2.56457
2.56681
2.56765
2.56186
2.55391
2.54352
2.53329
2.52116
2.509
2.49439
2.47954
2.46243
2.44533
2.4267
2.40832
2.38897
2.36993
2.35019
2.33061
2.31036
2.29004
2.26904
2.24802
2.22639
2.20506
2.18323
2.16193
2.14031
2.11928
2.09801
2.07717
2.05588
2.0352
2.01391
1.99356
1.97268
1.9528
1.93268
1.91321
1.89374
1.87452
1.85529
1.83634
1.8172
1.79879
1.78015
1.7627
1.7455
1.72991
1.71709
3.58378
3.25258
2.92522
2.61673
2.34761
2.11229
1.91634
1.75173
1.61523
1.50473
1.41285
1.34166
1.28462
1.244
1.22422
1.2259
1.23698
1.27079
1.33835
1.51303
1.92486
2.06573
2.08497
2.07651
2.05385
2.02002
1.99509
1.99249
2.00804
2.08039
2.15635
2.18864
2.20326
2.21389
2.20824
2.18542
2.18102
2.19983
2.2235
2.25727
2.30872
2.36952
2.42443
2.46945
2.50397
2.53072
2.55124
2.56611
2.578
2.58424
2.58885
2.59088
2.59211
2.58885
2.58181
2.57158
2.56141
2.54916
2.53707
2.52263
2.50808
2.49122
2.47426
2.45584
2.43758
2.41863
2.39991
2.3805
2.3613
2.34099
2.32095
2.29963
2.27862
2.25668
2.23518
2.2132
2.19203
2.17051
2.14998
2.12859
2.10829
2.08683
2.06635
2.04494
2.02427
2.00323
1.98277
1.96227
1.94243
1.9224
1.9033
1.88358
1.86501
1.84557
1.82732
1.80842
1.79067
1.77296
1.75684
1.74307
3.62607
3.33713
3.04292
2.76389
2.50517
2.27814
2.0781
1.9084
1.76268
1.6398
1.53779
1.45062
1.38152
1.32398
1.28086
1.26033
1.26226
1.27435
1.31129
1.38678
1.58734
1.99382
2.10819
2.11668
2.11514
2.10967
2.09787
2.11283
2.17878
2.3151
2.40757
2.41913
2.42559
2.41633
2.36285
2.30511
2.27095
2.26321
2.27661
2.29469
2.32008
2.36315
2.41538
2.46505
2.50605
2.53752
2.56185
2.57949
2.59275
2.60025
2.60438
2.60618
2.60765
2.6061
2.60109
2.59169
2.58155
2.56985
2.55781
2.544
2.52972
2.51324
2.49664
2.47791
2.45982
2.44008
2.42138
2.40128
2.382
2.36134
2.34125
2.31987
2.29909
2.27718
2.25608
2.23428
2.21337
2.19196
2.17125
2.15018
2.12952
2.10854
2.08788
2.06677
2.04623
2.025
2.00478
1.98374
1.96401
1.94357
1.92436
1.90473
1.88597
1.86704
1.84868
1.83026
1.81252
1.79487
1.77867
1.76442
3.66144
3.40184
3.13892
2.88141
2.64174
2.42048
2.2253
2.05203
1.9017
1.77219
1.65945
1.56547
1.48279
1.41631
1.35964
1.31597
1.2968
1.29902
1.31285
1.35402
1.44613
1.6733
2.03913
2.15037
2.15478
2.16858
2.19421
2.25108
2.40897
2.58361
2.65829
2.66023
2.65005
2.60448
2.50727
2.42438
2.36667
2.33477
2.32497
2.33349
2.34506
2.36327
2.39729
2.44034
2.48647
2.52424
2.55477
2.57809
2.59462
2.60539
2.61172
2.61353
2.61512
2.61442
2.61261
2.60521
2.59675
2.58574
2.57448
2.56107
2.54734
2.53152
2.51543
2.49746
2.47974
2.46056
2.44224
2.42261
2.40391
2.38374
2.36419
2.34319
2.32262
2.30108
2.28008
2.25845
2.23731
2.21571
2.19471
2.17322
2.15259
2.13123
2.11099
2.08977
2.06976
2.04872
2.02875
2.00802
1.98807
1.96777
1.94808
1.92829
1.90919
1.88991
1.8716
1.85288
1.83545
1.81766
1.80163
1.78724
3.69323
3.45782
3.21776
2.98117
2.75622
2.54664
2.35525
2.18404
2.03171
1.89662
1.7801
1.67586
1.58864
1.50985
1.44608
1.39025
1.34676
1.33047
1.33308
1.34882
1.39412
1.50234
1.75017
2.08051
2.19205
2.23066
2.28559
2.41665
2.68847
2.87179
2.89811
2.89331
2.86203
2.75951
2.63758
2.53925
2.46711
2.41579
2.38412
2.36885
2.3718
2.37762
2.39005
2.41512
2.45357
2.49757
2.53369
2.56606
2.58979
2.60616
2.61698
2.6209
2.62358
2.62428
2.62487
2.62139
2.615
2.60554
2.59532
2.58261
2.56957
2.55452
2.53943
2.52248
2.5055
2.48683
2.46839
2.44864
2.4294
2.40899
2.3891
2.36793
2.34758
2.32614
2.30562
2.28395
2.26321
2.24127
2.22031
2.19831
2.17736
2.15563
2.13488
2.1136
2.0931
2.07224
2.05196
2.03135
2.01129
1.99083
1.97112
1.95087
1.93172
1.91189
1.89345
1.87436
1.85676
1.83892
1.82272
1.80842
3.72422
3.50754
3.28493
3.0667
2.85468
2.65687
2.47141
2.30412
2.15121
2.01613
1.89317
1.78728
1.69057
1.60869
1.53395
1.47247
1.41848
1.37495
1.36401
1.3671
1.38499
1.43435
1.5577
1.82829
2.13432
2.27
2.38949
2.65978
3.00389
3.14432
3.14048
3.11325
3.0301
2.88426
2.7543
2.64868
2.56582
2.49992
2.45134
2.41659
2.39673
2.394
2.39829
2.40965
2.42824
2.46524
2.505
2.54354
2.57626
2.6012
2.61893
2.6291
2.63436
2.63722
2.63984
2.63951
2.63563
2.62753
2.61839
2.60641
2.59398
2.57932
2.56475
2.54833
2.53197
2.51374
2.4955
2.4757
2.45618
2.43553
2.4153
2.3943
2.37384
2.35253
2.33179
2.31019
2.2892
2.26734
2.24612
2.22403
2.20268
2.18056
2.15933
2.13746
2.11655
2.09508
2.07456
2.05344
2.0333
2.01243
1.99267
1.97207
1.95279
1.93265
1.91398
1.89462
1.87678
1.85876
1.84242
1.82805
3.75712
3.55333
3.34752
3.14252
2.94398
2.75366
2.57705
2.41156
2.2621
2.12459
2.002
1.89024
1.79189
1.70258
1.62472
1.55447
1.49428
1.44417
1.39929
1.39809
1.40222
1.42331
1.47886
1.61873
1.93241
2.24427
2.49659
2.99695
3.32384
3.36807
3.35028
3.28924
3.14014
2.98736
2.8581
2.74748
2.65671
2.58202
2.52247
2.47456
2.44107
2.42132
2.41696
2.42298
2.43369
2.45076
2.47904
2.5169
2.5551
2.58889
2.61556
2.63434
2.64713
2.65194
2.65626
2.65759
2.65708
2.65023
2.64156
2.63006
2.61807
2.60371
2.58924
2.57283
2.55658
2.53869
2.52087
2.50139
2.4819
2.46092
2.44047
2.41904
2.39836
2.37668
2.35567
2.33362
2.31222
2.2899
2.2683
2.24589
2.22424
2.20187
2.18026
2.15808
2.13665
2.11482
2.09374
2.07233
2.05173
2.03069
2.01065
1.98996
1.97054
1.95035
1.93166
1.91227
1.89455
1.87664
1.8605
1.84662
3.79234
3.59894
3.4058
3.21256
3.02574
2.84322
2.673
2.51176
2.36435
2.22685
2.10366
1.98926
1.88812
1.7947
1.7132
1.637
1.57302
1.51329
1.46518
1.43027
1.43045
1.43985
1.47219
1.54628
1.7244
2.1189
2.57854
3.35305
3.59174
3.57791
3.52241
3.39153
3.22425
3.07568
2.94779
2.83993
2.7483
2.67128
2.60432
2.55001
2.50584
2.47489
2.45678
2.45496
2.45611
2.46843
2.48065
2.4989
2.53294
2.56726
2.6013
2.62937
2.64928
2.66148
2.66706
2.66934
2.67028
2.6671
2.6591
2.64766
2.63576
2.62166
2.60738
2.59099
2.57446
2.5562
2.53803
2.51846
2.49891
2.4782
2.45772
2.43622
2.41518
2.39322
2.37191
2.34971
2.32821
2.30581
2.28416
2.26165
2.23996
2.21742
2.19578
2.17331
2.15185
2.12959
2.10852
2.08665
2.06618
2.04486
2.02512
2.00447
1.9855
1.96566
1.94758
1.92884
1.91187
1.895
1.87963
1.86722
3.83353
3.64685
3.46332
3.27958
3.10086
2.92799
2.76068
2.60586
2.45837
2.32424
2.19812
2.08506
1.97884
1.88552
1.79755
1.72086
1.64989
1.58667
1.53507
1.48177
1.47566
1.47799
1.49644
1.5523
1.68382
1.949
2.55509
3.62721
3.76096
3.72295
3.61767
3.43976
3.28059
3.14704
3.03235
2.93463
2.8493
2.77349
2.70627
2.64635
2.59556
2.55614
2.52518
2.50579
2.4976
2.49371
2.49627
2.50439
2.51802
2.54073
2.57324
2.60291
2.63002
2.64901
2.66166
2.66624
2.66858
2.66809
2.66567
2.65634
2.64523
2.63147
2.61741
2.60153
2.58543
2.56769
2.54973
2.53025
2.51084
2.49035
2.47014
2.44889
2.42804
2.40611
2.3848
2.36247
2.34097
2.31858
2.29712
2.27483
2.25346
2.23128
2.21003
2.18793
2.16692
2.14496
2.12433
2.10263
2.08252
2.0612
2.04174
2.02103
2.00238
1.98265
1.96508
1.94682
1.9308
1.91487
1.90001
1.8893
3.88872
3.6997
3.52028
3.34532
3.17003
3.00623
2.84374
2.69251
2.54801
2.41494
2.28924
2.17569
2.06758
1.97282
1.88118
1.80277
1.72707
1.6616
1.60569
1.54827
1.53554
1.53741
1.55258
1.60116
1.72029
1.95294
2.52335
3.73548
3.89573
3.86248
3.7516
3.57215
3.42255
3.29746
3.18565
3.08306
2.99132
2.91046
2.83837
2.77132
2.71078
2.65618
2.61141
2.57392
2.5452
2.52714
2.51747
2.5102
2.51633
2.52394
2.53657
2.561
2.58815
2.61435
2.63497
2.64843
2.65596
2.65726
2.6582
2.65568
2.6486
2.63654
2.623
2.60746
2.59193
2.57505
2.55811
2.5398
2.52143
2.5017
2.48202
2.46112
2.44057
2.41892
2.39782
2.3756
2.35409
2.33149
2.30976
2.28703
2.26534
2.24274
2.22132
2.19895
2.17792
2.15581
2.1353
2.11356
2.09371
2.0726
2.05357
2.03344
2.01553
1.99677
1.98048
1.96372
1.94897
1.93435
1.92089
1.91413
3.95496
3.76111
3.57844
3.4093
3.24049
3.07721
2.92235
2.77378
2.63109
2.50158
2.37407
2.26301
2.15231
2.05725
1.96359
1.88231
1.80555
1.73604
1.68005
1.62105
1.61882
1.62188
1.64159
1.69546
1.83811
2.10719
2.59422
3.53082
3.96779
3.9667
3.92064
3.80921
3.63407
3.47178
3.33638
3.22345
3.12715
3.03944
2.95824
2.88154
2.81083
2.74723
2.69073
2.64171
2.601
2.56839
2.54599
2.53067
2.51975
2.51605
2.52084
2.52927
2.54535
2.57131
2.59564
2.61823
2.63312
2.64299
2.64447
2.64446
2.64272
2.63653
2.62499
2.61026
2.59499
2.57809
2.56118
2.54297
2.52481
2.50537
2.48607
2.4654
2.4451
2.42346
2.40249
2.38032
2.35906
2.33672
2.31544
2.29317
2.27206
2.2499
2.22907
2.20706
2.18661
2.16488
2.14492
2.12371
2.10444
2.08405
2.06586
2.0467
2.03009
2.01283
1.99831
1.98252
1.96985
1.95747
1.9472
1.94633
4.0247
3.82155
3.6416
3.47007
3.30896
3.14973
2.99522
2.85296
2.71051
2.58307
2.45743
2.34394
2.23609
2.13664
2.04524
1.95937
1.88356
1.8132
1.75404
1.71803
1.71775
1.72928
1.76934
1.8607
2.06958
2.42852
2.71177
3.1158
3.69042
3.93776
3.93487
3.89261
3.7916
3.63347
3.48253
3.3557
3.24834
3.1531
3.06426
2.9819
2.90566
2.83617
2.77214
2.71444
2.66306
2.61956
2.58314
2.5551
2.53629
2.52054
2.50923
2.51288
2.51746
2.52654
2.54451
2.56753
2.5895
2.60774
2.61914
2.62379
2.6247
2.62338
2.61937
2.60779
2.59406
2.57772
2.5615
2.5438
2.5264
2.50755
2.48895
2.46883
2.44914
2.42802
2.40766
2.38594
2.36525
2.34321
2.32241
2.30027
2.27953
2.25751
2.23697
2.21521
2.19503
2.1737
2.15414
2.13352
2.11501
2.09549
2.07867
2.06092
2.04665
2.03066
2.01798
2.00496
1.99531
1.98742
1.9851
1.98669
4.12645
3.89947
3.70725
3.53595
3.37427
3.22106
3.06975
2.92695
2.78998
2.66068
2.53831
2.4238
2.31583
2.21614
2.123
2.03826
1.96015
1.8946
1.84037
1.8372
1.84289
1.87291
1.95075
2.13237
2.44949
2.66618
2.79385
2.96408
3.24654
3.64944
3.86871
3.87527
3.85878
3.79784
3.64784
3.50258
3.37833
3.26864
3.1695
3.08041
2.99884
2.92375
2.85306
2.78867
2.72991
2.67803
2.63174
2.59268
2.56003
2.53768
2.51717
2.50309
2.49912
2.50275
2.50889
2.52087
2.54137
2.56267
2.5811
2.5946
2.6024
2.60299
2.60257
2.59892
2.59088
2.57624
2.56027
2.54255
2.52534
2.50687
2.48891
2.46945
2.45058
2.43001
2.41034
2.38893
2.36877
2.34698
2.32663
2.30487
2.28457
2.26306
2.24308
2.22195
2.2026
2.18195
2.1637
2.14386
2.12725
2.10909
2.09471
2.07925
2.06593
2.05343
2.0428
2.0352
2.0307
2.03024
2.03002
2.0412
4.1855
3.98
3.7801
3.60182
3.44271
3.28889
3.14281
3.0021
2.86537
2.73858
2.61609
2.50208
2.39481
2.29372
2.2014
2.1161
2.04339
1.9778
1.96884
1.97097
1.99503
2.07114
2.23881
2.55456
2.75439
2.83715
2.87513
2.94462
3.05017
3.24318
3.55067
3.77594
3.83619
3.82873
3.78032
3.66304
3.52685
3.39743
3.28207
3.18171
3.09237
3.00999
2.9342
2.86433
2.80073
2.7415
2.68797
2.63933
2.59765
2.56194
2.53527
2.51181
2.49432
2.48268
2.48548
2.48878
2.49576
2.50941
2.52997
2.54896
2.56513
2.57494
2.57756
2.57737
2.57557
2.56919
2.55607
2.53972
2.52302
2.50467
2.48708
2.46793
2.44989
2.42999
2.41123
2.39059
2.3711
2.35004
2.33021
2.30907
2.28943
2.26833
2.2494
2.22859
2.21066
2.19079
2.17402
2.15619
2.14116
2.12667
2.11313
2.10093
2.09021
2.08264
2.07743
2.07693
2.07792
2.08259
2.08842
2.11685
4.19996
4.08413
3.86793
3.67828
3.51144
3.3602
3.21278
3.07569
2.94117
2.81353
2.69307
2.57878
2.47191
2.37212
2.27967
2.19977
2.12895
2.10731
2.10786
2.12943
2.19999
2.35208
2.69125
2.89517
2.95784
2.96423
2.96316
2.96844
2.99437
3.05579
3.2033
3.4668
3.70445
3.80091
3.79895
3.76126
3.67104
3.54264
3.41118
3.29597
3.19354
3.10099
3.01791
2.94227
2.87276
2.80765
2.74748
2.69261
2.64333
2.59952
2.56165
2.53084
2.50479
2.48286
2.46777
2.46395
2.46607
2.47057
2.4795
2.49669
2.5156
2.53161
2.54401
2.54963
2.54971
2.54826
2.54407
2.53327
2.51885
2.50096
2.4836
2.46487
2.44718
2.42809
2.40995
2.39008
2.37154
2.35093
2.33237
2.31149
2.29319
2.27274
2.25487
2.23563
2.2186
2.2014
2.18616
2.17224
2.15936
2.14748
2.13718
2.12958
2.12474
2.12428
2.12547
2.13015
2.13832
2.15597
2.16838
2.20805
4.19921
4.12985
3.96692
3.76351
3.58816
3.43147
3.28683
3.14724
3.01628
2.8893
2.76906
2.65502
2.54948
2.45065
2.36413
2.28776
2.25755
2.25643
2.2763
2.34557
2.50203
2.85336
3.06489
3.10951
3.11101
3.09692
3.03049
2.98705
2.99176
3.01379
3.06704
3.18665
3.40264
3.6336
3.7545
3.75581
3.73288
3.67033
3.55141
3.42927
3.31101
3.2036
3.1092
3.02575
2.94862
2.87744
2.81135
2.751
2.69505
2.64428
2.59787
2.55749
2.52348
2.49491
2.46976
2.45163
2.44087
2.44241
2.44459
2.44981
2.46099
2.47799
2.49534
2.50891
2.51824
2.51949
2.51876
2.51587
2.50931
2.49427
2.47834
2.45994
2.44283
2.42364
2.40665
2.38721
2.37009
2.35048
2.33302
2.31371
2.29624
2.27788
2.26108
2.24444
2.22937
2.2158
2.20396
2.19259
2.18306
2.17534
2.1715
2.17085
2.17266
2.17706
2.1888
2.20356
2.22236
2.24528
2.25889
2.2969
4.17359
4.14074
4.05104
3.85159
3.66711
3.50605
3.35859
3.22143
3.08872
2.96472
2.84507
2.73286
2.62799
2.53568
2.45414
2.41774
2.41519
2.43436
2.50518
2.67281
3.0388
3.25538
3.28748
3.28769
3.26172
3.17655
3.09558
3.03057
3.0116
3.01662
3.03598
3.07985
3.16935
3.3408
3.55093
3.68213
3.6991
3.69183
3.65352
3.55959
3.44128
3.3197
3.21325
3.11758
3.03073
2.95095
2.87896
2.81207
2.75086
2.69293
2.64082
2.59277
2.55066
2.51384
2.48276
2.45505
2.43295
2.41958
2.41462
2.41593
2.4192
2.42622
2.44013
2.45709
2.47145
2.48312
2.48753
2.48713
2.48518
2.48
2.46968
2.45329
2.43727
2.4185
2.40195
2.3836
2.36717
2.34943
2.33296
2.31589
2.2998
2.28399
2.2695
2.25624
2.24547
2.23508
2.22668
2.2192
2.21688
2.21638
2.21841
2.22354
2.23805
2.25324
2.27381
2.29533
2.31448
2.33553
2.34269
2.3644
4.12105
4.11614
4.07286
3.95879
3.76106
3.58689
3.43435
3.29464
3.16373
3.03889
2.92202
2.81214
2.71402
2.62762
2.58737
2.58364
2.60271
2.67712
2.85333
3.23229
3.45906
3.48168
3.4788
3.44532
3.34492
3.2474
3.17122
3.10692
3.06251
3.03947
3.0441
3.05551
3.08558
3.14595
3.28058
3.44974
3.58832
3.64595
3.64528
3.62016
3.55218
3.44241
3.33276
3.22363
3.12283
3.03259
2.95198
2.87854
2.80963
2.74651
2.68745
2.63443
2.58497
2.54128
2.50174
2.46888
2.43845
2.41374
2.39692
2.38643
2.38632
2.388
2.39211
2.40136
2.41612
2.43286
2.44429
2.45338
2.45338
2.45237
2.44928
2.44201
2.42883
2.41261
2.39661
2.37972
2.36395
2.34818
2.33332
2.31887
2.30552
2.2932
2.28338
2.27477
2.26751
2.26098
2.25996
2.26039
2.26309
2.26943
2.28572
2.30323
2.32433
2.34762
2.36685
2.38669
2.3962
2.40514
2.40367
2.40533
3.89815
4.08789
4.07113
4.00871
3.85802
3.67342
3.51302
3.37021
3.23908
3.11608
3.00116
2.89857
2.80798
2.76674
2.76206
2.78125
2.86236
3.05392
3.4588
3.68546
3.69361
3.68623
3.64327
3.5286
3.42233
3.33184
3.26106
3.19645
3.14214
3.09948
3.06591
3.06128
3.06429
3.08087
3.12107
3.20542
3.34629
3.48858
3.57696
3.57839
3.56695
3.53124
3.446
3.33769
3.22573
3.12556
3.03443
2.95119
2.87392
2.80398
2.73953
2.68046
2.62539
2.57481
2.5291
2.48803
2.4532
2.42046
2.39341