/*--------------------------------*- C++ -*----------------------------------*\
  =========                 |
  \\      /  F ield         | OpenFOAM: The Open Source CFD Toolbox
   \\    /   O peration     | Website:  https://openfoam.org
    \\  /    A nd           | Version:  13
     \\/     M anipulation  |
\*---------------------------------------------------------------------------*/
FoamFile
{
    format      ascii;
    class       volVectorField;
    location    "4";
    object      U;
}
// * * * * * * * * * * * * * * * * * * * * * * * * * * * * * * * * * * * * * //

dimensions      [0 1 -1 0 0 0 0];

internalField   nonuniform List<vector> 
5250
(
(3 -2.411e-09 0)
(2.99999 1.26286e-07 0)
(2.99996 4.43954e-08 0)
(2.99991 1.24197e-06 0)
(2.99978 4.16035e-07 0)
(2.99946 7.89637e-06 0)
(2.99866 2.89934e-06 0)
(2.99671 4.70532e-05 0)
(2.99183 3.50404e-05 0)
(2.97964 0.000247056 0)
(2.94796 0.000385678 0)
(2.86129 0.00132035 0)
(2.61004 0.00334629 0)
(1.87343 0.00978819 0)
(0.870249 0.0265242 0)
(0.442644 0.0244139 0)
(0.534961 0.0244847 0)
(0.560055 0.0263392 0)
(0.505269 0.0282099 0)
(0.414412 0.0301042 0)
(0.329581 0.0323302 0)
(0.260989 0.0348855 0)
(0.191832 0.0375056 0)
(0.114477 0.0404689 0)
(0.0498292 0.0444707 0)
(3 3.60178e-08 0)
(2.99999 2.45575e-07 0)
(2.99997 7.95643e-07 0)
(2.99991 2.41032e-06 0)
(2.99979 5.9825e-06 0)
(2.99946 1.57413e-05 0)
(2.99869 3.69458e-05 0)
(2.99673 9.77515e-05 0)
(2.992 0.000226739 0)
(2.97993 0.000596071 0)
(2.94886 0.00144762 0)
(2.86372 0.00385418 0)
(2.61707 0.0105471 0)
(1.89202 0.030328 0)
(0.880846 0.0808911 0)
(0.439217 0.0705209 0)
(0.534941 0.0674388 0)
(0.56125 0.0704306 0)
(0.506181 0.0734841 0)
(0.415375 0.0766865 0)
(0.330548 0.0802284 0)
(0.261388 0.0840241 0)
(0.191223 0.0874214 0)
(0.112533 0.0905437 0)
(0.047227 0.0932434 0)
(3 6.78267e-08 0)
(2.99999 3.98997e-07 0)
(2.99997 1.38577e-06 0)
(2.99992 3.91333e-06 0)
(2.99979 1.03978e-05 0)
(2.99949 2.50995e-05 0)
(2.99873 6.80406e-05 0)
(2.99687 0.000149476 0)
(2.99224 0.000421474 0)
(2.98066 0.000932936 0)
(2.95067 0.00253544 0)
(2.86887 0.00637829 0)
(2.63217 0.0178826 0)
(1.93364 0.0513187 0)
(0.906476 0.138812 0)
(0.436655 0.119853 0)
(0.538903 0.113343 0)
(0.567973 0.118512 0)
(0.512766 0.124286 0)
(0.422272 0.13095 0)
(0.337425 0.137655 0)
(0.267458 0.144582 0)
(0.195878 0.151066 0)
(0.115225 0.156699 0)
(0.0475147 0.160133 0)
(3 9.03665e-08 0)
(2.99999 5.23542e-07 0)
(2.99997 1.84683e-06 0)
(2.99992 5.13402e-06 0)
(2.9998 1.36937e-05 0)
(2.99951 3.35984e-05 0)
(2.9988 8.87959e-05 0)
(2.99703 0.000204498 0)
(2.99265 0.00055365 0)
(2.98169 0.00128151 0)
(2.95342 0.00341117 0)
(2.87646 0.00868311 0)
(2.65498 0.0242493 0)
(1.99711 0.0698855 0)
(0.94772 0.192734 0)
(0.437037 0.168563 0)
(0.547903 0.15875 0)
(0.581235 0.165908 0)
(0.526134 0.174553 0)
(0.436017 0.185285 0)
(0.350703 0.195657 0)
(0.279555 0.206293 0)
(0.206038 0.216653 0)
(0.122143 0.225591 0)
(0.0500699 0.230233 0)
(3 1.11763e-07 0)
(2.99999 5.70148e-07 0)
(2.99997 2.36702e-06 0)
(2.99993 5.56989e-06 0)
(2.99981 1.74092e-05 0)
(2.99955 3.80359e-05 0)
(2.99887 0.000107973 0)
(2.99725 0.000244536 0)
(2.99314 0.000652368 0)
(2.98304 0.00156194 0)
(2.95686 0.00405535 0)
(2.88623 0.01046 0)
(2.68375 0.029 0)
(2.08079 0.0840299 0)
(1.00588 0.23842 0)
(0.446276 0.218615 0)
(0.563845 0.206638 0)
(0.601939 0.214365 0)
(0.547193 0.22491 0)
(0.457492 0.239496 0)
(0.371053 0.253811 0)
(0.298157 0.2687 0)
(0.221908 0.283755 0)
(0.133259 0.297143 0)
(0.0547214 0.304042 0)
(3 9.18065e-08 0)
(2.99999 6.95236e-07 0)
(2.99997 2.1545e-06 0)
(2.99993 6.79459e-06 0)
(2.99983 1.61638e-05 0)
(2.99959 4.56218e-05 0)
(2.99897 0.000101554 0)
(2.99748 0.000287505 0)
(2.99375 0.000634151 0)
(2.98453 0.00175529 0)
(2.96082 0.00414993 0)
(2.89738 0.0111904 0)
(2.71671 0.0303416 0)
(2.1809 0.0881585 0)
(1.08829 0.257438 0)
(0.479866 0.263314 0)
(0.592429 0.257092 0)
(0.632693 0.265152 0)
(0.578288 0.276871 0)
(0.489014 0.295012 0)
(0.400674 0.31391 0)
(0.325137 0.334009 0)
(0.245273 0.355163 0)
(0.150211 0.375115 0)
(0.0624496 0.38671 0)
(3 9.72735e-08 0)
(2.99999 6.52199e-07 0)
(2.99998 2.16436e-06 0)
(2.99994 6.3762e-06 0)
(2.99985 1.62288e-05 0)
(2.99962 4.22604e-05 0)
(2.99907 0.000103066 0)
(2.9977 0.000259706 0)
(2.99437 0.000631519 0)
(2.98597 0.00158466 0)
(2.96472 0.00392804 0)
(2.90814 0.0101572 0)
(2.74834 0.0274309 0)
(2.27758 0.0782305 0)
(1.18746 0.231534 0)
(0.528754 0.296371 0)
(0.62469 0.309713 0)
(0.664879 0.31738 0)
(0.613591 0.329907 0)
(0.527635 0.352026 0)
(0.438845 0.37667 0)
(0.361162 0.40339 0)
(0.277786 0.432642 0)
(0.175386 0.462592 0)
(0.0750774 0.483907 0)
(3 1.01801e-07 0)
(2.99999 5.75342e-07 0)
(2.99998 2.15045e-06 0)
(2.99994 5.60661e-06 0)
(2.99986 1.5936e-05 0)
(2.99966 3.70432e-05 0)
(2.99915 0.000100634 0)
(2.99792 0.000225552 0)
(2.99485 0.00060642 0)
(2.98728 0.00138897 0)
(2.96797 0.00362184 0)
(2.91697 0.00897943 0)
(2.7734 0.0241872 0)
(2.35028 0.067539 0)
(1.2904 0.199337 0)
(0.575114 0.337034 0)
(0.639454 0.370717 0)
(0.679266 0.369183 0)
(0.640696 0.381888 0)
(0.565475 0.408365 0)
(0.481188 0.440785 0)
(0.404748 0.476379 0)
(0.320772 0.516791 0)
(0.212748 0.562303 0)
(0.0963725 0.604682 0)
(3 9.38894e-08 0)
(2.99999 5.72675e-07 0)
(2.99998 2.00224e-06 0)
(2.99995 5.59881e-06 0)
(2.99987 1.48236e-05 0)
(2.99969 3.69592e-05 0)
(2.99923 9.33038e-05 0)
(2.99812 0.000226909 0)
(2.99534 0.000570567 0)
(2.98848 0.00138215 0)
(2.97105 0.00348701 0)
(2.92525 0.00878094 0)
(2.79686 0.023389 0)
(2.41998 0.0652596 0)
(1.42023 0.19237 0)
(0.655666 0.386734 0)
(0.647364 0.41924 0)
(0.677645 0.415402 0)
(0.660902 0.431961 0)
(0.60175 0.461657 0)
(0.526955 0.503397 0)
(0.455978 0.550418 0)
(0.376895 0.60536 0)
(0.270814 0.67661 0)
(0.134939 0.76407 0)
(3 8.63648e-08 0)
(2.99999 6.19979e-07 0)
(2.99998 1.90245e-06 0)
(2.99995 6.03729e-06 0)
(2.99989 1.41696e-05 0)
(2.99972 3.93356e-05 0)
(2.99931 9.04248e-05 0)
(2.99832 0.00023971 0)
(2.99581 0.000562799 0)
(2.9897 0.00144135 0)
(2.97414 0.00350022 0)
(2.93352 0.00900155 0)
(2.8204 0.0236146 0)
(2.48995 0.0660094 0)
(1.57404 0.193053 0)
(0.756488 0.434966 0)
(0.654634 0.451554 0)
(0.682788 0.453744 0)
(0.680894 0.476806 0)
(0.637699 0.510738 0)
(0.577484 0.560987 0)
(0.516557 0.620215 0)
(0.452559 0.696708 0)
(0.366894 0.81322 0)
(0.20766 1.02392 0)
(3 9.06804e-08 0)
(2.99999 6.2382e-07 0)
(2.99998 2.01919e-06 0)
(2.99996 6.07611e-06 0)
(2.9999 1.49611e-05 0)
(2.99975 4.02917e-05 0)
(2.9994 9.39901e-05 0)
(2.99851 0.000249118 0)
(2.99634 0.000577027 0)
(2.99093 0.00151462 0)
(2.97736 0.00359609 0)
(2.94196 0.0093671 0)
(2.84447 0.0242681 0)
(2.56084 0.0678742 0)
(1.74897 0.196771 0)
(0.875903 0.483332 0)
(0.663954 0.48578 0)
(0.695139 0.488418 0)
(0.706213 0.513349 0)
(0.676944 0.553309 0)
(0.633049 0.609302 0)
(0.59109 0.680069 0)
(0.561881 0.777131 0)
(0.561624 0.92542 0)
(0.603636 1.17602 0)
(3 1.03311e-07 0)
(2.99999 5.87147e-07 0)
(2.99999 2.21793e-06 0)
(2.99997 5.75698e-06 0)
(2.99991 1.64236e-05 0)
(2.99979 3.87944e-05 0)
(2.99948 0.00010286 0)
(2.99872 0.000242522 0)
(2.99687 0.000622604 0)
(2.99222 0.00150451 0)
(2.98068 0.00379825 0)
(2.95076 0.00950979 0)
(2.86917 0.0249939 0)
(2.63415 0.0690655 0)
(1.94483 0.200087 0)
(1.01805 0.526384 0)
(0.684141 0.523975 0)
(0.716418 0.524689 0)
(0.738678 0.544645 0)
(0.72207 0.588221 0)
(0.694272 0.64779 0)
(0.675279 0.726299 0)
(0.68263 0.832303 0)
(0.745634 0.978326 0)
(0.901018 1.1701 0)
(3 9.14681e-08 0)
(3 6.0467e-07 0)
(2.99999 2.00566e-06 0)
(2.99997 5.9244e-06 0)
(2.99993 1.5054e-05 0)
(2.99983 3.9279e-05 0)
(2.99957 9.6003e-05 0)
(2.99894 0.000243409 0)
(2.99739 0.000594487 0)
(2.99357 0.00149313 0)
(2.98403 0.00369578 0)
(2.95966 0.00938079 0)
(2.89412 0.0243711 0)
(2.70787 0.0670814 0)
(2.15704 0.194312 0)
(1.19159 0.544169 0)
(0.735715 0.566191 0)
(0.754877 0.571079 0)
(0.781606 0.578548 0)
(0.776369 0.618674 0)
(0.761339 0.678654 0)
(0.762378 0.757197 0)
(0.795732 0.858022 0)
(0.885908 0.980506 0)
(1.06423 1.10157 0)
(3 7.78595e-08 0)
(3 5.40896e-07 0)
(2.99999 1.71708e-06 0)
(2.99998 5.28444e-06 0)
(2.99994 1.28247e-05 0)
(2.99986 3.48741e-05 0)
(2.99965 8.13821e-05 0)
(2.99914 0.000214747 0)
(2.99791 0.000504807 0)
(2.9948 0.00130214 0)
(2.98726 0.00313786 0)
(2.96799 0.00800839 0)
(2.91743 0.0203743 0)
(2.77679 0.0551705 0)
(2.36726 0.157435 0)
(1.41163 0.465368 0)
(0.837168 0.589741 0)
(0.814828 0.614455 0)
(0.832673 0.620634 0)
(0.839334 0.65061 0)
(0.83337 0.704495 0)
(0.845875 0.775582 0)
(0.892862 0.861602 0)
(0.989385 0.956739 0)
(1.15832 1.03427 0)
(3 7.35289e-08 0)
(3 4.24662e-07 0)
(2.99999 1.55181e-06 0)
(2.99998 4.13292e-06 0)
(2.99995 1.14433e-05 0)
(2.99988 2.72308e-05 0)
(2.99972 7.18778e-05 0)
(2.9993 0.000166264 0)
(2.9983 0.00043545 0)
(2.99577 0.0010078 0)
(2.98962 0.00260681 0)
(2.974 0.0062126 0)
(2.93344 0.0160274 0)
(2.82125 0.041654 0)
(2.49677 0.115858 0)
(1.62738 0.34451 0)
(0.93552 0.623914 0)
(0.855828 0.656293 0)
(0.872263 0.668136 0)
(0.89224 0.68489 0)
(0.899981 0.72758 0)
(0.920974 0.787051 0)
(0.973506 0.856307 0)
(1.06766 0.927834 0)
(1.21868 0.981079 0)
(3 6.28474e-08 0)
(3 3.67002e-07 0)
(2.99999 1.34578e-06 0)
(2.99998 3.58037e-06 0)
(2.99996 9.91623e-06 0)
(2.99991 2.38151e-05 0)
(2.99977 6.18423e-05 0)
(2.99944 0.000146862 0)
(2.99861 0.000372905 0)
(2.99661 0.000895853 0)
(2.99159 0.00224159 0)
(2.97916 0.00549657 0)
(2.94685 0.0138928 0)
(2.8588 0.0361299 0)
(2.60544 0.09955 0)
(1.88183 0.290216 0)
(1.08564 0.665785 0)
(0.886154 0.691913 0)
(0.899286 0.704503 0)
(0.930215 0.712692 0)
(0.955649 0.745619 0)
(0.985338 0.794258 0)
(1.03995 0.849235 0)
(1.12871 0.902789 0)
(1.26123 0.940852 0)
(3 5.20732e-08 0)
(3 3.35272e-07 0)
(3 1.13279e-06 0)
(2.99999 3.28116e-06 0)
(2.99997 8.4275e-06 0)
(2.99993 2.16795e-05 0)
(2.99982 5.32365e-05 0)
(2.99956 0.000133274 0)
(2.99892 0.000326928 0)
(2.99732 0.000811094 0)
(2.99345 0.00200433 0)
(2.98371 0.00497795 0)
(2.95893 0.0125408 0)
(2.89239 0.0325183 0)
(2.70333 0.0891825 0)
(2.14745 0.257908 0)
(1.28117 0.680094 0)
(0.937184 0.723849 0)
(0.934047 0.732806 0)
(0.966507 0.736425 0)
(1.00511 0.758142 0)
(1.04158 0.797459 0)
(1.09594 0.841846 0)
(1.17805 0.882765 0)
(1.29385 0.910592 0)
(3 4.44167e-08 0)
(3 2.74368e-07 0)
(3 9.50762e-07 0)
(2.99999 2.68071e-06 0)
(2.99998 7.06538e-06 0)
(2.99994 1.76146e-05 0)
(2.99986 4.47556e-05 0)
(2.99967 0.000107631 0)
(2.99918 0.000273972 0)
(2.99801 0.000651669 0)
(2.99507 0.0016655 0)
(2.98794 0.00399991 0)
(2.96982 0.0101964 0)
(2.92265 0.0258321 0)
(2.79273 0.0697656 0)
(2.41621 0.198825 0)
(1.55129 0.575826 0)
(1.04804 0.731072 0)
(0.994156 0.755432 0)
(1.01209 0.764282 0)
(1.05366 0.773837 0)
(1.09498 0.801818 0)
(1.14667 0.836401 0)
(1.22066 0.867749 0)
(1.32146 0.888173 0)
(3 3.27239e-08 0)
(3 2.20927e-07 0)
(3 7.22785e-07 0)
(2.99999 2.1481e-06 0)
(2.99998 5.35413e-06 0)
(2.99996 1.40945e-05 0)
(2.9999 3.35e-05 0)
(2.99975 8.57158e-05 0)
(2.99937 0.000202777 0)
(2.99848 0.00051236 0)
(2.99624 0.00122307 0)
(2.99082 0.00305731 0)
(2.97712 0.00745136 0)
(2.94189 0.0187996 0)
(2.84576 0.0488751 0)
(2.57076 0.134474 0)
(1.82235 0.399926 0)
(1.16864 0.736438 0)
(1.04294 0.776272 0)
(1.0507 0.793514 0)
(1.09194 0.79581 0)
(1.14011 0.810767 0)
(1.1912 0.835141 0)
(1.25818 0.858256 0)
(1.34627 0.872738 0)
(3 2.64308e-08 0)
(3 1.76138e-07 0)
(3 5.82006e-07 0)
(2.99999 1.71531e-06 0)
(2.99999 4.3238e-06 0)
(2.99997 1.13023e-05 0)
(2.99992 2.71556e-05 0)
(2.99981 6.9089e-05 0)
(2.99953 0.000165399 0)
(2.99886 0.000415217 0)
(2.99719 0.0010053 0)
(2.99313 0.00249977 0)
(2.98292 0.00614792 0)
(2.95698 0.0154265 0)
(2.88732 0.0398804 0)
(2.68988 0.108656 0)
(2.11551 0.316549 0)
(1.35033 0.75565 0)
(1.0926 0.808106 0)
(1.08586 0.820662 0)
(1.12153 0.819274 0)
(1.17569 0.821257 0)
(1.22929 0.836303 0)
(1.29129 0.852728 0)
(1.36904 0.862617 0)
(3 2.16588e-08 0)
(3 1.33041e-07 0)
(3 4.6757e-07 0)
(3 1.29795e-06 0)
(2.99999 3.45751e-06 0)
(2.99998 8.61088e-06 0)
(2.99994 2.16221e-05 0)
(2.99986 5.29704e-05 0)
(2.99966 0.000130905 0)
(2.99918 0.000320841 0)
(2.99798 0.000790225 0)
(2.99511 0.00194776 0)
(2.98789 0.00480932 0)
(2.96997 0.0119852 0)
(2.92309 0.0306847 0)
(2.79474 0.0822523 0)
(2.4222 0.235356 0)
(1.62759 0.651819 0)
(1.19783 0.809953 0)
(1.14199 0.835253 0)
(1.15894 0.841614 0)
(1.20939 0.836174 0)
(1.26522 0.84108 0)
(1.32282 0.850745 0)
(1.3915 0.856564 0)
(3 1.5857e-08 0)
(3 1.01842e-07 0)
(3 3.47304e-07 0)
(3 9.89696e-07 0)
(2.99999 2.56407e-06 0)
(2.99998 6.50475e-06 0)
(2.99996 1.59416e-05 0)
(2.9999 3.97135e-05 0)
(2.99976 9.55902e-05 0)
(2.99941 0.000238665 0)
(2.99854 0.000569964 0)
(2.99648 0.00142527 0)
(2.99128 0.00342933 0)
(2.97854 0.00854623 0)
(2.9456 0.0212649 0)
(2.85689 0.0554112 0)
(2.60492 0.152157 0)
(1.92618 0.448275 0)
(1.32868 0.797187 0)
(1.19519 0.845768 0)
(1.19581 0.864486 0)
(1.23737 0.859203 0)
(1.29497 0.851989 0)
(1.35132 0.853127 0)
(1.41349 0.854635 0)
(3 1.18224e-08 0)
(3 7.68742e-08 0)
(3 2.60416e-07 0)
(3 7.46964e-07 0)
(3 1.92723e-06 0)
(2.99999 4.91179e-06 0)
(2.99997 1.20029e-05 0)
(2.99993 3.0082e-05 0)
(2.99983 7.20775e-05 0)
(2.99958 0.000181295 0)
(2.99897 0.000431197 0)
(2.99749 0.00108688 0)
(2.99382 0.00260115 0)
(2.98481 0.00653699 0)
(2.96191 0.0160732 0)
(2.90127 0.0415587 0)
(2.73215 0.111657 0)
(2.23952 0.324703 0)
(1.53137 0.771722 0)
(1.26137 0.863509 0)
(1.23721 0.882919 0)
(1.26129 0.882006 0)
(1.31563 0.868401 0)
(1.37491 0.860997 0)
(1.43419 0.857506 0)
(3 9.1515e-09 0)
(3 5.50401e-08 0)
(3 1.97103e-07 0)
(3 5.35978e-07 0)
(3 1.45225e-06 0)
(2.99999 3.54407e-06 0)
(2.99998 9.0195e-06 0)
(2.99995 2.17147e-05 0)
(2.99988 5.39939e-05 0)
(2.99971 0.000131362 0)
(2.9993 0.000321322 0)
(2.99828 0.000791841 0)
(2.99582 0.00191941 0)
(2.98976 0.00478696 0)
(2.97471 0.011713 0)
(2.9359 0.029908 0)
(2.83147 0.0787073 0)
(2.53012 0.222971 0)
(1.82953 0.620228 0)
(1.37996 0.854604 0)
(1.29459 0.887906 0)
(1.29746 0.898821 0)
(1.33927 0.887104 0)
(1.39689 0.871958 0)
(1.45398 0.863546 0)
(3 6.63937e-09 0)
(3 3.94894e-08 0)
(3 1.41585e-07 0)
(3 3.83701e-07 0)
(3 1.04054e-06 0)
(2.99999 2.52034e-06 0)
(2.99999 6.46357e-06 0)
(2.99997 1.53166e-05 0)
(2.99992 3.87043e-05 0)
(2.9998 9.18147e-05 0)
(2.99952 0.000229712 0)
(2.99882 0.00054931 0)
(2.99715 0.00136228 0)
(2.99298 0.00329871 0)
(2.98279 0.00816323 0)
(2.95681 0.0202113 0)
(2.88798 0.0521125 0)
(2.69544 0.140897 0)
(2.15373 0.41157 0)
(1.54381 0.83387 0)
(1.35137 0.900828 0)
(1.33466 0.914129 0)
(1.35972 0.906606 0)
(1.41377 0.886403 0)
(1.47194 0.871805 0)
(3 4.43073e-09 0)
(3 2.87958e-08 0)
(3 9.63568e-08 0)
(3 2.79739e-07 0)
(3 7.0921e-07 0)
(3 1.82973e-06 0)
(2.99999 4.40929e-06 0)
(2.99998 1.10754e-05 0)
(2.99995 2.65599e-05 0)
(2.99987 6.58352e-05 0)
(2.99968 0.000158739 0)
(2.99923 0.000390325 0)
(2.99811 0.000950312 0)
(2.99542 0.00232108 0)
(2.98878 0.00570812 0)
(2.97236 0.0140843 0)
(2.92992 0.0356995 0)
(2.8158 0.0944778 0)
(2.48504 0.270183 0)
(1.81847 0.696948 0)
(1.45283 0.882483 0)
(1.38779 0.91327 0)
(1.39167 0.920271 0)
(1.43322 0.904034 0)
(1.48939 0.881603 0)
(3 2.99519e-09 0)
(3 1.97266e-08 0)
(3 6.59499e-08 0)
(3 1.91125e-07 0)
(3 4.85471e-07 0)
(3 1.24989e-06 0)
(2.99999 2.99575e-06 0)
(2.99999 7.57769e-06 0)
(2.99996 1.78689e-05 0)
(2.99991 4.50157e-05 0)
(2.99979 0.000106003 0)
(2.99948 0.000265407 0)
(2.99876 0.000629937 0)
(2.99694 0.00156402 0)
(2.99259 0.00375608 0)
(2.98173 0.00930738 0)
(2.95438 0.0229447 0)
(2.88184 0.0591896 0)
(2.67862 0.160586 0)
(2.13205 0.459652 0)
(1.5946 0.847743 0)
(1.44208 0.915049 0)
(1.42671 0.930084 0)
(1.45027 0.922335 0)
(1.50144 0.897224 0)
(3 2.11486e-09 0)
(3 1.32665e-08 0)
(3 4.54601e-08 0)
(3 1.28778e-07 0)
(3 3.34688e-07 0)
(3 8.3783e-07 0)
(3 2.08219e-06 0)
(2.99999 5.03497e-06 0)
(2.99998 1.24702e-05 0)
(2.99994 2.98066e-05 0)
(2.99986 7.40704e-05 0)
(2.99966 0.000176009 0)
(2.99919 0.000438758 0)
(2.99803 0.00104321 0)
(2.99523 0.0026009 0)
(2.98832 0.00624901 0)
(2.97123 0.0156094 0)
(2.92701 0.039176 0)
(2.8079 0.103827 0)
(2.46378 0.296118 0)
(1.84496 0.726943 0)
(1.52934 0.898586 0)
(1.47265 0.929722 0)
(1.4765 0.936213 0)
(1.51548 0.918253 0)
(3 1.4299e-09 0)
(3 8.85726e-09 0)
(3 3.07221e-08 0)
(3 8.58512e-08 0)
(3 2.25737e-07 0)
(3 5.58911e-07 0)
(3 1.39892e-06 0)
(2.99999 3.36092e-06 0)
(2.99998 8.32925e-06 0)
(2.99996 1.99261e-05 0)
(2.99991 4.90993e-05 0)
(2.99979 0.000117841 0)
(2.99948 0.000288495 0)
(2.99874 0.000697439 0)
(2.99693 0.00169948 0)
(2.99256 0.0041422 0)
(2.98172 0.0101316 0)
(2.95444 0.0252194 0)
(2.88259 0.0647346 0)
(2.68078 0.176837 0)
(2.15682 0.496857 0)
(1.66812 0.862246 0)
(1.52694 0.930993 0)
(1.50941 0.945906 0)
(1.52866 0.938183 0)
(3 9.6391e-10 0)
(3 5.77763e-09 0)
(3 2.0631e-08 0)
(3 5.59365e-08 0)
(3 1.50956e-07 0)
(3 3.65083e-07 0)
(3 9.30388e-07 0)
(3 2.20443e-06 0)
(2.99999 5.51097e-06 0)
(2.99998 1.30904e-05 0)
(2.99994 3.23434e-05 0)
(2.99986 7.74995e-05 0)
(2.99968 0.000189165 0)
(2.9992 0.000458994 0)
(2.9981 0.0011085 0)
(2.99534 0.00271998 0)
(2.98875 0.00656843 0)
(2.97222 0.0162938 0)
(2.93009 0.0407977 0)
(2.81694 0.107793 0)
(2.49251 0.306283 0)
(1.91568 0.72964 0)
(1.61409 0.90872 0)
(1.55433 0.942599 0)
(1.55358 0.949651 0)
(3 6.02889e-10 0)
(3 3.83353e-09 0)
(3 1.30209e-08 0)
(3 3.71038e-08 0)
(3 9.55655e-08 0)
(3 2.40765e-07 0)
(3 5.90235e-07 0)
(3 1.44238e-06 0)
(2.99999 3.51611e-06 0)
(2.99999 8.47393e-06 0)
(2.99997 2.07628e-05 0)
(2.99992 4.96306e-05 0)
(2.9998 0.000122203 0)
(2.99951 0.000290796 0)
(2.99881 0.000718391 0)
(2.99711 0.00171131 0)
(2.99302 0.00423142 0)
(2.98287 0.0102119 0)
(2.95755 0.0254663 0)
(2.89123 0.0648819 0)
(2.70622 0.176232 0)
(2.22681 0.488482 0)
(1.75656 0.864592 0)
(1.60849 0.940265 0)
(1.58594 0.956038 0)
(3 3.79688e-10 0)
(3 2.45143e-09 0)
(3 8.28094e-09 0)
(3 2.37214e-08 0)
(3 6.07292e-08 0)
(3 1.54217e-07 0)
(3 3.73271e-07 0)
(3 9.24376e-07 0)
(3 2.21213e-06 0)
(2.99999 5.43369e-06 0)
(2.99998 1.30088e-05 0)
(2.99995 3.17958e-05 0)
(2.99988 7.6396e-05 0)
(2.9997 0.000185746 0)
(2.99928 0.000448695 0)
(2.99827 0.00108726 0)
(2.99583 0.00264102 0)
(2.98988 0.0064196 0)
(2.97531 0.0157437 0)
(2.9383 0.0394523 0)
(2.84062 0.103078 0)
(2.56217 0.290933 0)
(2.01796 0.700122 0)
(1.70316 0.903797 0)
(1.63402 0.946391 0)
(3 2.47844e-10 0)
(3 1.51721e-09 0)
(3 5.28729e-09 0)
(3 1.46723e-08 0)
(3 3.86317e-08 0)
(3 9.48359e-08 0)
(3 2.377e-07 0)
(3 5.64646e-07 0)
(3 1.40398e-06 0)
(2.99999 3.3073e-06 0)
(2.99999 8.19834e-06 0)
(2.99997 1.93061e-05 0)
(2.99992 4.76323e-05 0)
(2.99982 0.000112805 0)
(2.99956 0.000275967 0)
(2.99893 0.000658844 0)
(2.99746 0.00160017 0)
(2.99378 0.00385981 0)
(2.98497 0.00936839 0)
(2.96276 0.022999 0)
(2.9055 0.058028 0)
(2.74828 0.15483 0)
(2.32861 0.426999 0)
(1.8571 0.825587 0)
(1.68924 0.929901 0)
(3 1.46814e-10 0)
(3 9.66643e-10 0)
(3 3.19994e-09 0)
(3 9.33495e-09 0)
(3 2.34251e-08 0)
(3 6.02608e-08 0)
(3 1.44049e-07 0)
(3 3.58569e-07 0)
(3 8.53247e-07 0)
(3 2.09055e-06 0)
(2.99999 5.00879e-06 0)
(2.99998 1.21155e-05 0)
(2.99995 2.93681e-05 0)
(2.99989 7.01531e-05 0)
(2.99974 0.000171986 0)
(2.99937 0.000406704 0)
(2.9985 0.00100706 0)
(2.99635 0.00237308 0)
(2.99123 0.00590251 0)
(2.97854 0.0141357 0)
(2.94681 0.0355853 0)
(2.86366 0.0913343 0)
(2.62794 0.253475 0)
(2.12772 0.638955 0)
(1.79294 0.890132 0)
(3 9.07887e-11 0)
(3 5.84818e-10 0)
(3 1.97873e-09 0)
(3 5.64306e-09 0)
(3 1.44636e-08 0)
(3 3.65185e-08 0)
(3 8.84498e-08 0)
(3 2.17661e-07 0)
(3 5.19826e-07 0)
(3 1.27026e-06 0)
(3 3.0314e-06 0)
(2.99999 7.37196e-06 0)
(2.99997 1.76294e-05 0)
(2.99994 4.26837e-05 0)
(2.99984 0.000102491 0)
(2.99963 0.000246939 0)
(2.9991 0.000596053 0)
(2.99785 0.00142969 0)
(2.99476 0.0034718 0)
(2.9874 0.00836833 0)
(2.969 0.0205071 0)
(2.92223 0.0513623 0)
(2.79582 0.135133 0)
(2.4503 0.375463 0)
(1.98128 0.776665 0)
(3 5.67201e-11 0)
(3 3.51716e-10 0)
(3 1.22215e-09 0)
(3 3.39642e-09 0)
(3 8.90385e-09 0)
(3 2.20042e-08 0)
(3 5.4256e-08 0)
(3 1.31318e-07 0)
(3 3.17477e-07 0)
(3 7.69311e-07 0)
(3 1.84038e-06 0)
(2.99999 4.4843e-06 0)
(2.99998 1.06461e-05 0)
(2.99996 2.60946e-05 0)
(2.99991 6.16447e-05 0)
(2.99978 0.000151538 0)
(2.99948 0.000357974 0)
(2.99874 0.000878896 0)
(2.99701 0.00208901 0)
(2.99271 0.00511933 0)
(2.98242 0.0123636 0)
(2.95654 0.0305992 0)
(2.88968 0.0780147 0)
(2.70331 0.211948 0)
(2.26686 0.553148 0)
(3 3.32307e-11 0)
(3 2.14046e-10 0)
(3 7.21696e-10 0)
(3 2.06355e-09 0)
(3 5.26217e-09 0)
(3 1.33081e-08 0)
(3 3.20757e-08 0)
(3 7.89669e-08 0)
(3 1.88165e-07 0)
(3 4.59078e-07 0)
(3 1.093e-06 0)
(3 2.6541e-06 0)
(2.99999 6.33789e-06 0)
(2.99998 1.53072e-05 0)
(2.99995 3.67184e-05 0)
(2.99988 8.82217e-05 0)
(2.9997 0.000212815 0)
(2.9993 0.000508244 0)
(2.9983 0.00123422 0)
(2.99596 0.00294365 0)
(2.99019 0.00717882 0)
(2.97634 0.0173755 0)
(2.94139 0.043264 0)
(2.84982 0.1123 0)
(2.59572 0.310787 0)
(3 2.02909e-11 0)
(3 1.23371e-10 0)
(3 4.34561e-10 0)
(3 1.18952e-09 0)
(3 3.1569e-09 0)
(3 7.67627e-09 0)
(3 1.9185e-08 0)
(3 4.54929e-08 0)
(3 1.11734e-07 0)
(3 2.64529e-07 0)
(3 6.43309e-07 0)
(3 1.53112e-06 0)
(2.99999 3.68802e-06 0)
(2.99999 8.84867e-06 0)
(2.99997 2.11156e-05 0)
(2.99993 5.10299e-05 0)
(2.99983 0.000120754 0)
(2.99959 0.000294042 0)
(2.99903 0.000691157 0)
(2.99766 0.00169002 0)
(2.99442 0.00398061 0)
(2.98645 0.00975062 0)
(2.96703 0.0234428 0)
(2.91729 0.0588993 0)
(2.78303 0.154856 0)
(3 1.1436e-11 0)
(3 7.38346e-11 0)
(3 2.47598e-10 0)
(3 7.11085e-10 0)
(3 1.80213e-09 0)
(3 4.56608e-09 0)
(3 1.09848e-08 0)
(3 2.69168e-08 0)
(3 6.4272e-08 0)
(3 1.55345e-07 0)
(3 3.72354e-07 0)
(3 8.91886e-07 0)
(3 2.14995e-06 0)
(2.99999 5.11205e-06 0)
(2.99998 1.24095e-05 0)
(2.99996 2.93113e-05 0)
(2.99991 7.1419e-05 0)
(2.99977 0.000168513 0)
(2.99946 0.000410595 0)
(2.9987 0.000971356 0)
(2.9969 0.00236234 0)
(2.99252 0.0056447 0)
(2.98199 0.013755 0)
(2.95573 0.0337118 0)
(2.88822 0.0857553 0)
(3 6.61858e-12 0)
(3 4.24551e-11 0)
(3 1.42629e-10 0)
(3 4.08585e-10 0)
(3 1.03653e-09 0)
(3 2.61505e-09 0)
(3 6.31474e-09 0)
(3 1.53578e-08 0)
(3 3.68739e-08 0)
(3 8.84113e-08 0)
(3 2.13315e-07 0)
(3 5.04989e-07 0)
(3 1.23021e-06 0)
(3 2.88701e-06 0)
(2.99999 7.06538e-06 0)
(2.99998 1.65182e-05 0)
(2.99995 4.04895e-05 0)
(2.99987 9.4772e-05 0)
(2.9997 0.000231268 0)
(2.99929 0.000544598 0)
(2.99832 0.00132252 0)
(2.99593 0.00313884 0)
(2.99034 0.00760696 0)
(2.97655 0.0183534 0)
(2.94247 0.045465 0)
(3 3.71208e-12 0)
(3 2.40735e-11 0)
(3 8.10769e-11 0)
(3 2.31214e-10 0)
(3 5.88358e-10 0)
(3 1.48407e-09 0)
(3 3.55312e-09 0)
(3 8.75129e-09 0)
(3 2.05808e-08 0)
(3 5.05027e-08 0)
(3 1.18028e-07 0)
(3 2.88777e-07 0)
(3 6.77086e-07 0)
(3 1.64484e-06 0)
(2.99999 3.87891e-06 0)
(2.99999 9.34691e-06 0)
(2.99997 2.22349e-05 0)
(2.99993 5.30218e-05 0)
(2.99983 0.000127248 0)
(2.99961 0.000300467 0)
(2.99906 0.000728227 0)
(2.99776 0.00170578 0)
(2.99464 0.00416211 0)
(2.98709 0.00981186 0)
(2.9687 0.024077 0)
(3 2.16035e-12 0)
(3 1.33005e-11 0)
(3 4.65435e-11 0)
(3 1.27807e-10 0)
(3 3.3716e-10 0)
(3 8.21069e-10 0)
(3 2.03169e-09 0)
(3 4.84774e-09 0)
(3 1.17009e-08 0)
(3 2.80372e-08 0)
(3 6.66544e-08 0)
(3 1.61317e-07 0)
(3 3.78755e-07 0)
(3 9.23856e-07 0)
(3 2.15784e-06 0)
(2.99999 5.27363e-06 0)
(2.99998 1.23109e-05 0)
(2.99996 3.00139e-05 0)
(2.99991 7.03905e-05 0)
(2.99979 0.000170502 0)
(2.99949 0.000403093 0)
(2.99879 0.000968566 0)
(2.99709 0.00231464 0)
(2.9931 0.00553842 0)
(2.98331 0.0134095 0)
(3 1.20302e-12 0)
(3 7.3279e-12 0)
(3 2.56728e-11 0)
(3 7.06139e-11 0)
(3 1.85454e-10 0)
(3 4.51389e-10 0)
(3 1.11998e-09 0)
(3 2.64326e-09 0)
(3 6.47447e-09 0)
(3 1.51391e-08 0)
(3 3.69594e-08 0)
(3 8.65011e-08 0)
(3 2.09625e-07 0)
(3 4.94135e-07 0)
(3 1.18739e-06 0)
(3 2.82372e-06 0)
(2.99999 6.71462e-06 0)
(2.99998 1.61215e-05 0)
(2.99995 3.79916e-05 0)
(2.99988 9.19728e-05 0)
(2.99973 0.000215168 0)
(2.99935 0.000523498 0)
(2.99845 0.0012234 0)
(2.99632 0.00298148 0)
(2.99121 0.00702436 0)
(3 6.24953e-13 0)
(3 4.03861e-12 0)
(3 1.34937e-11 0)
(3 3.87815e-11 0)
(3 9.72319e-11 0)
(3 2.46174e-10 0)
(3 5.85928e-10 0)
(3 1.43035e-09 0)
(3 3.38698e-09 0)
(3 8.11507e-09 0)
(3 1.93198e-08 0)
(3 4.57486e-08 0)
(3 1.09778e-07 0)
(3 2.57158e-07 0)
(3 6.21713e-07 0)
(3 1.44489e-06 0)
(3 3.50923e-06 0)
(2.99999 8.12702e-06 0)
(2.99997 1.97142e-05 0)
(2.99993 4.57322e-05 0)
(2.99985 0.000110424 0)
(2.99963 0.000257472 0)
(2.99914 0.000616089 0)
(2.99793 0.00145019 0)
(2.99511 0.00344621 0)
(3 3.24215e-13 0)
(3 2.07625e-12 0)
(3 6.93515e-12 0)
(3 1.97577e-11 0)
(3 5.02722e-11 0)
(3 1.25529e-10 0)
(3 3.00221e-10 0)
(3 7.2693e-10 0)
(3 1.71094e-09 0)
(3 4.09934e-09 0)
(3 9.62439e-09 0)
(3 2.28875e-08 0)
(3 5.38971e-08 0)
(3 1.27134e-07 0)
(3 3.00285e-07 0)
(3 7.04184e-07 0)
(3 1.6671e-06 0)
(2.99999 3.88242e-06 0)
(2.99998 9.20522e-06 0)
(2.99996 2.13445e-05 0)
(2.9999 5.04678e-05 0)
(2.99977 0.00011698 0)
(2.99945 0.000274654 0)
(2.99868 0.000637701 0)
(2.99683 0.00148792 0)
(3 1.5759e-13 0)
(3 9.85499e-13 0)
(3 3.47776e-12 0)
(3 9.55851e-12 0)
(3 2.50139e-11 0)
(3 6.03691e-11 0)
(3 1.47992e-10 0)
(3 3.46425e-10 0)
(3 8.30701e-10 0)
(3 1.92843e-09 0)
(3 4.57769e-09 0)
(3 1.06193e-08 0)
(3 2.50242e-08 0)
(3 5.79489e-08 0)
(3 1.35655e-07 0)
(3 3.1512e-07 0)
(3 7.29035e-07 0)
(2.99999 1.69534e-06 0)
(2.99999 3.89131e-06 0)
(2.99997 9.03395e-06 0)
(2.99993 2.05351e-05 0)
(2.99982 4.74204e-05 0)
(2.99957 0.000107292 0)
(2.99895 0.000244875 0)
(2.99746 0.000550532 0)
(3 7.34013e-14 0)
(3 5.20887e-13 0)
(3 1.60407e-12 0)
(3 4.8088e-12 0)
(3 1.1342e-11 0)
(3 2.95992e-11 0)
(3 6.64768e-11 0)
(3 1.66337e-10 0)
(3 3.70163e-10 0)
(3 9.01021e-10 0)
(3 2.02849e-09 0)
(3 4.78487e-09 0)
(3 1.10385e-08 0)
(3 2.507e-08 0)
(3 5.95913e-08 0)
(3 1.29447e-07 0)
(3 3.18946e-07 0)
(3 6.61603e-07 0)
(2.99999 1.67474e-06 0)
(2.99997 3.35422e-06 0)
(2.99993 8.61417e-06 0)
(2.99984 1.68484e-05 0)
(2.99961 4.31221e-05 0)
(2.99905 8.34669e-05 0)
(2.99766 0.000209248 0)
(3 3.94713e-14 0)
(3 2.10369e-13 0)
(3 7.2629e-13 0)
(3 1.87825e-12 0)
(3 5.39685e-12 0)
(3 1.18857e-11 0)
(3 3.15169e-11 0)
(3 6.66037e-11 0)
(3 1.70137e-10 0)
(3 3.62792e-10 0)
(3 8.87481e-10 0)
(3 1.95072e-09 0)
(3 4.53028e-09 0)
(3 1.04738e-08 0)
(3 2.25564e-08 0)
(3 5.55675e-08 0)
(3 1.1059e-07 0)
(3 2.90426e-07 0)
(2.99999 5.30044e-07 0)
(2.99998 1.4907e-06 0)
(2.99994 2.47404e-06 0)
(2.99985 7.46208e-06 0)
(2.99963 1.12901e-05 0)
(2.99908 3.58145e-05 0)
(2.99773 5.11998e-05 0)
(3 1.78564e-14 0)
(3 8.09451e-14 0)
(3 3.37187e-13 0)
(3 7.35762e-13 0)
(3 2.47368e-12 0)
(3 4.52209e-12 0)
(3 1.369e-11 0)
(3 2.44289e-11 0)
(3 7.26952e-11 0)
(3 1.29624e-10 0)
(3 3.7151e-10 0)
(3 6.99869e-10 0)
(3 1.81612e-09 0)
(3 3.79398e-09 0)
(3 8.5553e-09 0)
(3 2.08043e-08 0)
(3 3.78633e-08 0)
(3 1.12471e-07 0)
(2.99999 1.63334e-07 0)
(2.99998 5.91493e-07 0)
(2.99994 6.43554e-07 0)
(2.99985 3.05192e-06 0)
(2.99963 2.12255e-06 0)
(2.99908 1.52921e-05 0)
(2.99776 5.61191e-06 0)
(3 1.18923e-14 0)
(3 3.73771e-14 0)
(3 1.14857e-13 0)
(3 3.20091e-13 0)
(3 7.44226e-13 0)
(3 1.70093e-12 0)
(3 3.57929e-12 0)
(3 8.53414e-12 0)
(3 1.89354e-11 0)
(3 4.18379e-11 0)
(3 1.04703e-10 0)
(3 2.05412e-10 0)
(3 5.45717e-10 0)
(3 9.92816e-10 0)
(3 2.95727e-09 0)
(3 4.64332e-09 0)
(3 1.47922e-08 0)
(3 2.26696e-08 0)
(2.99999 7.49427e-08 0)
(2.99998 9.96523e-08 0)
(2.99994 3.72115e-07 0)
(2.99985 4.89012e-07 0)
(2.99964 1.53458e-06 0)
(2.99909 2.84604e-06 0)
(2.99777 6.04917e-06 0)
(1.27786 1.08117 0)
(1.68918 0.881275 0)
(1.87295 0.617566 0)
(1.90036 0.354507 0)
(1.85086 0.135374 0)
(1.75655 -0.00872764 0)
(1.65927 -0.0453385 0)
(1.60727 -0.0141066 0)
(1.59579 0.029075 0)
(1.59624 0.0499437 0)
(1.59372 0.0488698 0)
(1.58215 0.0401217 0)
(1.5501 0.0318545 0)
(1.47531 0.0293233 0)
(1.31042 0.0399932 0)
(0.965984 0.0763885 0)
(0.522073 0.150903 0)
(0.175444 0.165357 0)
(0.00160355 0.135576 0)
(-0.195569 0.0994493 0)
(-0.36256 0.0625776 0)
(-0.508281 0.0283972 0)
(-0.631244 0.00687726 0)
(-0.716292 -0.00223757 0)
(-0.771651 0.00298124 0)
(-0.813611 0.0108351 0)
(-0.852381 0.0160484 0)
(-0.887207 0.0183833 0)
(-0.910785 0.0154981 0)
(-0.923253 0.00934359 0)
(-0.927385 0.00251244 0)
(-0.91665 -0.00242445 0)
(-0.881886 -0.00715732 0)
(-0.820111 -0.0136751 0)
(-0.738538 -0.0206936 0)
(-0.646793 -0.0262673 0)
(-0.551065 -0.0309549 0)
(-0.456329 -0.0346215 0)
(-0.362339 -0.0387985 0)
(-0.273381 -0.0407094 0)
(-0.189402 -0.0412048 0)
(-0.109123 -0.0425371 0)
(-0.0369566 -0.04806 0)
(0.0491051 -0.0408852 0)
(0.113046 -0.0354093 0)
(0.177781 -0.0335244 0)
(0.237128 -0.0316499 0)
(0.292519 -0.0297832 0)
(0.343268 -0.0277055 0)
(0.391783 -0.0263504 0)
(0.44177 -0.0261832 0)
(0.491121 -0.0253222 0)
(0.537699 -0.0240536 0)
(0.581781 -0.0227027 0)
(0.624037 -0.0215604 0)
(0.664649 -0.0205 0)
(0.703853 -0.0195412 0)
(0.741677 -0.0185794 0)
(0.778289 -0.0176672 0)
(0.813727 -0.0167675 0)
(0.848113 -0.0159202 0)
(0.881479 -0.0150977 0)
(0.913912 -0.0143249 0)
(0.945443 -0.0135803 0)
(0.976138 -0.0128826 0)
(1.00602 -0.0122134 0)
(1.03513 -0.0115859 0)
(1.0635 -0.0109838 0)
(1.09116 -0.0104176 0)
(1.11814 -0.00987218 0)
(1.14448 -0.00935543 0)
(1.17019 -0.00885428 0)
(1.19532 -0.008375 0)
(1.21988 -0.00790625 0)
(1.2439 -0.00745393 0)
(1.26742 -0.00700779 0)
(1.29044 -0.00657513 0)
(1.31299 -0.00614671 0)
(1.33509 -0.00573139 0)
(1.35674 -0.00532147 0)
(1.37797 -0.00492577 0)
(1.39877 -0.00453726 0)
(1.41917 -0.00416335 0)
(1.43918 -0.00379627 0)
(1.4588 -0.00344286 0)
(1.47805 -0.00309664 0)
(1.49694 -0.00276092 0)
(1.51549 -0.0024316 0)
(1.5337 -0.00210948 0)
(1.55157 -0.00179158 0)
(1.56911 -0.00149555 0)
(1.58631 -0.0012239 0)
(1.60313 -0.000992492 0)
(1.61951 -0.000748403 0)
(1.6354 -0.000479429 0)
(1.65062 -0.0001815 0)
(1.66482 0.000162234 0)
(1.67747 0.000581051 0)
(1.68731 0.00113987 0)
(1.69415 0.00184309 0)
(1.37171 0.992556 0)
(1.68487 0.710033 0)
(1.85848 0.397626 0)
(1.94289 0.130245 0)
(1.99305 -0.0608794 0)
(2.02233 -0.161748 0)
(2.03069 -0.167802 0)
(2.02838 -0.126977 0)
(2.01262 -0.0763785 0)
(1.9856 -0.0353295 0)
(1.96307 -0.0105858 0)
(1.94757 -0.000713086 0)
(1.9258 0.00290991 0)
(1.87997 0.012465 0)
(1.77428 0.0385672 0)
(1.52775 0.102075 0)
(1.11937 0.227419 0)
(0.788859 0.25856 0)
(0.615049 0.236853 0)
(0.477997 0.222305 0)