/*--------------------------------*- C++ -*----------------------------------*\
  =========                 |
  \\      /  F ield         | OpenFOAM: The Open Source CFD Toolbox
   \\    /   O peration     | Website:  https://openfoam.org
    \\  /    A nd           | Version:  13
     \\/     M anipulation  |
\*---------------------------------------------------------------------------*/
FoamFile
{
    format      ascii;
    class       volScalarField;
    location    "37";
    object      p;
}
// * * * * * * * * * * * * * * * * * * * * * * * * * * * * * * * * * * * * * //

dimensions      [0 2 -2 0 0 0 0];

internalField   nonuniform List<scalar> 
918
(
0.611308
1.26414
0.0092284
0.61065
-0.00129844
1.23116
-0.445017
0.77517
0.591457
-0.0369253
0.0218288
0.586717
1.09193
0.858458
-1.07207
0.0551477
0.72575
-0.323896
0.59048
0.0342533
0.811446
0.59804
0.601071
0.591658
0.654453
0.83783
0.97309
0.0168528
-0.00641599
-0.00450296
0.0191359
-0.00433936
0.0146447
1.11479
1.16589
1.18858
0.559748
0.38501
-0.30621
-0.375668
-0.367179
-0.491682
0.767478
0.769253
-0.117478
0.77663
0.786018
0.578644
0.590819
0.591708
0.592798
0.591748
0.593142
0.467085
-0.0416874
-0.0740245
-0.0171835
-0.00594901
0.116115
0.0245415
0.024458
0.0261112
0.0286386
0.510635
0.58249
0.579705
0.591801
0.600145
1.20369
1.17559
1.20173
1.1155
1.13194
1.06989
1.04248
0.878617
0.900558
0.844405
0.83072
-1.51043
-2.47342
-0.475745
-0.221202
-0.00635756
0.0496354
0.062313
0.71682
0.715182
0.727164
0.739234
1.13829
-0.318782
-0.438872
0.5906
0.589396
0.597792
0.598488
0.594502
0.593596
0.0385754
0.0410679
0.02568
0.0317237
0.0328351
0.800739
0.7989
0.592199
0.589218
0.607497
0.628276
0.620217
0.34241
0.658384
0.67042
0.661154
0.825889
0.821932
0.829899
0.946698
0.910694
1.00999
1.03318
0.00426682
0.00024568
0.0399618
0.0250179
0.0359589
0.555688
0.548444
0.574663
0.563105
0.565537
0.300807
0.165918
0.470438
0.49556
-0.217889
-0.279267
-0.377489
-0.398014
-0.511364
0.659631
0.758181
0.757531
-0.137691
-0.0602332
-0.193229
0.0125536
-0.0471442
0.569054
0.575961
0.571015
0.586409
0.580911
0.58286
0.595052
0.592125
0.593686
0.530687
0.655124
0.393558
0.358541
-0.184607
-0.0933397
-0.186862
0.00608063
0.0106578
0.132439
0.159916
0.107868
0.095802
0.0179547
0.0248117
0.022553
0.0327675
0.0341469
0.50385
0.493272
0.522905
0.530254
0.572798
0.573915
0.577146
0.57567
0.993201
1.01565
1.02317
0.996826
-3.4754
-6.27993
0.108224
0.247225
0.0018757
0.0092796
0.00288132
0.024436
0.00488662
0.00115989
0.068211
0.0661609
0.0629324
0.0665597
0.701723
0.701065
1.05643
1.0559
1.03881
0.988232
0.578675
0.5808
0.58637
0.582212
0.0359196
0.0418894
0.0419686
0.786783
0.794577
0.793227
0.305623
0.219041
0.391228
0.418886
0.688878
0.674313
0.686543
0.72342
0.760586
1.04063
1.05889
1.05709
1.06543
1.10938
1.12571
1.09119
0.535826
0.545415
0.540563
0.577846
0.575553
0.576495
0.572043
0.573484
0.571289
0.0138699
-0.369867
0.547095
0.564719
0.544255
0.550962
0.739036
0.815032
0.739635
0.749376
0.747765
0.07794
0.0213331
0.31637
0.283527
0.445853
0.480865
0.460661
0.96455
0.924641
0.974807
0.948078
0.909276
0.935472
-0.321509
-1.83571
-0.946492
0.603106
0.413992
0.503092
0.0815276
0.0712123
0.0771629
1.05057
1.12924
0.711229
0.878985
0.887309
0.796085
0.825261
0.884921
0.810912
0.845498
0.879163
0.857046
0.61576
0.559914
0.570608
0.884421
0.940106
0.192845
0.138036
0.0934675
0.177825
0.234434
0.206559
1.09313
0.996261
1.06784
0.588968
0.589666
0.0177036
0.0398574
0.593815
0.593865
0.0213756
0.0349996
0.484766
-0.782191
0.181571
0.582301
0.57251
0.589468
-0.0191733
0.424372
0.0236263
0.12056
0.0706
0.584532
0.52104
0.481869
0.0460843
0.0334803
0.0351845
-0.147825
0.58664
0.584949
0.588927
0.589907
0.590567
0.0380002
0.0335496
0.0278976
0.0392799
0.038158
0.0360604
0.554091
0.571499
-0.102638
0.589056
0.59118
0.590995
0.58417
0.589863
0.588067
0.0486891
0.0380757
0.0405649
0.289795
0.411913
0.731333
0.825758
0.698109
0.470883
0.231812
0.63115
0.696416
0.599193
0.757116
0.750992
0.76982
0.245289
0.0979357
0.253411
0.194753
0.580169
0.578821
0.570762
0.567856
0.58431
0.582421
0.586982
0.583954
0.586931
0.58833
0.0189751
-0.00302785
-0.0161127
-0.0789687
0.380462
0.641371
0.318597
0.349368
0.209428
0.0297785
0.0296486
0.0253769
0.0225175
0.0691177
0.0548216
0.113523
0.116236
0.0920315
0.0713133
0.0615333
0.0549824
0.0512009
0.578036
0.576367
0.582768
0.591404
0.530375
0.534122
0.500347
0.520115
0.506194
0.446892
0.481297
0.45693
0.0348079
0.0527428
0.0231805
0.0395126
0.0495832
0.0533175
0.047977
0.045696
0.0462489
0.043809
0.0426441
0.0410905
-0.107002
-0.220664
1.04371
0.979079
0.187807
0.575825
0.582251
0.579034
0.583838
0.586963
0.587803
0.585557
0.582137
0.57204
0.573796
0.57026
0.570987
-0.0407505
-0.177017
-0.00378909
-0.0722749
0.194886
0.681711
0.424306
0.364079
0.358706
0.580842
0.983868
0.778634
0.771278
0.793349
-0.286433
0.1106
-0.21912
0.399942
0.221836
0.730611
0.779574
0.800255
0.748758
0.700949
-0.0563673
0.604958
0.00639851
0.0524159
0.246558
0.13633
0.772382
0.734342
0.740209
0.758145
0.777587
0.740034
0.720773
0.716494
0.753729
0.757172
0.557248
0.322486
0.27718
0.237933
0.717273
0.597543
0.654566
0.566492
0.575126
0.577895
0.576483
0.558804
0.566157
0.561862
0.56773
0.571004
0.58006
0.580418
0.57581
0.578005
0.0174078
0.0162507
0.0352721
-0.0721543
-0.0616305
-0.121288
-0.00296747
0.13625
0.098404
0.295144
0.400622
0.113763
-0.00217775
0.0272297
0.0608993
0.239941
0.264675
0.139303
0.228507
0.213874
0.20014
0.302788
0.30895
0.0448086
0.0374286
0.0394931
0.0378238
0.0906623
0.159547
0.171095
0.067216
0.0596566
0.032097
0.0322634
0.0427472
0.0419418
0.0427038
0.0802604
-0.00265792
0.0404873
0.0654206
0.0724811
0.0656175
0.0607623
0.57094
0.572908
0.572689
0.580677
0.597347
0.612888
0.571714
0.552085
0.54301
0.545999
0.519616
0.529558
0.525341
0.538688
0.558915
0.56791
0.565937
0.568526
0.551715
0.553171
0.540077
0.543989
0.5199
0.501748
0.490209
0.0399939
0.0581846
0.0672296
0.0263392
0.0660979
0.0639381
0.0693825
0.0803785
0.0652605
0.0591493
0.0601278
0.0505895
0.0539205
-0.0136216
0.0659403
-0.123395
-0.156236
-0.226151
0.947806
1.06828
0.871403
0.647401
0.661528
0.900284
0.986155
0.609208
0.794736
0.818118
0.632471
0.900361
0.580649
0.580251
0.577847
0.577336
0.578577
0.0483388
0.149573
0.158183
0.212592
0.326685
0.439753
0.364739
0.242693
0.375707
0.379708
0.676989
0.692184
0.641818
0.664814
0.662741
0.489858
0.568406
0.622739
0.575557
0.622533
0.645077
0.605454
0.636111
0.581911
0.537822
0.535653
0.483672
0.505054
0.482858
0.464524
0.570315
0.548115
0.558256
0.549368
0.568825
0.593597
0.589571
0.619371
0.63047
0.553244
0.511905
0.521733
0.550496
0.511449
0.525335
0.541037
0.277414
0.176364
0.261343
-0.0299121
0.0508634
0.0358216
-0.0112417
0.0340951
0.319884
-0.377958
-0.350866
-0.98355
0.544226
1.01453
0.72552
0.69832
0.773447
0.752154
0.755392
0.778519
0.785115
0.707006
0.725521
0.728654
0.686612
0.709764
0.733343
0.730705
0.578438
0.451571
0.443778
0.402151
0.275829
0.310302
0.51247
0.434957
0.360895
0.363768
0.526453
0.414576
0.480962
0.519745
0.451478
0.406566
0.610827
0.67668
0.666663
0.641351
0.558576
0.57233
0.597336
0.6332
0.660242
0.692441
0.567483
0.573301
0.57457
0.572036
0.569277
0.572194
0.572315
0.574838
0.575658
0.578582
0.577574
0.0273303
0.0389074
0.0273754
0.0189646
0.0445529
0.0396937
0.085265
0.0723723
0.0580312
0.0644273
0.03797
0.0346055
0.0404912
0.0490442
0.158607
0.172931
0.158301
0.118628
0.307177
0.438995
0.509174
0.386051
0.279769
0.303935
0.326938
0.0512292
0.0807363
0.0662001
0.107222
0.0976822
0.040637
0.0387594
0.040595
0.0424051
0.054281
0.0385855
0.0436522
0.0512201
0.040754
0.0374499
0.0385539
0.55424
0.547746
0.549036
0.543164
0.542075
0.555738
0.560061
0.561857
0.567202
0.569168
0.559726
0.565157
0.56872
0.0668338
0.0502099
0.0387019
0.0579512
0.0581313
0.0557937
0.0562854
0.17797
0.106263
0.112223
0.06555
-0.0617754
-0.00442786
0.539939
0.53691
0.533055
0.769986
0.620862
0.539291
0.634838
0.741419
0.327571
0.525826
0.359317
0.939855
0.833011
0.978994
0.595914
0.291596
0.446234
0.496854
0.305482
0.37777
0.383467
0.2722
0.303969
0.335837
0.436695
0.313897
0.288272
0.0465309
0.234574
0.351057
0.332128
0.459747
0.521924
0.311639
0.231067
0.186897
0.668864
0.688062
0.707702
0.677924
0.702351
0.62965
0.619267
0.637127
0.645213
0.641331
-0.711788
-0.419815
-1.36356
-0.678441
-0.228977
0.573821
0.537129
0.816995
0.703763
0.76776
0.752767
0.711641
0.677873
0.690447
0.722631
0.419733
0.530966
0.505027
0.511138
0.41215
0.345177
0.645723
0.639745
0.675895
0.699935
0.667222
0.700297
0.565247
0.564868
0.564576
0.560991
0.559295
0.561447
0.122468
0.0924076
0.126575
0.107678
0.085014
0.0737842
0.067188
0.0612271
0.0569334
0.0550221
0.0603405
0.0612159
0.218341
0.160518
0.0837724
0.114588
0.0523255
-0.0139516
-0.0325969
0.0688717
0.161563
0.151677
0.458604
0.709613
0.530876
0.699366
0.539402
0.594796
0.523378
0.515382
0.54267
0.429446
0.509623
0.273482
-0.229667
-0.138288
0.831741
0.850039
0.631369
0.445465
0.216765
0.405978
0.604325
0.540016
0.578557
0.647479
0.639502
0.0594368
0.126479
0.385723
0.613401
0.281861
0.273927
0.26868
0.442764
0.367562
)
;

boundaryField
{
    wall-4
    {
        type            zeroGradient;
    }
    velocity-inlet-5
    {
        type            zeroGradient;
    }
    velocity-inlet-6
    {
        type            zeroGradient;
    }
    pressure-outlet-7
    {
        type            fixedValue;
        value           uniform 0;
    }
    wall-8
    {
        type            zeroGradient;
    }
    frontAndBackPlanes
    {
        type            empty;
    }
}


// ************************************************************************* //
