/*--------------------------------*- C++ -*----------------------------------*\
  =========                 |
  \\      /  F ield         | OpenFOAM: The Open Source CFD Toolbox
   \\    /   O peration     | Website:  https://openfoam.org
    \\  /    A nd           | Version:  13
     \\/     M anipulation  |
\*---------------------------------------------------------------------------*/
FoamFile
{
    format      ascii;
    class       volVectorField;
    location    "37";
    object      U;
}
// * * * * * * * * * * * * * * * * * * * * * * * * * * * * * * * * * * * * * //

dimensions      [0 1 -1 0 0 0 0];

internalField   nonuniform List<vector> 
918
(
(0.985164 -0.000500269 0)
(0.00500993 2.96625 0)
(-0.00862984 0.800437 0)
(0.979703 0.00214872 0)
(-0.0750422 1.88459 4.1252e-21)
(-0.00704124 2.94879 -2.63978e-18)
(0.829657 1.17177 3.91764e-19)
(0.301898 0.139243 -1.7216e-20)
(0.999909 -0.000282701 0)
(0.0547367 0.823298 0)
(0.00811327 0.630808 0)
(0.734645 -0.0129089 0)
(0.0111052 2.93034 0)
(0.00259244 2.7946 0)
(-0.0175172 3.157 7.28962e-19)
(-0.0133049 1.84683 -4.92512e-20)
(0.372515 0.0406382 1.13316e-18)
(0.190507 1.1807 2.59403e-19)
(0.962783 0.00501672 0)
(0.00555896 0.620948 0)
(0.0709363 0.185787 -8.13151e-19)
(1.00198 -0.0049817 0)
(1.00022 -0.00979388 0)
(0.975723 -0.00644349 0)
(0.585699 -0.0364729 0)
(0.0158919 2.63855 0)
(-0.0148956 2.91002 9.83219e-19)
(-0.00707898 0.847534 0)
(-0.0145184 1.01413 0)
(-0.00480937 0.821319 0)
(-0.0837694 2.57786 0)
(-0.054384 2.017 -3.28289e-21)
(-0.0348339 1.76728 0)
(-0.0206142 2.9876 -9.54001e-23)
(-0.0166926 3.0053 2.05173e-18)
(0.00210453 3.00019 0)
(0.870639 -0.00941128 0)
(0.403186 0.936579 2.13373e-19)
(0.809612 1.18857 -3.97739e-19)
(0.956357 1.02686 4.60425e-19)
(0.679878 1.2819 -8.99028e-20)
(0.679419 1.26663 5.27185e-19)
(0.343667 0.224213 1.67957e-20)
(0.317278 0.109686 0)
(1.13108 0.55141 0)
(0.309224 0.218083 7.67524e-20)
(0.272539 0.146366 -7.96474e-20)
(0.919735 -0.00746088 0)
(1.00027 0.000144228 0)
(0.999909 0.000329894 0)
(1.00363 -0.00777472 0)
(1.00096 -0.000932858 0)
(1.00017 2.87681e-05 0)
(0.0810595 1.80709 -8.94484e-19)
(0.0321512 0.998956 0)
(0.0869072 0.890297 0)
(0.0116669 0.952462 0)
(0.0357399 0.76404 0)
(0.0237136 2.00204 0)
(0.0180409 0.816699 0)
(0.0227384 0.654019 0)
(-0.000630361 0.802909 0)
(-0.0078829 0.619392 0)
(0.837441 -0.0156868 0)
(0.848957 0.0281339 0)
(0.767861 -0.00268344 0)
(0.820722 0.0378377 0)
(0.702978 -0.0182228 0)
(0.0146943 3.0004 9.80968e-19)
(0.0115142 3.00797 0)
(0.00612503 3.0028 0)
(0.0135459 2.99734 1.11691e-23)
(0.00798 2.95847 -1.45796e-18)
(0.0144844 2.98203 0)
(0.0108155 2.90363 0)
(0.024967 2.93054 2.28385e-24)
(0.00443212 2.82476 0)
(0.0308924 2.91598 0)
(-0.00573271 2.74536 0)
(0.308546 3.55393 0)
(-0.131857 3.63551 0)
(0.139768 3.24736 -6.78383e-19)
(-0.0124035 2.98241 0)
(-0.0402067 2.19784 0)
(-0.00944194 2.11105 4.85746e-20)
(0.0090409 1.88081 -5.72005e-20)
(0.465219 0.144796 -3.92061e-19)
(0.370209 0.0225231 -3.78029e-19)
(0.449683 0.166647 -1.1808e-18)
(0.357962 0.0604249 -7.78818e-19)
(0.21989 0.951029 0)
(0.272978 1.32249 -3.25163e-19)
(0.375995 1.26644 5.47218e-19)
(0.98749 0.00856252 0)
(0.941947 0.00588075 0)
(1.0003 0.000578691 0)
(1.00286 0.00930591 0)
(1.00302 0.00846068 -3.01959e-18)
(0.991914 0.00969708 2.28032e-18)
(-0.00620669 0.795003 0)
(-0.00813758 0.63095 0)
(0.0170236 0.871643 0)
(-0.0179389 0.79355 0)
(-0.00912024 0.625441 0)
(0.111839 0.191562 2.51378e-19)
(0.168348 0.168814 0)
(0.993537 -0.00838177 0)
(0.954411 -0.00652014 0)
(0.771895 0.045819 0)
(0.708086 0.0563827 0)
(0.662449 -0.0301387 0)
(0.957373 -0.0104818 0)
(0.623717 0.0737038 0)
(0.450002 -0.0151257 1.65844e-18)
(-0.0366317 2.86397 7.60127e-19)
(0.0421564 2.9093 0)
(0.0545657 2.88487 0)
(-0.00439679 2.69901 0)
(-0.0133509 2.98511 9.36111e-19)
(-0.0180268 2.89513 0)
(-0.0154217 2.98809 -2.892e-18)
(-0.0133574 2.92517 9.88363e-19)
(0.0659176 1.26709 0)
(0.0383851 1.33767 0)
(-0.0212953 2.07113 -1.2035e-21)
(-0.0381027 2.02019 0)
(-0.0129008 1.81866 0)
(0.937872 -0.0077296 0)
(0.856201 -0.00941269 0)
(0.863457 0.00642188 0)
(0.949104 -0.00798426 0)
(0.883584 -0.00818935 0)
(0.515426 1.13053 -2.67722e-19)
(0.565017 1.18253 0)
(0.366998 0.880251 3.82851e-20)
(0.309315 0.739395 0)
(0.915844 1.06518 -1.2284e-19)
(1.02587 0.866683 2.4163e-19)
(0.370462 1.37458 0)
(0.533184 1.34477 0)
(0.546052 1.29655 0)
(0.113979 0.181267 -3.24232e-19)
(0.377862 0.212239 0)
(0.343236 0.103267 2.19891e-19)
(0.996456 0.921973 0)
(1.06045 0.77032 0)
(1.08537 0.710967 -1.69722e-19)
(1.11138 0.612303 0)
(1.15581 0.39595 5.43021e-20)
(0.957459 -0.00881342 0)
(0.962351 -0.0101323 0)
(0.901447 -0.00798229 0)
(0.984166 -0.00918022 0)
(0.974635 -0.00940719 0)
(0.937044 -0.00635901 0)
(1.00018 0.00233823 0)
(1.00091 0.0013931 0)
(0.999912 0.000855489 0)
(0.0333505 2.0617 4.90712e-19)
(0.121396 1.74898 0)
(0.0125623 2.17741 7.80974e-19)
(0.0562077 1.86239 -6.6925e-19)
(0.105367 1.18574 -2.11297e-19)
(0.0462983 1.07231 0)
(0.141239 1.03839 0)
(0.00990749 0.903498 0)
(0.0183337 0.725353 0)
(-0.00598277 2.22106 -1.75581e-21)
(0.0297218 1.99097 0)
(-0.00613099 2.20525 -8.87025e-20)
(0.028793 1.99635 1.65539e-19)
(0.00634457 0.869034 0)
(0.0143593 0.842739 0)
(0.0201772 0.687863 0)
(-0.00233044 0.804357 0)
(-0.0089975 0.618183 0)
(0.93501 0.00885146 0)
(0.844281 -0.0148067 0)
(0.92529 -0.000403033 0)
(0.839776 -0.0126523 0)
(0.81235 0.00168493 0)
(0.902065 0.0196769 0)
(0.878882 0.023765 0)
(0.789115 -0.000234951 0)
(0.00582225 3.06492 -9.24885e-21)
(0.0165587 3.05774 0)
(0.0146733 2.96907 0)
(0.00866909 2.87629 0)
(0.925486 3.97048 0)
(1.24021 3.30256 9.22511e-19)
(0.0703069 3.07453 0)
(-0.0282453 2.90545 0)
(0.104322 1.47281 0)
(0.0326789 1.86928 0)
(0.0295966 1.72423 0)
(-0.0546126 2.53009 1.85342e-20)
(-0.0435954 2.36028 0)
(-0.0933665 2.46372 0)
(0.0260353 1.96443 2.22206e-21)
(-0.0165592 2.14294 5.87144e-20)
(-0.0171706 2.12738 5.82e-20)
(0.024054 1.92657 0)
(0.491021 0.120167 5.88e-19)
(0.388987 0.00422395 -5.77666e-19)
(0.26057 1.57279 0)
(0.268033 0.726744 -3.3042e-19)
(0.177502 1.65778 -1.11324e-18)
(0.226806 1.19399 1.11607e-18)
(0.902263 0.00653695 0)
(0.96752 0.0110149 0)
(0.974621 0.0107738 0)
(0.923452 0.0065112 0)
(-0.0148772 0.809292 0)
(-0.00525001 0.802089 0)
(-0.00961958 0.626765 0)
(0.265864 0.215406 7.0744e-19)
(0.220364 0.201271 -8.3736e-19)
(0.230037 0.160027 0)
(1.07851 0.0804564 3.38569e-20)
(1.06036 0.0355079 0)
(1.00046 0.0373201 0)
(0.897841 -0.00823551 0)
(0.517615 0.0967741 0)
(0.554721 0.0781522 -2.65294e-18)
(0.412734 -0.00193848 9.94515e-19)
(0.00914073 2.98162 8.03839e-19)
(-0.0322438 2.86642 4.77911e-20)
(0.00363988 3.05028 -1.95105e-20)
(0.0201187 3.04336 6.92476e-19)
(-0.0149952 2.99656 3.23857e-20)
(-0.0129497 2.94943 -1.30178e-22)
(-0.0172788 3.01197 -5.96514e-19)
(0.0148506 3.02388 4.32029e-19)
(0.00736831 3.03686 -6.86368e-19)
(0.932425 -0.00180765 0)
(0.938445 -0.00382327 0)
(0.844114 -0.00900824 0)
(0.956747 0.0116836 0)
(0.943102 0.012913 0)
(0.881807 0.00615244 0)
(0.918301 0.0161692 0)
(0.926668 0.0146089 0)
(0.838764 0.00408543 0)
(0.719234 1.41006 -7.30288e-22)
(0.753034 1.5195 0)
(0.188247 0.325606 7.8617e-20)
(0.217203 0.655504 6.34571e-19)
(0.25877 0.716976 -3.67833e-19)
(0.265372 0.533772 7.3258e-19)
(0.333247 0.785633 1.69733e-18)
(0.131744 0.220752 3.93255e-19)
(0.424167 0.187338 8.26284e-19)
(0.402782 0.203758 2.14862e-19)
(0.354994 0.0847183 4.10345e-19)
(1.1461 0.454413 -1.13892e-20)
(1.15893 0.249129 -1.90909e-20)
(0.00445645 2.22371 3.1368e-19)
(0.0499371 1.92442 0)
(0.963125 0.0277317 0)
(0.938179 0.012856 0)
(0.861742 -0.0185917 0)
(0.011272 3.07439 0)
(0.0198704 2.94422 1.28247e-18)
(0.0164445 2.95638 0)
(0.0063 2.85054 -1.27201e-18)
(0.00633405 3.09195 3.12589e-19)
(0.00706665 3.08225 0)
(0.786221 1.82248 -1.49331e-19)
(1.24788 2.5013 3.74236e-19)
(0.768448 1.96248 -1.20653e-18)
(0.0201077 2.982 -7.03193e-19)
(0.0357976 3.00193 0)
(-0.0339216 2.87851 0)
(-0.00753194 2.18785 -7.84596e-21)
(-0.0105687 2.16377 -1.26524e-19)
(0.0229949 1.98539 -4.49938e-21)
(0.27449 1.3793 1.07684e-18)
(0.224451 0.513034 -7.38408e-19)
(0.0626773 1.9867 8.29855e-19)
(0.136759 1.87541 -9.77945e-19)
(0.180153 1.48844 9.14201e-20)
(0.0059637 3.11816 -1.75795e-18)
(0.0126268 3.11892 1.9214e-18)
(-0.00915483 2.98053 8.70822e-19)
(-0.0038557 2.97733 -8.3017e-19)
(-0.0215359 2.88107 -8.86918e-19)
(0.00848342 3.09887 -2.32853e-18)
(0.00161917 3.10603 2.34358e-18)
(0.273374 0.680341 0)
(0.236372 0.669844 -1.30946e-18)
(0.09616 0.221574 5.79871e-19)
(0.34806 0.911068 1.16839e-18)
(0.186949 0.26487 -1.80247e-18)
(1.15719 0.16831 9.29677e-20)
(1.16126 0.303362 0)
(1.14371 0.117064 -4.15031e-20)
(-0.00255523 2.23538 -2.42536e-21)
(0.000259088 2.23245 0)
(0.034946 1.96459 0)
(0.338697 1.28832 -3.8813e-19)
(0.366498 1.12188 -8.3725e-19)
(0.200395 0.361548 1.49384e-18)
(1.00587 -0.0108679 0)
(1.00766 -0.00765431 5.57637e-19)
(0.0543769 1.25054 0)
(0.0123445 1.15378 0)
(1.00222 0.00350589 1.80724e-21)
(1.00365 0.00943955 1.1375e-18)
(-0.0568628 2.536 -2.30956e-20)
(-0.0434823 2.55991 0)
(0.0360718 3.17909 4.81335e-19)
(0.395641 3.49249 0)
(1.14228 0.652639 -9.28534e-20)
(1.01291 0.0130664 -2.13489e-21)
(1.02125 -0.0104144 0)
(1.00168 9.74099e-05 6.86328e-23)
(0.0986674 1.35411 0)
(0.14894 2.58054 0)
(0.0181569 1.29963 0)
(-0.00036249 2.63155 9.20764e-20)
(-0.0243119 2.58547 6.30779e-20)
(1.0023 0.0276996 2.47539e-21)
(1.06145 0.00334426 0)
(1.09439 0.0225438 0)
(0.0123967 1.88703 0)
(-0.0301752 2.5807 0)
(0.0350316 1.26543 0)
(0.290035 1.46779 -1.11737e-19)
(1.01126 -0.00965945 0)
(1.00939 -0.014936 0)
(1.00234 0.000696056 7.12138e-19)
(1.00547 -0.00483985 -8.37509e-19)
(1.00119 -0.000988954 0)
(0.0604086 1.57575 0)
(0.073044 1.35683 0)
(0.0644903 1.49922 0)
(0.041527 1.24755 0)
(0.019573 1.16765 0)
(0.00244052 1.1261 0)
(1.03437 -0.00650068 0)
(1.02068 0.015701 -9.2002e-22)
(0.796901 1.26479 2.02124e-19)
(1.00227 0.000248244 -7.11327e-19)
(1.00406 0.00524467 8.30512e-19)
(1.00118 0.00205738 0)
(1.01286 0.010261 7.06975e-19)
(1.00802 0.00827391 -8.5531e-19)
(1.00859 0.0146651 0)
(-0.0361214 2.59897 0)
(-0.0392076 2.57325 4.71913e-20)
(-0.0376397 2.58723 -3.13461e-20)
(1.22111 0.252255 7.32176e-19)
(1.15455 0.0805559 0)
(0.0445658 3.07776 -1.0285e-18)
(0.0656932 2.85382 -7.45554e-20)
(0.142606 3.19358 1.55939e-18)
(0.137404 3.22232 -2.46157e-19)
(0.136099 3.23511 0)
(0.019458 3.13761 2.68987e-19)
(0.0766243 3.16064 1.01591e-18)
(0.0693641 3.18666 -5.06119e-19)
(0.0226152 3.12944 0)
(0.651533 0.298514 0)
(0.573598 0.345952 0)
(1.11125 0.685914 2.40998e-19)
(1.10728 0.814096 -2.59503e-19)
(1.17072 0.571773 0)
(1.20087 0.5098 0)
(1.01616 0.0132962 -1.31872e-18)
(1.015 0.0142641 1.6554e-18)
(1.02517 -0.00998504 0)
(1.0232 -0.0119989 0)
(1.00647 0.0025622 0)
(1.01043 0.00368666 0)
(1.00462 0.00181674 0)
(1.00982 0.00615945 0)
(1.0078 0.00596106 0)
(1.00452 0.00461607 0)
(0.0879736 1.35047 0)
(0.0814512 1.32504 0)
(0.118989 1.38677 0)
(0.129924 1.39936 0)
(0.146882 2.60471 0)
(0.187252 2.67096 -4.74898e-19)
(0.100941 2.66266 0)
(0.0882127 2.66593 2.48269e-19)
(0.0391751 2.6881 -2.35926e-19)
(0.0312619 1.31627 0)
(0.0215535 1.24002 0)
(0.0367322 1.32264 0)
(0.0326725 1.26407 0)
(-0.00246596 1.98868 -5.16458e-20)
(-0.025145 2.61337 5.01132e-20)
(-0.0125584 2.67453 8.96556e-20)
(-0.0206568 2.68721 0)
(-0.0290822 2.61762 -1.48096e-19)
(-0.0276997 2.61064 -8.80219e-20)
(0.00796975 1.98855 4.05828e-20)
(-0.0154273 2.41306 -6.72252e-20)
(-0.0185772 2.43113 -1.01655e-19)
(1.01132 0.0359074 1.34076e-18)
(1.00784 0.0166537 -1.65893e-18)
(1.00359 0.0419186 -1.34373e-18)
(0.982441 0.0217594 1.70987e-18)
(1.0626 0.00712425 0)
(1.04811 -0.00895261 0)
(1.09115 0.0327934 0)
(1.07233 0.0113804 0)
(1.07001 -0.00148386 0)
(1.13628 0.0772011 0)
(1.10785 0.0413049 0)
(1.11049 0.0292027 0)
(-0.0657652 2.45775 -8.43065e-21)
(0.0161006 2.10602 0)
(-0.0380427 2.2868 0)
(-0.0318649 2.59976 2.36394e-20)
(-0.0274748 2.6086 -1.27121e-21)
(0.0273421 1.65002 5.80374e-20)
(0.0397049 1.59772 -5.86373e-20)
(0.0421934 1.4085 0)
(0.0474264 1.42048 0)
(0.0377491 1.4261 0)
(0.031347 1.28673 0)
(0.0137412 1.18462 0)
(0.378752 1.48251 1.64679e-19)
(0.417364 1.48789 1.09549e-19)
(0.596762 2.449 -2.51668e-19)
(0.403234 2.54465 7.48278e-19)
(0.35433 2.06762 9.155e-20)
(1.02096 -0.00824344 0)
(1.01545 -0.00981434 0)
(1.01488 -0.0155384 0)
(1.00746 -0.0012121 0)
(1.0049 -0.000973488 0)
(1.00776 -0.00477529 0)
(1.00924 -0.00373273 0)
(1.01414 -0.00451559 0)
(1.02138 0.0159857 1.292e-18)
(1.01812 0.0157407 -1.65634e-18)
(1.02185 0.0179345 -1.30069e-18)
(1.01974 0.0165338 1.63222e-18)
(0.764358 1.31314 0)
(0.699781 1.3662 1.73492e-19)
(0.872706 1.20988 3.68534e-20)
(0.915136 1.16393 -4.90109e-20)
(1.15583 2.60843 4.00348e-19)
(0.808277 0.102635 6.51414e-19)
(1.15681 0.0995101 0)
(1.20066 0.181179 -5.87962e-19)
(1.1842 0.145889 -2.48698e-20)
(1.00419 0.142974 0)
(0.137595 2.96161 6.14892e-19)
(0.114637 2.86753 -1.299e-18)
(0.0253387 2.37127 8.76511e-19)
(0.0921388 -0.00853208 -3.94772e-19)
(0.340607 3.42145 -1.74112e-19)
(0.19521 3.31384 0)
(0.23783 3.35617 2.26752e-19)
(0.246641 3.03494 -1.98813e-18)
(0.340961 3.19409 0)
(0.00655283 3.12077 5.16666e-20)
(0.0176567 3.12943 -6.02716e-19)
(0.0153396 3.12551 8.87099e-19)
(0.0355534 3.13969 0)
(0.0337711 3.15077 0)
(1.21518 2.60812 0)
(0.534144 0.839261 -5.74986e-19)
(1.03594 0.988328 4.45283e-20)
(0.972482 1.06362 0)
(0.821201 0.965117 -1.42059e-19)
(1.05904 0.878184 2.91524e-20)
(0.36881 0.402368 -1.01436e-18)
(0.697139 0.322078 -2.24615e-20)
(0.664278 0.240294 4.65867e-19)
(0.590711 0.377541 3.43937e-20)
(0.5077 0.351163 -1.38472e-18)
(0.666087 0.340961 0)
(0.702783 0.42637 7.90584e-19)
(0.710656 0.422567 0)
(0.625446 0.369523 0)
(0.60082 0.294406 0)
(0.795813 0.616132 4.77011e-19)
(1.21868 0.275391 -6.19505e-19)
(1.21242 0.414446 0)
(1.22427 0.356263 0)
(0.747992 0.188915 6.93177e-19)
(0.842234 0.535771 -4.33092e-19)
(0.743358 0.509739 7.68443e-19)
(0.945546 0.422897 -8.54535e-19)
(1.01978 0.0146245 8.88324e-19)
(1.01789 0.0141937 -8.93399e-19)
(1.01594 0.0155987 0)
(1.03583 -0.00608771 0)
(1.02952 -0.00864594 -8.39242e-19)
(1.02748 -0.0121658 8.31073e-19)
(1.02511 0.00965114 0)
(1.02367 0.013316 0)
(1.01141 0.00404204 0)
(1.01429 0.00896293 0)
(1.01511 0.00392518 0)
(1.01421 0.00273035 0)
(0.0583755 1.33367 0)
(0.0625912 1.29456 0)
(0.144018 1.35843 -5.88044e-20)
(0.267275 1.46476 5.34991e-20)
(0.159155 1.43547 1.08285e-19)
(0.189287 1.44369 -1.78965e-19)
(0.16153 1.38294 0)
(0.130538 1.59055 -1.38255e-19)
(0.114949 1.56131 0)
(0.354028 2.02113 -1.33079e-19)
(0.348415 2.35355 6.91944e-19)
(0.18752 1.44485 1.20531e-19)
(0.261108 1.37874 -5.64836e-21)
(0.199842 1.36374 4.58411e-21)
(0.273558 1.32002 -1.69359e-19)
(0.242025 1.57479 0)
(0.261756 1.61569 1.63848e-19)
(0.0340048 2.27305 -5.79846e-20)
(0.0421256 2.67823 0)
(0.0657476 2.41077 1.97955e-19)
(0.0591939 2.43244 0)
(0.070748 2.67917 -2.74737e-19)
(0.0501284 2.70718 0)
(0.0265099 1.40496 -4.15098e-20)
(0.0344736 1.45655 0)
(0.0327358 1.37301 0)
(0.0240224 1.37665 4.6837e-20)
(-0.00253711 2.66045 -2.00253e-20)
(0.0283464 2.70627 2.74686e-19)
(0.00976064 2.72917 1.9335e-21)
(-0.00410395 1.83733 5.20943e-20)
(-0.0114023 1.67999 2.26592e-20)
(0.015797 1.29252 0)
(-0.00125126 1.21475 0)
(0.0475417 1.56557 6.27011e-20)
(0.0292354 1.43868 5.94667e-20)
(0.0364466 1.50507 -7.38621e-20)
(0.039778 1.59066 0)
(-0.0393921 2.28266 -4.23787e-20)
(-0.0432732 2.5523 1.89794e-20)
(-0.0216852 2.4518 -1.55306e-20)
(-0.0199322 1.85272 -6.30693e-20)
(-0.0351198 2.50266 -2.27557e-20)
(-0.0276481 2.44827 1.04574e-19)
(1.01984 0.0207071 -8.83935e-19)
(1.0161 0.0260925 8.86886e-19)
(1.01526 0.0162546 0)
(1.01133 0.0668992 1.24557e-18)
(0.991923 0.0558997 -1.39235e-18)
(0.95336 0.0423687 1.5559e-18)
(1.01488 0.102736 -1.66356e-19)
(1.04202 -0.00613252 0)
(1.05012 -0.00197298 8.03284e-19)
(1.03839 -0.0101253 -8.04391e-19)
(1.06967 0.0403059 -4.80363e-20)
(1.06333 0.0220889 4.13245e-19)
(1.06434 0.0530793 0)
(1.0512 0.0480829 -1.48214e-19)
(1.0333 0.0399314 0)
(1.02615 0.0362779 0)
(1.02781 0.0126581 0)
(1.02437 0.0155164 0)
(1.03961 0.0303721 3.05009e-19)
(1.03942 0.0257886 -6.72287e-19)
(1.0502 0.0321003 -3.23821e-19)
(1.04773 0.0320965 -3.56181e-19)
(1.06862 0.061636 7.00102e-19)
(1.09368 0.0490819 0)
(1.10151 0.0915937 0)
(-0.0458032 2.27631 -4.18137e-20)
(-0.00931765 2.07824 -9.82322e-21)
(-0.0102078 2.05154 0)
(-0.0456942 2.45737 4.21017e-20)
(-0.0235694 2.41816 1.78885e-20)
(-0.0605305 2.45602 -1.44335e-20)
(-0.0280307 2.62147 7.68324e-20)
(-0.0386327 2.56209 -5.84361e-21)
(-0.0308455 2.51811 2.3562e-20)
(-0.0242918 2.61415 -3.69065e-20)
(-0.0284674 2.61543 4.58166e-20)
(0.0360194 1.53593 4.02931e-22)
(0.0178052 1.67419 6.38302e-20)
(0.367783 1.42275 -5.74795e-20)
(0.365981 1.36696 1.03576e-19)
(0.646583 1.41292 -1.67735e-19)
(0.514734 1.47732 -1.06308e-19)
(0.567614 1.44962 0)
(0.592263 2.42466 2.24448e-19)
(0.659219 2.41661 3.55086e-19)
(0.411227 2.51889 8.35664e-20)
(0.405087 2.54617 -6.98225e-19)
(0.51335 2.49086 6.68809e-19)
(0.551921 2.46273 0)
(0.489157 2.51882 -5.95647e-19)
(0.249318 2.59511 1.26552e-18)
(0.354148 2.56795 -8.26513e-20)
(0.285227 2.65688 -1.72308e-18)
(0.942904 2.37823 7.90002e-19)
(0.834895 2.38157 0)
(1.01092 0.000381754 2.89406e-20)
(1.0152 -0.00554396 -2.34997e-20)
(1.01764 -0.00366419 -4.29465e-19)
(1.01489 -0.000990091 4.31375e-19)
(1.01229 0.00101031 0)
(0.634363 1.2817 0)
(0.652055 1.17746 0)
(0.754941 1.0853 0)
(0.644071 1.14303 0)
(1.18544 2.62288 5.90131e-20)
(1.07345 2.36677 0)
(0.837148 2.18941 4.55036e-21)
(0.825241 2.44824 0)
(0.921652 2.5391 -4.88976e-19)
(0.95695 2.4953 3.25508e-19)
(0.816939 0.154239 0)
(0.785042 0.128992 1.77922e-19)
(0.92529 0.137408 1.03558e-18)
(0.840049 0.133532 -3.88054e-19)
(0.818629 0.0758465 -1.18822e-18)
(1.07609 0.22244 -1.03008e-18)
(0.996963 0.280635 -1.5234e-20)
(0.922138 0.277776 9.66789e-19)
(1.00546 0.210956 8.11386e-19)
(0.953111 0.179787 -1.38183e-18)
(0.918108 0.180576 1.7261e-19)
(0.951292 0.240038 -3.72173e-19)
(0.930135 0.202665 0)
(0.994325 0.177273 6.82767e-19)
(1.04513 0.176045 0)
(1.04466 0.202215 0)
(1.10401 0.110159 3.28675e-19)
(1.07021 0.163943 -1.38273e-20)
(1.07021 0.224254 -1.79068e-19)
(1.10023 0.191189 0)
(1.02295 0.0436806 6.86387e-19)
(1.04096 0.0563614 8.57657e-19)
(1.03407 0.0418385 -6.8065e-19)
(1.04153 0.0625311 -5.74897e-19)
(1.0181 0.0700666 -8.76258e-19)
(0.989036 0.149887 0)
(0.998738 0.0992674 0)
(0.969297 0.0641457 -5.53799e-19)
(0.920733 0.0862059 2.17319e-19)
(1.03713 0.0985826 7.94957e-19)
(1.06761 0.113282 -9.46827e-19)
(1.07038 0.144868 8.44224e-19)
(1.02969 0.136263 0)
(1.07332 0.103809 0)
(1.05545 0.0854501 -3.84646e-19)
(1.04416 0.0919537 -6.51552e-19)
(0.577757 1.07629 1.69792e-19)
(0.612065 1.41418 -7.20382e-20)
(1.15608 2.74196 -2.68776e-19)
(1.22301 3.08263 1.00995e-20)
(1.24827 2.72265 -2.23415e-19)
(1.27857 2.70661 1.03862e-20)
(1.20639 2.34572 -1.00562e-20)
(1.2101 2.9864 -1.28321e-19)
(1.22934 2.95143 2.89745e-19)
(1.21414 3.23618 -1.29087e-19)
(1.37525 2.96769 1.78546e-19)
(1.36593 2.88571 0)
(0.539385 0.847157 -5.44617e-20)
(0.13846 1.25779 6.06055e-19)
(0.53161 0.459362 6.54683e-19)
(0.367958 0.210601 7.24144e-19)
(0.529485 0.38524 7.81487e-19)
(0.544298 0.478237 -1.27007e-18)
(0.546337 0.481612 1.03717e-18)
(0.497349 0.40697 -3.94883e-19)
(0.422032 0.341871 8.95708e-19)
(0.751121 0.247913 -3.96927e-19)
(0.715757 0.28259 0)
(0.703358 0.207912 9.69645e-21)
(0.728788 0.514027 4.16573e-19)
(0.699588 0.483169 -1.51757e-18)
(0.614533 0.472493 1.60966e-20)
(0.625343 0.458009 0)
(0.670034 0.7329 4.39952e-19)
(0.821485 0.771525 4.62826e-19)
(0.746321 0.853622 -5.39765e-19)
(0.862977 0.803948 -1.87001e-19)
(0.896125 0.848503 -4.95916e-20)
(0.904292 0.849502 5.07789e-20)
(0.836325 0.643698 -7.91409e-19)
(0.913877 0.70035 1.73692e-19)
(0.97053 0.714937 0)
(0.961316 0.691425 -2.40826e-19)
(1.02292 0.319374 2.49336e-19)
(1.13536 0.289008 3.5669e-19)
(1.06282 0.258476 4.21257e-19)
(1.00879 0.354679 -4.98441e-19)
(1.04836 0.420735 0)
(1.10032 0.405111 0)
(0.910234 0.350005 5.70265e-21)
(0.841439 0.282965 0)
(0.87126 0.275794 4.52896e-19)
(0.905299 0.283532 -5.15308e-21)
(0.937493 0.425914 2.38517e-18)
(0.893554 0.487146 6.16611e-19)
(0.898256 0.450614 -6.49132e-19)
(0.819059 0.433671 6.95526e-19)
(0.801604 0.429749 4.14597e-19)
(0.7722 0.416353 -4.07462e-19)
(1.02736 -0.000416075 7.16155e-19)
(1.02001 -0.000171698 0)
(1.01849 0.000774945 4.66438e-19)
(1.02159 -0.00199724 -1.0568e-18)
(1.02224 0.00414678 5.13423e-19)
(1.02042 0.0110292 -1.07549e-18)
(1.0214 0.0104251 0)
(1.02075 0.0106791 -2.23934e-19)
(1.016 0.00758443 5.61816e-19)
(1.01677 0.0103191 -2.80238e-19)
(1.01746 0.00966495 2.06462e-19)
(0.0307319 1.31006 0)
(0.036717 1.34316 0)
(0.0404167 1.31046 0)
(0.0471286 1.27519 0)
(0.0702892 1.37063 8.91855e-20)
(0.077408 1.34356 -1.90013e-20)
(0.109594 1.49894 -4.94396e-20)
(0.0930642 1.34631 3.12307e-20)
(0.0332744 1.44219 -8.69613e-20)
(0.0375303 1.43435 6.74352e-20)
(0.0618189 1.35286 -5.81949e-21)
(0.0546127 1.3538 -4.72594e-20)
(0.0485618 1.33159 -7.27884e-21)
(0.0400001 1.35347 -9.96107e-21)
(0.10907 2.38137 -2.18839e-19)
(0.0965871 2.42579 0)
(0.173986 2.0547 1.36488e-19)
(0.111807 1.70875 6.9942e-20)
(0.232744 2.04811 -1.10887e-19)
(0.207719 2.44263 0)
(0.267826 2.3937 -6.80841e-19)
(0.306772 2.39158 4.82732e-19)
(0.234663 2.00707 -3.09665e-19)
(0.155617 2.17058 1.98347e-19)
(0.146363 2.28603 0)
(0.0150235 1.8792 -9.37794e-20)
(-0.00681025 2.41016 -1.59901e-19)
(-0.000137385 2.16192 0)
(0.00985325 2.46889 -1.40361e-20)
(0.0241339 2.31408 5.82052e-20)
(0.0199756 1.3915 7.25214e-21)
(0.0132388 1.37863 -1.18894e-19)
(0.0126915 1.3831 3.14471e-20)
(0.0182361 1.38145 4.04061e-20)
(0.0246611 1.40918 0)
(0.0111201 1.36513 0)
(0.0128341 1.28017 4.82471e-20)
(0.00803011 1.35887 -1.67412e-20)
(0.00846153 1.35319 0)
(0.0172032 1.27592 3.13647e-20)
(0.00472813 1.1846 -6.54742e-20)
(1.03984 0.0108791 0)
(1.04621 0.00720007 -7.53636e-20)
(1.03868 0.0204578 -5.42265e-19)
(1.04782 0.0192891 0)
(1.0512 0.0193515 0)
(1.03647 0.0108375 -6.63673e-21)
(1.03098 0.0106332 8.69316e-19)
(1.03199 0.0157992 1.05539e-18)
(1.02598 0.0197636 0)
(1.02326 0.0202127 0)
(1.03524 0.0240965 5.4124e-19)
(1.02633 0.0254596 0)
(1.02464 0.0254996 0)
(-0.0379042 2.02595 0)
(0.00767111 1.67113 -4.81388e-21)
(-0.0200811 1.77682 -5.90581e-21)
(0.0138013 1.35962 0)
(-0.0101481 1.56233 3.71812e-20)
(0.0156937 1.46858 -2.29786e-20)
(0.0445576 1.39813 0)
(0.392776 1.67202 0)
(0.367997 1.29652 -1.86076e-19)
(0.306021 1.34197 0)
(0.424534 1.29555 1.49857e-19)
(0.467271 1.45214 0)
(0.448605 1.39793 -3.88839e-20)
(1.03482 2.68626 -1.69335e-20)
(0.964524 2.40877 -9.92834e-19)
(0.914228 2.1885 1.14036e-18)
(0.848315 2.37359 2.59616e-19)
(0.846247 2.49694 0)
(0.916354 2.49326 0)
(0.926302 2.37142 0)
(0.904476 2.35798 -1.00927e-18)
(0.689776 2.46559 -4.52982e-19)
(0.801041 2.45617 -1.10048e-19)
(0.811468 2.42975 8.3952e-20)
(0.693984 2.39089 0)
(0.797985 2.38602 0)
(0.756953 2.39875 -3.87322e-19)
(0.768786 2.48713 0)
(0.611486 1.09882 0)
(0.482066 0.928197 -5.6421e-19)
(0.54881 0.963424 -3.58045e-20)
(0.51834 1.05493 0)
(0.518927 1.00486 8.47209e-19)
(0.769977 0.880129 -1.56005e-19)
(0.779941 1.01504 0)
(0.753557 0.973411 2.33715e-19)
(0.640777 1.035 0)
(0.645006 0.943868 0)
(1.16402 2.76295 -2.71919e-19)
(1.14156 2.82671 -1.27006e-19)
(0.931099 2.34749 1.509e-19)
(0.899015 2.32538 -9.948e-20)
(1.12881 2.73531 0)
(1.08227 2.70532 1.1974e-19)
(1.0887 2.48657 -3.51322e-19)
(0.982769 2.23372 -3.03295e-20)
(0.495854 1.35571 0)
(0.508755 1.07463 -1.49752e-19)
(0.561438 1.16352 0)
(0.860899 0.216207 0)
(0.792031 0.167935 0)
(0.740228 0.138311 0)
(0.855859 0.220422 -7.12866e-19)
(0.767886 0.209434 4.16878e-19)
(0.935332 0.0731781 -4.4888e-19)
(0.949814 0.118808 0)
(0.928834 0.128806 1.92473e-19)
(0.869685 0.105751 7.71276e-19)
(0.844217 0.0638064 -4.82886e-19)
(1.1616 3.36163 -6.91805e-19)
(1.20917 3.28095 0)
(1.16011 3.38956 -1.43492e-18)
(0.647791 3.55038 1.21744e-18)
(0.87262 3.11775 3.71286e-20)
(0.512947 0.853782 6.47974e-19)
(0.430458 0.846937 0)
(0.339919 0.494499 -1.63238e-19)
(0.449378 0.682167 9.32599e-19)
(0.53507 0.465232 -2.26164e-19)
(0.509133 0.517539 2.56625e-19)
(0.661155 0.531845 5.60792e-19)
(0.690759 0.553755 0)
(0.642375 0.614464 0)
(0.600662 0.552036 0)
(0.974848 0.600525 1.26995e-19)
(0.895367 0.536246 -6.00013e-19)
(0.91905 0.56999 4.65669e-19)
(0.955725 0.505114 -4.65974e-19)
(1.05901 0.480027 0)
(1.06616 0.57038 -1.2124e-19)
(0.843035 0.385406 -9.47382e-19)
(0.846722 0.371372 -1.17384e-18)
(0.794906 0.380548 7.38319e-19)
(0.791218 0.350577 -7.52518e-19)
(0.84118 0.306331 -5.88979e-19)
(0.794061 0.305743 7.23646e-19)
(1.02671 0.00545669 -5.50707e-19)
(1.02645 0.0056988 1.12426e-18)
(1.02908 -0.000330544 6.95164e-19)
(1.03329 0.000634653 -8.37319e-19)
(1.03326 0.00814906 0)
(1.03006 0.00871376 -1.36042e-18)
(0.0639956 1.64167 3.82913e-20)
(0.0455539 1.56734 0)
(0.086574 1.69255 2.52205e-19)
(0.0955503 1.67391 -2.26045e-19)
(0.0900452 1.51917 9.27851e-20)
(0.0884035 1.49903 0)
(0.00459861 1.68688 0)
(-0.00461306 1.49163 -1.95599e-20)
(-0.00854942 1.42831 1.7598e-20)
(-0.00521529 1.55727 5.5657e-22)
(-0.0077043 1.89197 -3.36999e-20)
(-0.025294 1.94597 1.84222e-20)
(0.495245 1.37312 -3.73727e-19)
(0.489935 1.37657 4.08534e-19)
(0.446121 1.29151 -1.0534e-19)
(0.434974 1.2935 1.31494e-20)
(0.625756 1.29713 0)
(0.544396 1.38428 3.03661e-20)
(0.560711 1.39225 -2.95584e-20)
(0.456379 1.27765 1.01599e-19)
(0.509873 1.23239 0)
(0.562413 1.19771 0)
(0.656694 2.42488 6.65395e-19)
(0.670438 2.46182 1.38017e-18)
(0.715967 2.4737 -9.50507e-19)
(0.615237 2.44973 -2.18864e-19)
(0.562268 2.54156 3.13404e-19)
(0.511712 2.51494 -8.302e-19)
(0.975502 2.37807 -6.39037e-19)
(1.01163 2.39235 0)
(0.921089 2.16692 -7.36008e-19)
(1.05243 2.6843 0)
(1.05452 2.67091 0)
(0.612996 2.27753 -1.50676e-19)
(1.04209 3.16453 9.98366e-20)
(0.913263 3.03471 -1.68981e-21)
(0.282226 0.916793 0)
(0.323845 0.77863 -3.40059e-19)
(0.481444 0.733488 -3.48815e-19)
(0.392295 2.02478 0)
(0.467825 2.78643 -2.58462e-20)
(0.4247 2.55039 0)
(0.684259 0.680382 -9.34432e-19)
(0.76636 0.680498 1.28177e-18)
(0.786497 0.622766 -1.2703e-18)
(0.667439 0.642726 -1.20501e-19)
(0.724081 0.596814 -5.01085e-19)
(1.00413 2.76818 -7.59121e-20)
(1.04091 2.82504 -2.1779e-19)
(0.6415 2.15562 7.23071e-19)
(0.596823 1.71901 -5.11953e-19)
(0.69968 1.91023 -4.66916e-19)
(0.989523 2.45125 -1.19981e-19)
(0.994192 2.44584 3.5354e-19)
(0.661499 1.85141 3.19483e-20)
(0.451365 1.3368 1.72122e-19)
)
;

boundaryField
{
    wall-4
    {
        type            noSlip;
    }
    velocity-inlet-5
    {
        type            fixedValue;
        value           uniform (1 0 0);
    }
    velocity-inlet-6
    {
        type            fixedValue;
        value           uniform (0 3 0);
    }
    pressure-outlet-7
    {
        type            zeroGradient;
    }
    wall-8
    {
        type            noSlip;
    }
    frontAndBackPlanes
    {
        type            empty;
    }
}


// ************************************************************************* //
