/*--------------------------------*- C++ -*----------------------------------*\
  =========                 |
  \\      /  F ield         | OpenFOAM: The Open Source CFD Toolbox
   \\    /   O peration     | Website:  https://openfoam.org
    \\  /    A nd           | Version:  13
     \\/     M anipulation  |
\*---------------------------------------------------------------------------*/
FoamFile
{
    format      ascii;
    class       volScalarField;
    location    "4.37";
    object      T;
}
// * * * * * * * * * * * * * * * * * * * * * * * * * * * * * * * * * * * * * //

dimensions      [0 0 0 1 0 0 0];

internalField   nonuniform List<scalar> 
1000
(
3.14324e-51
3.92744e-51
5.68813e-51
8.8562e-51
1.42047e-50
2.30344e-50
3.74839e-50
6.10391e-50
9.93588e-50
1.6161e-49
2.62619e-49
4.26345e-49
6.91451e-49
1.12028e-48
1.81321e-48
2.9318e-48
4.73564e-48
7.64159e-48
1.23182e-47
1.98368e-47
3.1912e-47
5.12857e-47
8.23375e-47
1.32056e-46
2.1158e-46
3.3865e-46
5.41483e-46
8.64921e-46
1.38015e-45
2.20005e-45
3.50346e-45
5.57337e-45
8.85718e-45
1.40614e-44
2.23008e-44
3.5332e-44
5.59205e-44
8.84158e-44
1.39651e-43
2.20351e-43
3.47328e-43
5.46915e-43
8.60309e-43
1.3519e-42
2.12221e-42
3.32803e-42
5.21362e-42
8.15916e-42
1.27557e-41
1.99213e-41
3.10803e-41
4.84401e-41
7.54185e-41
1.17301e-40
1.82256e-40
2.82886e-40
4.38625e-40
6.79404e-40
1.05127e-39
1.62499e-39
2.50923e-39
3.87062e-39
5.96447e-39
9.1815e-39
1.41191e-38
2.16895e-38
3.32845e-38
5.10253e-38
7.8141e-38
1.19542e-37
1.8269e-37
2.78905e-37
4.2535e-37
6.48016e-37
9.86221e-37
1.49938e-36
2.27718e-36
3.45486e-36
5.23615e-36
7.92759e-36
1.199e-35
1.81152e-35
2.7341e-35
4.12224e-35
6.20869e-35
9.34141e-35
1.40401e-34
2.10803e-34
3.16176e-34
4.73725e-34
7.09039e-34
1.06013e-33
1.58341e-33
2.36252e-33
3.52128e-33
5.24288e-33
7.79804e-33
1.15863e-32
1.71969e-32
2.54975e-32
3.77651e-32
5.58762e-32
8.25861e-32
1.21936e-31
1.79845e-31
2.64977e-31
3.89997e-31
5.734e-31
8.42165e-31
1.2356e-30
1.81093e-30
2.65136e-30
3.87773e-30
5.66536e-30
8.26836e-30
1.20546e-29
1.75561e-29
2.55413e-29
3.71194e-29
5.38889e-29
7.81516e-29
1.13218e-28
1.63846e-28
2.36863e-28
3.42056e-28
4.93443e-28
7.11077e-28
1.02361e-27
1.47195e-27
2.11443e-27
3.0341e-27
4.34916e-27
6.2276e-27
8.90787e-27
1.27282e-26
1.81676e-26
2.59039e-26
3.68954e-26
5.24948e-26
7.46102e-26
1.0593e-25
1.50236e-25
2.12848e-25
3.01232e-25
4.25863e-25
6.01416e-25
8.48432e-25
1.19563e-24
1.6831e-24
2.3668e-24
3.32467e-24
4.66522e-24
6.5393e-24
9.15642e-24
1.28072e-23
1.78946e-23
2.49759e-23
3.48223e-23
4.84985e-23
6.74736e-23
9.37722e-23
1.30181e-22
1.80533e-22
2.50093e-22
3.46082e-22
4.78398e-22
6.60595e-22
9.112e-22
1.25553e-21
1.72811e-21
2.37603e-21
3.26335e-21
4.47723e-21
6.13603e-21
8.40038e-21
1.1488e-20
1.56935e-20
2.14155e-20
2.91923e-20
3.97504e-20
5.40688e-20
7.34656e-20
9.97132e-20
1.35193e-19
1.83099e-19
2.47713e-19
3.34768e-19
4.51928e-19
6.09434e-19
8.20946e-19
1.10467e-18
1.48485e-18
1.99372e-18
2.67408e-18
3.58274e-18
4.79497e-18
6.41044e-18
8.56089e-18
1.14204e-17
1.52185e-17
2.02578e-17
2.69366e-17
3.57786e-17
4.74715e-17
6.29176e-17
8.32991e-17
1.10163e-16
1.45534e-16
1.92052e-16
2.53164e-16
3.33361e-16
4.38487e-16
5.76138e-16
7.56179e-16
9.91406e-16
1.29839e-15
1.69859e-15
2.21973e-15
2.89761e-15
3.77839e-15
4.92155e-15
6.4036e-15
8.3229e-15
1.08057e-14
1.40139e-14
1.81548e-14
2.34937e-14
3.03695e-14
3.92151e-14
5.05818e-14
6.51723e-14
8.38801e-14
1.0784e-13
1.38494e-13
1.77667e-13
2.27672e-13
2.91434e-13
3.72646e-13
4.75969e-13
6.07279e-13
7.73969e-13
9.85338e-13
1.25306e-12
1.5918e-12
2.01989e-12
2.56033e-12
3.24181e-12
4.10022e-12
5.18026e-12
6.53766e-12
8.24174e-12
1.03787e-11
1.30554e-11
1.64045e-11
2.05903e-11
2.5816e-11
3.23326e-11
4.04499e-11
5.05498e-11
6.31026e-11
7.86867e-11
9.80122e-11
1.21951e-10
1.51571e-10
1.88179e-10
2.33374e-10
2.89107e-10
3.57759e-10
4.42229e-10
5.46047e-10
6.73501e-10
8.29797e-10
1.02125e-09
1.2555e-09
1.54179e-09
1.8913e-09
2.31751e-09
2.83666e-09
3.46831e-09
4.23599e-09
5.16794e-09
6.29804e-09
7.66688e-09
9.32304e-09
1.13246e-08
1.37408e-08
1.66544e-08
2.01637e-08
2.43858e-08
2.94598e-08
3.55507e-08
4.28541e-08
5.16015e-08
6.20667e-08
7.45728e-08
8.95012e-08
1.07301e-07
1.285e-07
1.5372e-07
1.83689e-07
2.19261e-07
2.61438e-07
3.11387e-07
3.70475e-07
4.40296e-07
5.22705e-07
6.19864e-07
7.34281e-07
8.68872e-07
1.02701e-06
1.21262e-06
1.43021e-06
1.68501e-06
1.98304e-06
2.33126e-06
2.73764e-06
3.21137e-06
3.76299e-06
4.40457e-06
5.14995e-06
6.01493e-06
7.01757e-06
8.17847e-06
9.52109e-06
1.10721e-05
1.28619e-05
1.49247e-05
1.72997e-05
2.0031e-05
2.31684e-05
2.67682e-05
3.08939e-05
3.5617e-05
4.10179e-05
4.71868e-05
5.4225e-05
6.22458e-05
7.13761e-05
8.17575e-05
9.35482e-05
0.000106924
0.000122081
0.000139237
0.000158634
0.000180539
0.000205248
0.000233089
0.000264424
0.000299649
0.000339205
0.000383572
0.000433279
0.000488906
0.000551087
0.000620515
0.000697946
0.000784206
0.00088019
0.000986875
0.00110532
0.00123667
0.00138216
0.00154313
0.00172104
0.00191743
0.00213398
0.00237249
0.00263489
0.00292324
0.00323974
0.00358674
0.00396676
0.00438247
0.00483669
0.00533242
0.00587285
0.00646133
0.0071014
0.0077968
0.00855145
0.00936945
0.0102551
0.011213
0.0122477
0.0133642
0.0145675
0.015863
0.017256
0.0187523
0.0203576
0.022078
0.0239195
0.0258885
0.0279914
0.0302346
0.032625
0.0351691
0.0378738
0.0407459
0.0437923
0.04702
0.0504358
0.0540464
0.0578587
0.0618794
0.0661149
0.0705717
0.075256
0.0801737
0.0853306
0.0907321
0.0963833
0.102289
0.108454
0.114882
0.121576
0.12854
0.135775
0.143285
0.151071
0.159133
0.167472
0.176088
0.184979
0.194143
0.203579
0.213282
0.223251
0.233478
0.243961
0.254692
0.265665
0.276872
0.288305
0.299956
0.311814
0.32387
0.336113
0.348531
0.361113
0.373845
0.386715
0.399709
0.412812
0.426012
0.439292
0.452637
0.466033
0.479463
0.492913
0.506365
0.519804
0.533214
0.546579
0.559883
0.57311
0.586245
0.599272
0.612176
0.624943
0.637557
0.650005
0.662272
0.674347
0.686214
0.697863
0.709282
0.720458
0.731381
0.742042
0.752429
0.762535
0.77235
0.781866
0.791076
0.799973
0.808551
0.816803
0.824724
0.832309
0.839554
0.846455
0.853008
0.85921
0.865057
0.870549
0.875681
0.880453
0.884863
0.888909
0.89259
0.895906
0.898855
0.901436
0.90365
0.905495
0.906972
0.908079
0.908818
0.909187
0.909187
0.908818
0.908079
0.906972
0.905495
0.90365
0.901436
0.898855
0.895906
0.89259
0.888909
0.884863
0.880453
0.875681
0.870549
0.865057
0.85921
0.853008
0.846455
0.839554
0.832309
0.824724
0.816803
0.808551
0.799973
0.791076
0.781866
0.77235
0.762535
0.752429
0.742042
0.731381
0.720458
0.709282
0.697863
0.686214
0.674347
0.662272
0.650005
0.637557
0.624943
0.612176
0.599272
0.586245
0.57311
0.559883
0.546579
0.533214
0.519804
0.506365
0.492913
0.479463
0.466033
0.452637
0.439292
0.426012
0.412812
0.399709
0.386715
0.373845
0.361113
0.348531
0.336113
0.32387
0.311814
0.299956
0.288305
0.276872
0.265665
0.254692
0.243961
0.233478
0.223251
0.213282
0.203579
0.194143
0.184979
0.176088
0.167472
0.159133
0.151071
0.143285
0.135775
0.12854
0.121576
0.114882
0.108454
0.102289
0.0963833
0.0907321
0.0853306
0.0801737
0.075256
0.0705717
0.0661149
0.0618794
0.0578587
0.0540464
0.0504358
0.04702
0.0437923
0.0407459
0.0378738
0.0351691
0.032625
0.0302346
0.0279914
0.0258885
0.0239195
0.022078
0.0203576
0.0187523
0.017256
0.015863
0.0145675
0.0133642
0.0122477
0.011213
0.0102551
0.00936945
0.00855145
0.0077968
0.0071014
0.00646133
0.00587285
0.00533242
0.00483669
0.00438247
0.00396676
0.00358674
0.00323974
0.00292324
0.00263489
0.00237249
0.00213398
0.00191743
0.00172104
0.00154313
0.00138216
0.00123667
0.00110532
0.000986875
0.00088019
0.000784206
0.000697946
0.000620515
0.000551087
0.000488906
0.000433279
0.000383572
0.000339205
0.000299649
0.000264424
0.000233089
0.000205248
0.000180539
0.000158634
0.000139237
0.000122081
0.000106924
9.35482e-05
8.17575e-05
7.13761e-05
6.22458e-05
5.4225e-05
4.71868e-05
4.10179e-05
3.5617e-05
3.08939e-05
2.67682e-05
2.31684e-05
2.0031e-05
1.72997e-05
1.49247e-05
1.28619e-05
1.10721e-05
9.52109e-06
8.17847e-06
7.01757e-06
6.01493e-06
5.14995e-06
4.40457e-06
3.76299e-06
3.21137e-06
2.73764e-06
2.33126e-06
1.98304e-06
1.68501e-06
1.43021e-06
1.21262e-06
1.02701e-06
8.68872e-07
7.34281e-07
6.19864e-07
5.22705e-07
4.40296e-07
3.70475e-07
3.11387e-07
2.61438e-07
2.19261e-07
1.83689e-07
1.5372e-07
1.285e-07
1.07301e-07
8.95012e-08
7.45728e-08
6.20667e-08
5.16015e-08
4.28541e-08
3.55507e-08
2.94598e-08
2.43858e-08
2.01637e-08
1.66544e-08
1.37408e-08
1.13246e-08
9.32304e-09
7.66688e-09
6.29804e-09
5.16794e-09
4.23599e-09
3.46831e-09
2.83666e-09
2.31751e-09
1.8913e-09
1.54179e-09
1.2555e-09
1.02125e-09
8.29797e-10
6.73501e-10
5.46047e-10
4.42229e-10
3.57759e-10
2.89107e-10
2.33374e-10
1.88179e-10
1.51571e-10
1.21951e-10
9.80122e-11
7.86867e-11
6.31026e-11
5.05498e-11
4.04499e-11
3.23326e-11
2.5816e-11
2.05903e-11
1.64045e-11
1.30554e-11
1.03787e-11
8.24174e-12
6.53766e-12
5.18026e-12
4.10022e-12
3.24181e-12
2.56033e-12
2.01989e-12
1.5918e-12
1.25306e-12
9.85338e-13
7.73969e-13
6.07279e-13
4.75969e-13
3.72646e-13
2.91434e-13
2.27672e-13
1.77667e-13
1.38494e-13
1.0784e-13
8.38801e-14
6.51723e-14
5.05818e-14
3.92151e-14
3.03695e-14
2.34937e-14
1.81548e-14
1.40139e-14
1.08057e-14
8.3229e-15
6.4036e-15
4.92155e-15
3.77839e-15
2.89761e-15
2.21973e-15
1.69859e-15
1.29839e-15
9.91406e-16
7.56179e-16
5.76138e-16
4.38487e-16
3.33361e-16
2.53164e-16
1.92052e-16
1.45534e-16
1.10163e-16
8.32991e-17
6.29176e-17
4.74715e-17
3.57786e-17
2.69366e-17
2.02578e-17
1.52185e-17
1.14204e-17
8.56089e-18
6.41044e-18
4.79497e-18
3.58274e-18
2.67408e-18
1.99372e-18
1.48485e-18
1.10467e-18
8.20946e-19
6.09434e-19
4.51928e-19
3.34768e-19
2.47713e-19
1.83099e-19
1.35193e-19
9.97132e-20
7.34656e-20
5.40688e-20
3.97504e-20
2.91923e-20
2.14155e-20
1.56935e-20
1.1488e-20
8.40038e-21
6.13603e-21
4.47723e-21
3.26335e-21
2.37603e-21
1.72811e-21
1.25553e-21
9.112e-22
6.60595e-22
4.78398e-22
3.46082e-22
2.50093e-22
1.80533e-22
1.30181e-22
9.37722e-23
6.74736e-23
4.84985e-23
3.48223e-23
2.49759e-23
1.78946e-23
1.28072e-23
9.15642e-24
6.5393e-24
4.66522e-24
3.32467e-24
2.3668e-24
1.6831e-24
1.19563e-24
8.48432e-25
6.01416e-25
4.25863e-25
3.01232e-25
2.12848e-25
1.50236e-25
1.0593e-25
7.46102e-26
5.24948e-26
3.68954e-26
2.59039e-26
1.81676e-26
1.27282e-26
8.90787e-27
6.2276e-27
4.34916e-27
3.0341e-27
2.11443e-27
1.47195e-27
1.02361e-27
7.11077e-28
4.93443e-28
3.42056e-28
2.36863e-28
1.63846e-28
1.13218e-28
7.81516e-29
5.38889e-29
3.71194e-29
2.55413e-29
1.75561e-29
1.20546e-29
8.26836e-30
5.66536e-30
3.87773e-30
2.65136e-30
1.81093e-30
1.2356e-30
8.42165e-31
5.734e-31
3.89997e-31
2.64977e-31
1.79845e-31
1.21936e-31
8.25861e-32
5.58762e-32
3.77651e-32
2.54975e-32
1.71969e-32
1.15863e-32
7.79804e-33
5.24288e-33
3.52128e-33
2.36252e-33
1.58341e-33
1.06013e-33
7.09039e-34
4.73725e-34
3.16176e-34
2.10803e-34
1.40401e-34
9.34141e-35
6.20869e-35
4.12224e-35
2.7341e-35
1.81152e-35
1.199e-35
7.92759e-36
5.23615e-36
3.45486e-36
2.27718e-36
1.49938e-36
9.86221e-37
6.48016e-37
4.2535e-37
2.78905e-37
1.8269e-37
1.19542e-37
7.8141e-38
5.10253e-38
3.32845e-38
2.16895e-38
1.41191e-38
9.1815e-39
5.96447e-39
3.87062e-39
2.50923e-39
1.62499e-39
1.05127e-39
6.79404e-40
4.38625e-40
2.82886e-40
1.82256e-40
1.17301e-40
7.54185e-41
4.84401e-41
3.10803e-41
1.99213e-41
1.27557e-41
8.15916e-42
5.21362e-42
3.32803e-42
2.12221e-42
1.3519e-42
8.60309e-43
5.46915e-43
3.47328e-43
2.20351e-43
1.39651e-43
8.84158e-44
5.59205e-44
3.5332e-44
2.23008e-44
1.40614e-44
8.85718e-45
5.57337e-45
3.50346e-45
2.20005e-45
1.38015e-45
8.64921e-46
5.41483e-46
3.3865e-46
2.1158e-46
1.32056e-46
8.23375e-47
5.12857e-47
3.1912e-47
1.98368e-47
1.23182e-47
7.64159e-48
4.73564e-48
2.9318e-48
1.81321e-48
1.12028e-48
6.91451e-49
4.26345e-49
2.62619e-49
1.6161e-49
9.93588e-50
6.10391e-50
3.74839e-50
2.30344e-50
1.42047e-50
8.8562e-51
5.68813e-51
3.92744e-51
3.14324e-51
)
;

boundaryField
{
    sides
    {
        type            zeroGradient;
    }
    empty
    {
        type            empty;
    }
}


// ************************************************************************* //
