/*--------------------------------*- C++ -*----------------------------------*\
  =========                 |
  \\      /  F ield         | OpenFOAM: The Open Source CFD Toolbox
   \\    /   O peration     | Website:  https://openfoam.org
    \\  /    A nd           | Version:  13
     \\/     M anipulation  |
\*---------------------------------------------------------------------------*/
FoamFile
{
    format      ascii;
    class       volScalarField;
    location    "52";
    object      p;
}
// * * * * * * * * * * * * * * * * * * * * * * * * * * * * * * * * * * * * * //

dimensions      [0 2 -2 0 0 0 0];

internalField   nonuniform List<scalar> 
918
(
0.559431
1.1966
0.00142876
0.55883
-0.00786667
1.16359
-0.502477
0.692459
0.539607
-0.100257
-0.0335399
0.537432
1.02433
0.788667
-1.1216
-0.00288899
0.65614
-0.380607
0.538681
-0.0453308
0.719773
0.546167
0.549195
0.539777
0.606273
0.764737
0.905159
0.021138
0.00941767
0.00440879
-0.0130405
-0.0340988
-0.0292096
1.04725
1.09832
1.12101
0.507591
0.335704
-0.368521
-0.437658
-0.430956
-0.544139
0.68758
0.686128
-0.196185
0.695214
0.699288
0.526702
0.538974
0.53988
0.540927
0.539897
0.541284
0.410805
-0.103556
-0.136089
-0.0801957
-0.0714774
0.064011
-0.0348296
-0.0375949
-0.0316693
-0.0317374
0.457278
0.532299
0.529299
0.542708
0.552331
1.13615
1.10809
1.13422
1.04786
1.06435
1.00233
0.974896
0.810522
0.832397
0.772511
0.759633
-1.55589
-2.51181
-0.529353
-0.277638
-0.0151307
-0.000603659
0.00524462
0.651713
0.651935
0.656739
0.661982
1.08469
-0.379414
-0.476625
0.538818
0.537621
0.545969
0.546667
0.542684
0.541775
-0.0356568
-0.0326514
-0.0424254
-0.043701
-0.0423813
0.708862
0.707983
0.540311
0.537321
0.55916
0.580221
0.572508
0.283278
0.610882
0.62486
0.594044
0.756196
0.750549
0.759373
0.878805
0.841611
0.942292
0.965656
0.0173716
-0.000223189
-0.0100176
-0.0166387
-0.0141612
0.50346
0.496069
0.523011
0.510991
0.513472
0.25171
0.11734
0.421309
0.446603
-0.285541
-0.348141
-0.426161
-0.455417
-0.56648
0.613334
0.679667
0.676731
-0.210124
-0.137008
-0.268382
-0.0634759
-0.124927
0.517023
0.523993
0.519014
0.534508
0.528988
0.530945
0.543229
0.540305
0.541862
0.47327
0.597075
0.337167
0.302439
-0.241718
-0.15361
-0.242634
-0.0593146
-0.0550253
0.0777622
0.103051
0.0512029
0.0393065
-0.0481527
-0.0411705
-0.0443184
-0.0300247
-0.0297715
0.450135
0.439082
0.469877
0.47736
0.521458
0.52276
0.52651
0.524781
0.925794
0.948221
0.955611
0.929352
-3.50628
-6.29696
0.0488421
0.186125
-0.00506114
-0.00980339
0.00497557
-0.00854221
-0.0021652
-0.00378493
0.00349014
0.00171323
0.00585613
0.00815914
0.644605
0.645079
1.00491
1.00892
0.983154
0.935026
0.52698
0.529069
0.53459
0.530461
-0.029413
-0.0304262
-0.0288556
0.701293
0.705981
0.704438
0.245377
0.156832
0.333694
0.36239
0.637783
0.626689
0.636493
0.655285
0.690119
0.973123
0.991245
0.98954
0.997778
1.04182
1.05824
1.02355
0.483116
0.492985
0.487993
0.526161
0.523906
0.524824
0.520518
0.521899
0.519792
-0.0338819
-0.415635
0.495709
0.513781
0.496287
0.500787
0.692831
0.770264
0.663136
0.671035
0.668639
0.00490755
-0.053235
0.258484
0.225155
0.390333
0.426386
0.405532
0.897004
0.857201
0.90732
0.880827
0.842157
0.868507
-0.367322
-1.87248
-0.988553
0.536916
0.350908
0.438332
0.0213217
0.0042156
0.00906671
1.00235
1.07733
0.652859
0.825386
0.829843
0.727784
0.758057
0.814797
0.738046
0.774404
0.811024
0.79198
0.570094
0.509065
0.523347
0.83933
0.895047
0.127938
0.0685111
0.024359
0.121559
0.178287
0.152644
1.0386
0.9496
1.02043
0.537076
0.537787
-0.000270937
-0.0125974
0.54199
0.54204
-0.0126166
0.0010282
0.421366
-0.83042
0.110244
0.530535
0.520567
0.537622
-0.083568
0.363368
-0.0354473
0.0590595
0.00394011
0.534636
0.468224
0.427872
0.00527712
-0.0127817
-0.0387676
-0.211853
0.534747
0.533054
0.537089
0.538046
0.538718
-0.012354
-0.00815528
-0.00593988
-0.0367648
-0.0325292
-0.0428739
0.501776
0.520303
-0.164779
0.537229
0.539357
0.539177
0.53241
0.538051
0.536295
-0.00396003
-0.0116991
-0.0122703
0.227163
0.355899
0.662734
0.75135
0.63415
0.408705
0.172301
0.565025
0.628823
0.533894
0.68812
0.676063
0.690918
0.175489
0.0254499
0.18462
0.126025
0.528393
0.527085
0.518824
0.515829
0.532484
0.530588
0.535154
0.532155
0.535106
0.536498
-0.0413953
-0.0650512
-0.0789532
-0.14616
0.318225
0.579969
0.260389
0.290903
0.151329
-0.0291972
-0.0292865
-0.0343018
-0.0413466
0.0131934
-0.0109353
0.0542235
0.0549612
0.0278148
0.000912882
0.00529225
-0.00575605
-0.0025463
0.527666
0.526069
0.532451
0.541716
0.477771
0.481534
0.446799
0.467286
0.452678
0.392089
0.427132
0.40235
-0.00234279
0.00882978
-0.000568936
-0.0087808
-0.00396748
-0.0232728
-0.0210502
-0.0167136
-0.0131133
-0.0203386
-0.0333734
-0.0313808
-0.170276
-0.28578
0.991474
0.91723
0.134619
0.523918
0.530354
0.527129
0.532002
0.535128
0.535946
0.533672
0.530227
0.520699
0.52228
0.519019
0.519807
-0.0970509
-0.237961
-0.0659878
-0.13817
0.146396
0.629229
0.367827
0.304755
0.29966
0.526667
0.928019
0.714918
0.690821
0.704677
-0.338866
0.0536978
-0.273803
0.344241
0.168304
0.662815
0.711697
0.73229
0.680615
0.633657
-0.102714
0.558108
-0.0631156
-0.0129981
0.186824
0.0671191
0.688374
0.660577
0.663794
0.680854
0.697636
0.666685
0.650365
0.645046
0.677225
0.680553
0.495429
0.258387
0.210258
0.171656
0.646476
0.531518
0.585335
0.501058
0.52352
0.526172
0.524792
0.50657
0.514097
0.509667
0.516029
0.519451
0.528196
0.52863
0.523953
0.526099
-0.0458417
-0.0491357
-0.0233093
-0.133042
-0.124158
-0.185905
-0.0588747
0.0793245
0.0411204
0.238919
0.344679
0.0561817
-0.0554404
-0.0278877
0.0118314
0.182868
0.208825
0.0824996
0.17102
0.159519
0.142903
0.244389
0.248993
-0.0148162
-0.0191711
-0.022439
-0.0241484
0.0302323
0.0999413
0.109821
0.00814454
0.00222427
-0.0273108
-0.0271364
-0.0128922
-0.0171309
-0.0134456
0.0206128
-0.0416255
-0.00967586
0.00576786
0.0110718
0.00792987
0.00280909
0.519939
0.522275
0.521885
0.529005
0.547507
0.563525
0.519959
0.499784
0.490656
0.493649
0.466813
0.477042
0.472723
0.48641
0.507483
0.516846
0.514178
0.51694
0.49963
0.501298
0.487821
0.491529
0.466597
0.44778
0.435947
-0.032486
0.00485029
-0.00195379
-0.0302285
-0.00189533
-0.01414
0.00146415
0.0204385
0.00430069
0.00171303
-0.00836188
-0.0153191
-0.014574
-0.0716302
0.0137163
-0.179911
-0.217742
-0.287991
0.893088
1.01691
0.814718
0.587999
0.605827
0.848856
0.934177
0.549954
0.73986
0.763827
0.58841
0.853975
0.528737
0.528343
0.525947
0.525423
0.526642
-0.0042217
0.0998755
0.10115
0.162041
0.278394
0.390987
0.318831
0.193552
0.324591
0.327661
0.62161
0.634197
0.589747
0.613749
0.614041
0.430347
0.506239
0.558513
0.515687
0.567729
0.588621
0.544403
0.576637
0.526883
0.481449
0.477527
0.428274
0.447955
0.424537
0.407301
0.518776
0.496019
0.506597
0.496844
0.516305
0.540877
0.537262
0.568972
0.580104
0.500331
0.456492
0.465728
0.496132
0.456996
0.471963
0.48814
0.233311
0.134536
0.217063
-0.0711359
0.00359137
-0.0104482
-0.0582266
-0.00899839
0.276102
-0.417829
-0.393736
-1.02323
0.502757
0.960534
0.635592
0.608607
0.69454
0.676504
0.681324
0.69821
0.702359
0.636457
0.652007
0.654287
0.617183
0.640305
0.660066
0.657233
0.528114
0.392236
0.388906
0.339804
0.210008
0.248334
0.448453
0.370949
0.295763
0.296781
0.463725
0.350995
0.419914
0.455689
0.386853
0.340824
0.544424
0.609555
0.601545
0.575847
0.491709
0.505263
0.529323
0.564359
0.590243
0.621262
0.515558
0.52143
0.522673
0.520165
0.517422
0.520431
0.520634
0.523171
0.523873
0.526843
0.525872
-0.0361532
-0.0239531
-0.0368911
-0.0449961
-0.0131053
-0.0168361
0.026548
0.0128704
-0.00272621
0.00331013
-0.0230013
-0.0273404
-0.0223561
-0.013243
0.105134
0.117666
0.101243
0.0617754
0.25239
0.382852
0.456186
0.332027
0.224808
0.248348
0.269264
-0.00353094
0.0242643
0.0112469
0.0498633
0.0411573
-0.0210398
-0.0256995
-0.0230615
-0.0162514
-0.00691299
-0.0228368
-0.0248925
-0.0172106
-0.0209962
-0.0223711
-0.024932
0.502018
0.49554
0.497236
0.491108
0.48983
0.50406
0.508276
0.510246
0.515677
0.517933
0.508105
0.513809
0.517571
0.00199584
-0.0219228
-0.0253851
-0.0134305
-0.0171772
-0.0160371
-0.0183076
0.123841
0.052227
0.0567785
0.0106421
-0.119623
-0.0620452
0.492176
0.492039
0.483912
0.721626
0.571138
0.49176
0.589172
0.694406
0.275543
0.473787
0.307737
0.889794
0.785102
0.931526
0.543556
0.245367
0.405415
0.452578
0.263353
0.336594
0.330153
0.21801
0.249455
0.285086
0.385756
0.266656
0.242738
0.00031614
0.189875
0.303166
0.284814
0.410902
0.472734
0.265869
0.186986
0.141089
0.607869
0.626895
0.642207
0.61458
0.635469
0.57924
0.568269
0.586506
0.596129
0.590998
-0.75086
-0.457512
-1.40336
-0.722527
-0.269435
0.533441
0.501134
0.76905
0.65126
0.699486
0.684523
0.64309
0.611065
0.630936
0.657289
0.352832
0.4642
0.439301
0.444383
0.345842
0.27717
0.576686
0.571503
0.605695
0.629334
0.599469
0.630227
0.513366
0.513053
0.512585
0.50887
0.507131
0.509444
0.0653868
0.0344247
0.0698967
0.0505135
0.0276886
0.0161911
0.00568922
-0.00377507
-0.0106941
-0.0115764
0.00197342
0.00547031
0.170556
0.109658
0.0296978
0.0595305
-0.00038451
-0.0693269
-0.0869045
0.0151315
0.110319
0.100937
0.405778
0.656651
0.476574
0.643926
0.485435
0.541265
0.472948
0.46466
0.490944
0.381682
0.461572
0.241493
-0.265351
-0.174131
0.789975
0.803778
0.584689
0.405133
0.173761
0.355878
0.548822
0.4815
0.518382
0.587386
0.576322
0.0228761
0.0843484
0.360502
0.587916
0.239728
0.230661
0.224772
0.404947
0.325493
)
;

boundaryField
{
    wall-4
    {
        type            zeroGradient;
    }
    velocity-inlet-5
    {
        type            zeroGradient;
    }
    velocity-inlet-6
    {
        type            zeroGradient;
    }
    pressure-outlet-7
    {
        type            fixedValue;
        value           uniform 0;
    }
    wall-8
    {
        type            zeroGradient;
    }
    frontAndBackPlanes
    {
        type            empty;
    }
}


// ************************************************************************* //
