/*--------------------------------*- C++ -*----------------------------------*\
  =========                 |
  \\      /  F ield         | OpenFOAM: The Open Source CFD Toolbox
   \\    /   O peration     | Website:  https://openfoam.org
    \\  /    A nd           | Version:  13
     \\/     M anipulation  |
\*---------------------------------------------------------------------------*/
FoamFile
{
    format      ascii;
    class       surfaceScalarField;
    location    "52";
    object      phi;
}
// * * * * * * * * * * * * * * * * * * * * * * * * * * * * * * * * * * * * * //

dimensions      [0 3 -1 0 0 0 0];

internalField   nonuniform List<scalar> 
1300
(
3.75095
5.62643
-3.28964
3.75095
-7.75423
5.62643
-4.34506
4.34506
-0.620632
0.620632
1.8764
1.87456
-2.79369
2.79369
-2.26379
2.26379
-2.54146
2.54146
-5.24638
5.24638
-5.06865
5.06865
4.65909
-4.65909
-6.30035
6.30035
-1.00284
1.00284
-3.69528
3.69528
3.16967
-3.16967
-2.16007
2.16007
-0.0900784
0.0900784
-0.553491
4.30444
3.19746
3.19746
-2.00074
2.00074
-4.86697
4.86697
6.21794
-6.21794
5.28462
-5.28462
-1.99497
-2.41976
1.80572
-11.5661
-5.94851
-5.94851
-8.44038
8.44038
-2.81395
2.81248
2.9453
-2.9453
-1.77999
1.77999
-4.30489
-0.0401689
-4.30489
4.31924
0.0258222
4.31924
-0.692083
0.0714507
-0.692083
3.94835
-3.94835
0.515296
0.105335
0.515296
3.06517
-3.06517
-1.8771
3.7535
1.87385
-1.87188
6.17633
-1.87907
3.75363
-6.00415
6.00415
-3.01192
0.218232
-3.01192
2.61005
0.183635
2.61005
-6.82371
6.82371
-2.30047
0.0366764
-2.30047
2.23372
0.0300704
2.23372
2.87681
-2.87681
-2.64949
0.108029
-2.64949
2.42394
0.117519
2.42394
0.353526
5.2729
-5.97996
8.79243
-5.2729
0.0265227
5.20831
0.0380729
5.20831
-5.10597
0.0373181
-5.10597
5.01309
0.0555588
5.01309
4.74734
-0.0882542
4.74734
-4.77559
0.116497
-4.77559
-3.40134
-4.02875
-6.44526
0.144909
-6.44526
-1.07073
0.0678954
-1.07073
0.917886
0.0849532
0.917886
-3.66868
3.66868
-4.08911
0.393826
-4.08911
3.12408
0.0455965
3.12408
1.8685
1.88246
5.61945
-5.61945
2.44978
-2.15569
-0.00437683
-2.15569
-2.19771
-3.08691
2.19771
-0.0376419
-0.319836
0.229758
-0.319836
3.15938
0.0380844
3.15938
2.25873
0.165212
-2.25873
0.257989
3.25999
-3.25999
1.33946
0.661287
1.33946
-5.5655
5.5655
4.9555
0.0575861
-4.9555
0.0885382
6.15644
0.061493
6.15644
-6.19955
-0.0183812
-6.19955
2.562
-4.98176
-2.5859
6.12454
0.175803
-6.12454
0.176035
2.91663
0.0286624
2.91663
-2.92006
2.92006
-2.98413
0.0388338
-2.98413
-2.17899
0.399006
-2.17899
1.48108
0.298904
1.48108
-4.20558
-0.0993145
-4.20558
-4.21636
0.127249
4.21636
0.102881
1.12245
-1.12245
-0.786723
0.0946408
-0.786723
-4.07102
-0.13456
4.07102
-0.122666
-3.83985
-0.108499
-3.83985
-3.02417
0.0400421
3.02417
0.0409966
3.11278
0.0465976
-3.11278
0.0476118
-1.87083
3.75328
-1.88013
3.75398
-5.62406
-0.38009
-5.62406
6.31248
-0.308328
6.31248
3.37046
0.324823
-3.37046
0.358537
2.46774
0.142318
2.46774
-6.7883
-0.0354094
-6.7883
6.80707
0.016641
6.80707
2.36561
0.102131
-2.36561
0.065134
2.20497
0.0287502
2.20497
2.89529
-0.0184817
2.89529
-2.87218
-0.00463067
-2.87218
2.79716
-2.79716
2.7274
0.069762
-2.7274
0.0779086
-11.1329
11.1145
-0.0350421
-11.0979
5.17327
5.17327
4.17617
0.571173
4.17617
-4.99291
0.217328
-4.99291
2.70124
-5.28714
3.02924
-6.43058
4.66052
-16.2266
4.32541
-8.35416
6.67671
-6.67671
6.56961
0.1071
-6.56961
0.124355
-1.17345
0.102721
-1.17345
-3.0639
-0.604779
-3.0639
4.31453
-0.645852
4.31453
-3.02844
3.02844
-3.07764
0.0491973
3.07764
0.0464345
2.18422
0.0207585
-2.18422
0.0285247
0.417557
0.0977391
-0.417557
0.097721
3.46571
-0.205724
3.46571
-3.06649
-0.193496
-3.06649
-1.2619
0.0884436
1.2619
0.077557
-5.81367
0.248166
-5.81367
-11.1909
0.0930024
-11.1528
-6.10655
-6.10655
2.33383
11.1263
-2.89121
0.0190244
2.89121
0.0254268
2.97542
0.0530242
-2.97542
0.0553628
-2.86126
0.064097
2.86126
0.058798
-2.55409
0.375093
-2.55409
-1.07609
1.07609
-1.24507
0.168983
1.24507
0.23601
1.3888
-0.266354
1.3888
0.851021
0.0668649
-0.851021
0.0642974
-3.74628
-0.0935687
-3.74628
6.54403
-0.231555
6.54403
-2.95505
-0.111442
2.95505
-0.0597578
-0.033359
11.1479
-5.13991
0.0339397
5.13991
-11.2094
11.2433
-3.2255
0.671413
3.2255
0.95067
5.28609
0.279414
-5.28609
0.293176
6.75838
0.0486812
-6.75838
0.0816735
-2.57183
-0.492068
-2.57183
-5.04156
-0.582502
5.04156
-0.727027
-11.4741
-0.204837
11.679
-11.4186
6.01851
0.137936
-6.01851
11.3812
-1.02886
-0.0935949
1.02886
0.0472351
1.7134
-0.324597
1.7134
3.65296
-0.187243
-3.65296
-0.0933257
-6.69494
-0.0933608
6.69494
-0.150904
-2.12859
-0.443241
2.12859
-0.41519
-4.26707
4.30515
1.90926
-2.42509
-2.55667
-5.51199
1.8519
1.90139
4.30168
-10.1737
-6.05287
-9.99768
7.2631
-6.96992
-9.25335
9.1651
7.81761
-7.92611
-5.78507
5.8315
6.48258
-6.44158
1.87874
1.87476
7.94773
-7.7295
-15.6435
15.2634
7.49499
-7.45831
15.7812
-15.8166
-17.8561
17.9047
-5.69959
5.80762
-6.73451
6.72988
-6.96481
6.90505
-2.86387
-3.56671
13.1277
-12.9828
8.54348
-8.54786
-8.56995
8.96378
3.38254
0.922616
3.42914
-1.88221
3.76095
-1.87141
3.78067
2.68193
-5.5458
2.60521
-5.16188
4.3153
4.22819
-4.27765
-1.23434
-5.92296
5.95162
-5.81678
5.87558
9.07145
-9.11162
-1.88514
3.75989
-1.86884
3.77023
-3.42505
-2.36002
3.37945
0.922226
8.09059
5.03714
-8.26639
-1.73129
-7.99985
7.81261
-8.21015
8.01665
-0.435323
5.81806
-5.38274
4.43164
-1.56156
7.37962
5.70154
5.91887
5.86636
-5.58694
1.10357
-6.48631
-6.39777
-2.37932
2.47396
2.27944
-2.1741
6.08707
1.73054
5.96441
-5.71841
-2.2077
-5.81198
3.82086
2.01065
3.87005
4.07783
2.40475
4.11787
3.03063
-3.03582
0.00519327
-3.0565
6.08713
0.724069
-5.41653
-4.4943
4.95965
2.98809
5.14328
-5.50742
-2.22208
-5.14888
-9.55816
-6.08536
-10.1407
10.1018
5.16168
9.79343
-11.9737
11.8228
4.78765
2.70734
4.81772
-4.91797
-2.54034
-4.85283
11.6295
-2.60452
-9.02502
-10.3246
-7.5315
10.3079
5.47328
10.9669
6.9378
11.0486
4.41999
7.20954
-9.89327
2.36178
-3.86178
-1.83781
-3.78387
3.66893
2.13869
3.78645
-4.21567
-2.51884
-4.19665
-4.29238
-2.67243
4.31087
2.41902
-4.41088
-3.79927
4.52232
2.38273
4.01771
-10.0706
4.33644
-7.90316
-9.2011
-3.78171
-9.07675
3.47935
2.62052
-6.09988
-2.06645
8.46266
-4.23448
7.22832
-5.17816
-3.3697
-5.14963
-6.82576
-1.74419
-6.69851
-8.8968
8.40473
-9.19461
8.54876
12.5827
-5.68024
-6.90244
-3.96832
-2.47325
3.92071
-0.491577
-3.71068
3.71587
0.0502755
3.83095
4.75356
4.26199
-3.88543
-1.93135
-3.83007
3.82767
2.0479
3.89177
6.79276
2.27868
6.81858
-6.56201
-2.54961
-6.66132
9.05578
-8.65677
2.87034
-2.78189
5.37407
2.64258
-5.16834
-2.8315
6.21043
-3.2109
-2.99953
-12.2002
10.5387
1.66154
-4.82062
-0.388981
-0.298903
-5.49173
-3.76162
5.37524
0.543628
11.0823
7.32073
-5.5132
5.76137
6.16576
6.22334
-0.174424
5.81897
-5.14756
5.2776
-2.53829
-2.7393
5.42805
-5.56261
-1.23327
-5.47457
4.24129
0.401798
1.59236
-1.3626
-1.85084
-0.528479
-1.78654
1.35993
0.919505
1.45767
0.926278
1.54768
-2.93933
0.554971
2.38436
-2.01305
-1.61913
-3.74686
-1.11831
4.86517
5.69943
2.11318
-5.6061
-0.205879
2.60003
-2.51508
-0.748573
-2.99829
2.21465
-2.96323
-3.66547
-2.0028
5.66827
-3.37017
-0.459904
3.31714
0.552913
-3.82662
-2.09634
3.78778
0.330089
-3.1268
6.19053
-3.06373
-5.05814
2.52803
3.5591
4.53867
-4.78961
2.44711
2.3425
-1.2305
4.23858
0.904703
4.3809
-6.85714
4.63506
5.77581
3.18797
-6.10063
0.951749
-5.90539
8.51702
-7.33573
-1.18129
4.12675
4.39027
7.1027
5.47998
-5.69406
12.7968
-1.17436
-6.16137
7.07975
-3.89178
4.82247
-8.71426
-10.3025
4.14108
-9.17444
10.9444
-1.76994
-3.62443
-8.34923
12.7989
-1.21265
-11.5862
8.58078
-4.21971
-4.3004
8.52011
-6.82423
6.84074
-1.98052
-4.86022
-10.1156
-5.70102
10.209
1.6138
-9.86556
12.2273
-2.65601
4.10462
0.713101
4.13337
3.27116
-5.43903
2.16786
3.55307
-5.53359
2.08164
-7.52067
-6.71779
12.0474
-5.32958
-10.4995
-9.51148
-0.988017
2.53404
9.6933
-9.47184
7.43251
2.03933
3.30453
0.58724
-3.37429
-0.409576
0.233246
4.53728
-4.77053
4.0197
4.18491
3.31029
1.22699
3.84372
2.1079
-3.86915
-0.3275
-4.16004
1.48761
-1.74102
-3.68778
5.17539
-4.06562
0.377841
-2.74385
-3.50136
6.24521
-4.58166
3.03711
3.15342
5.08501
-4.91176
1.4104
-2.39465
-2.51711
2.65521
-4.39624
1.98555
3.18984
4.36829
0.569016
5.84975
6.19762
-8.47027
0.567117
11.2348
-9.50347
2.46287
8.58575
-9.89538
0.383895
-8.69285
1.0016
-5.23607
-5.09828
5.15377
-6.89796
-3.56048
6.17383
0.644758
-6.27671
-0.421807
-6.04615
-2.85064
-6.4894
-3.05045
-6.14416
-8.74451
-1.65579
-7.08872
6.74894
-6.69335
-3.44732
7.42037
1.12838
-7.4187
7.32511
-7.49908
7.17448
0.0951564
3.62072
4.35714
1.88389
-2.39021
4.2741
-5.10695
7.38564
-8.69545
3.5885
4.17334
-6.72295
-4.52211
5.03169
4.02408
5.3306
8.91076
-10.3883
1.47754
-10.691
12.0285
-1.33757
-16.4628
5.77178
-7.55199
2.50323
0.367108
2.60595
0.568187
2.49925
-3.06743
-2.21371
-2.13615
-2.4138
-3.46254
5.87634
1.12293
-3.50008
2.37715
-3.56475
4.68767
-0.168636
-3.33144
5.29049
-2.79124
5.6576
-3.73338
1.92421
3.41919
5.74524
-2.32605
4.38949
-1.74691
1.90456
-4.23061
-1.55799
-2.96267
5.10136
-3.28253
3.66037
-0.33083
3.9912
-4.07995
0.869051
-0.769653
3.41526
3.67325
4.30159
-3.0746
2.92855
-4.67546
-1.30206
-4.10644
-0.9166
-0.27339
-3.74014
4.01353
6.00908
-6.28247
-5.24183
9.54301
-4.30118
7.70454
-5.389
-2.31554
-4.26159
-4.39518
3.8865
1.93247
9.63701
0.210688
-5.59969
-4.93687
-3.9862
3.13832
2.13927
-1.82608
3.48762
2.12498
-0.532625
0.47485
0.982824
1.79856
-1.32371
0.282055
1.5165
-1.08054
1.83787
0.762159
-1.90474
0.118194
-1.31044
3.52509
1.07392
-1.99343
0.669719
0.991875
-3.53017
4.98896
-2.64052
-2.34844
5.98083
1.13873
-3.77925
4.33584
-3.93404
2.36398
-3.48229
-1.41527
-5.34931
-3.61877
-2.53663
4.91378
-3.33972
5.4529
1.24831
-5.24702
6.49533
-3.69028
1.68749
-3.08037
3.84253
-0.997392
-2.08298
2.87505
2.79321
-3.01851
0.0202218
-0.143453
2.38454
-2.528
-0.578683
-2.59174
-4.57283
4.90292
-2.10602
4.55313
2.16808
-1.91604
6.46916
1.80978
-3.72582
-3.24836
-3.70826
-1.38332
3.15535
-0.593076
-4.25976
-5.4533
4.15763
0.22327
-6.96372
7.77728
-0.813551
-3.97564
-0.659423
4.78618
-6.01659
0.483003
-3.93495
3.84232
4.74703
4.9703
-11.3793
-0.206945
-6.2176
1.13466
-7.35226
5.52493
-3.56312
7.70421
-10.362
6.9147
-9.23364
6.52292
-0.82934
6.2466
-4.07873
2.77842
-8.47945
-6.86565
5.4591
-2.75176
6.1722
-3.11234
9.28454
-5.76835
5.24441
4.04013
-0.994985
-4.15465
-5.24389
4.2489
0.000521497
4.13389
4.97812
-2.87022
4.65062
2.26446
-4.65911
-2.13178
-6.4952
1.83609
-3.34179
-1.9189
3.75499
3.16611
3.75335
1.23789
-3.34378
7.16503
-8.15305
-1.83545
-3.26283
5.23146
-0.982557
3.37431
-6.63715
-1.86176
4.83528
-0.788092
-4.04719
0.844964
-4.40545
1.68046
-6.08591
5.2175
-5.63931
2.22119
-9.77318
-5.19752
-5.15028
-2.25908
-5.23999
-7.59054
5.33146
-1.81876
5.50635
-8.53864
7.75055
-3.4899
8.82136
-5.43847
-1.05093
5.85366
1.32082
10.1422
0.205994
-4.72811
-1.9094
3.89964
-1.99024
1.22893
-3.53415
0.365491
2.47716
3.50367
-6.71845
-0.00449701
-4.7326
-3.92242
7.94651
5.62059
11.6297
1.24136
9.13067
-1.18416
10.372
4.14644
4.38244
-3.02418
4.50172
0.989354
4.57786
-0.902857
2.82707
1.70309
1.77099
0.744092
2.30729
1.36595
3.17634
0.108911
-2.02724
4.62677
-8.61297
-0.972926
-8.04179
1.1233
5.71509
-4.59179
3.02041
-0.881142
1.03017
-0.025001
-1.40094
1.42595
-2.7643
-1.93357
-0.417068
-1.66418
2.3339
1.86091
-1.91683
-0.847474
0.355439
-3.97421
3.12685
-3.10663
-0.313417
6.18191
-2.80388
0.275884
-1.11639
-2.31585
-2.84433
2.72614
6.17632
0.292844
3.11259
5.19576
3.09942
0.229199
3.90479
-5.67474
-3.61587
-5.88168
-0.356754
4.42942
1.74385
7.94945
5.78398
4.80142
-1.83573
-9.98878
6.56563
-2.06391
5.22806
-1.18088
-4.90503
5.02431
2.36133
-5.66906
0.0297548
-4.87527
-6.93919
-0.516245
8.26679
-9.62594
8.57501
5.72437
1.36435
-4.41307
-0.737208
4.24409
0.138355
10.5104
-1.12722
-6.76135
7.88857
-4.58788
3.61495
0.782007
2.70561
2.20795
1.32681
-5.43454
-10.0263
-2.00159
-1.52858
-4.35003
0.515142
-2.37605
6.23465
-2.6197
3.91911
5.26887
6.29904
-2.14075
-4.14171
6.44193
-2.52282
3.77622
)
;

boundaryField
{
    wall-4
    {
        type            calculated;
        value           uniform 0;
    }
    velocity-inlet-5
    {
        type            calculated;
        value           uniform -3.75095;
    }
    velocity-inlet-6
    {
        type            calculated;
        value           uniform -5.62643;
    }
    pressure-outlet-7
    {
        type            calculated;
        value           nonuniform List<scalar> 8(3.28964 7.75423 4.41473 9.76034 7.43008 5.14789 5.73049 8.98593);
    }
    wall-8
    {
        type            calculated;
        value           uniform 0;
    }
    frontAndBackPlanes
    {
        type            empty;
    }
}


// ************************************************************************* //
