/*--------------------------------*- C++ -*----------------------------------*\
  =========                 |
  \\      /  F ield         | OpenFOAM: The Open Source CFD Toolbox
   \\    /   O peration     | Website:  https://openfoam.org
    \\  /    A nd           | Version:  13
     \\/     M anipulation  |
\*---------------------------------------------------------------------------*/
FoamFile
{
    format      ascii;
    class       volScalarField;
    location    "30";
    object      p;
}
// * * * * * * * * * * * * * * * * * * * * * * * * * * * * * * * * * * * * * //

dimensions      [0 2 -2 0 0 0 0];

internalField   nonuniform List<scalar> 
918
(
0.400922
1.05358
0.0329552
0.400174
-0.016234
1.02065
-0.659145
0.573355
0.381011
-0.241015
-0.199404
0.374081
0.881112
0.647586
-1.28578
-0.10776
0.525114
-0.537494
0.380002
-0.239948
0.608061
0.387646
0.390686
0.381282
0.441092
0.630039
0.761832
-0.0384711
0.0206243
-0.0299765
-0.0952429
-0.154588
-0.189317
0.90429
0.955384
0.978062
0.349678
0.176865
-0.517274
-0.589279
-0.580557
-0.707449
0.565497
0.568459
-0.324021
0.573363
0.583996
0.368342
0.380374
0.381285
0.382399
0.381326
0.382736
0.266341
-0.249434
-0.27678
-0.219244
-0.213899
-0.0587926
-0.19038
-0.192108
-0.207882
-0.222089
0.302098
0.370678
0.367968
0.378762
0.385827
0.993131
0.965042
0.991188
0.904847
0.921373
0.85908
0.831693
0.667997
0.689605
0.633157
0.622357
-1.72448
-2.68904
-0.688842
-0.433919
-0.0300124
-0.0661293
-0.0713471
0.515083
0.516552
0.525514
0.537655
0.922181
-0.534527
-0.666871
0.380131
0.378918
0.387327
0.38801
0.384018
0.383111
-0.267701
-0.267468
-0.105334
-0.22689
-0.186283
0.595969
0.594613
0.381833
0.378864
0.393485
0.413654
0.405578
0.138233
0.446935
0.463227
0.449822
0.619022
0.613548
0.622144
0.735246
0.698796
0.799155
0.82228
-0.0149003
-0.0106458
-0.130955
-0.184593
-0.178891
0.345661
0.338484
0.36401
0.352999
0.355393
0.0919486
-0.0442031
0.263512
0.288568
-0.426482
-0.490778
-0.595589
-0.612354
-0.724807
0.437043
0.554447
0.554948
-0.343341
-0.262504
-0.40197
-0.188826
-0.251791
0.358856
0.365659
0.360759
0.376063
0.370586
0.372511
0.384599
0.381698
0.38324
0.32935
0.451075
0.192366
0.160191
-0.396291
-0.298054
-0.392979
-0.205037
-0.200038
-0.0538346
-0.0335897
-0.0678921
-0.0706907
-0.194544
-0.194176
-0.195395
-0.240178
-0.248024
0.294874
0.28414
0.313807
0.320866
0.361755
0.362708
0.365556
0.364124
0.782435
0.804717
0.812343
0.786192
-3.69234
-6.50092
-0.103953
0.0353981
-0.0561164
-0.0528034
-0.0305752
-0.0651822
-0.0272132
-0.0162062
-0.052234
-0.0676726
-0.0209896
-0.0574876
0.500612
0.500949
0.838418
0.833671
0.823872
0.774218
0.368132
0.37029
0.375854
0.371705
-0.268615
-0.269779
-0.268724
0.581824
0.589335
0.589299
0.10254
0.0188597
0.185213
0.21235
0.486201
0.468936
0.483722
0.510808
0.547959
0.829751
0.848073
0.846245
0.854778
0.898873
0.915326
0.880621
0.326285
0.335576
0.330813
0.36729
0.364948
0.365909
0.361082
0.362766
0.360454
-0.197091
-0.582371
0.348406
0.364329
0.337301
0.347848
0.512596
0.583498
0.536671
0.544797
0.546167
-0.122465
-0.181093
0.117366
0.0895894
0.238044
0.272404
0.252739
0.753516
0.714183
0.764169
0.737445
0.698963
0.724267
-0.534413
-2.05164
-1.16127
0.391731
0.20187
0.290767
-0.0819267
-0.0767856
-0.0682973
0.823623
0.90332
0.507488
0.66925
0.681299
0.587623
0.617853
0.671967
0.598115
0.632194
0.667006
0.648237
0.395277
0.359863
0.358505
0.651708
0.707213
-0.00842369
-0.0616911
-0.107116
-0.0166155
0.043157
0.014145
0.871121
0.765588
0.838979
0.37859
0.379272
-0.0968104
-0.140338
0.383362
0.383374
-0.115442
-0.224574
0.273128
-0.995178
-0.0205575
0.37178
0.362202
0.379011
-0.232404
0.224422
-0.177259
-0.0625184
-0.104144
0.371799
0.31147
0.27353
-0.148123
-0.147504
-0.280662
-0.356678
0.376259
0.37458
0.37848
0.379511
0.380152
-0.176433
-0.161447
-0.119285
-0.315179
-0.216279
-0.246482
0.344017
0.360617
-0.311855
0.378621
0.380745
0.380568
0.373709
0.379357
0.377609
-0.179767
-0.211388
-0.217071
0.0886193
0.20526
0.52142
0.618108
0.485565
0.258696
0.0196345
0.420579
0.486698
0.388409
0.54793
0.54715
0.563872
0.0413789
-0.105745
0.0502294
-0.00543642
0.369675
0.36832
0.360471
0.357625
0.373893
0.371986
0.376559
0.373495
0.376433
0.377872
-0.186704
-0.202557
-0.228381
-0.286814
0.184581
0.442661
0.1158
0.144871
0.0226221
-0.185368
-0.193617
-0.172229
-0.188735
-0.113409
-0.125419
-0.0760371
-0.0624176
-0.0947752
-0.0965565
-0.11877
-0.133949
-0.147117
0.365517
0.364449
0.37063
0.377906
0.320553
0.324637
0.291198
0.310609
0.296433
0.239225
0.273002
0.247929
-0.109932
-0.176046
-0.0978067
-0.16061
-0.0995649
-0.29726
-0.269414
-0.35283
-0.245334
-0.242241
-0.296306
-0.287083
-0.316991
-0.43056
0.824308
0.767243
-0.0393896
0.365533
0.37188
0.368728
0.373396
0.376519
0.377427
0.375177
0.371707
0.361263
0.363096
0.359418
0.359817
-0.252406
-0.389364
-0.213199
-0.280405
-0.0153544
0.47864
0.218752
0.159824
0.153995
0.37273
0.767968
0.565245
0.565094
0.589023
-0.498834
-0.102178
-0.431857
0.186525
0.00944126
0.518801
0.570053
0.593211
0.539676
0.490751
-0.268593
0.390741
-0.199626
-0.155705
0.0355218
-0.0702955
0.564563
0.529749
0.534363
0.551244
0.570005
0.535304
0.513283
0.508912
0.54792
0.553723
0.34637
0.121139
0.0766182
0.0386096
0.513441
0.388026
0.446374
0.360241
0.364505
0.367379
0.365938
0.34879
0.355912
0.351745
0.357215
0.360365
0.369628
0.369947
0.365421
0.367648
-0.189728
-0.19811
-0.167961
-0.28092
-0.270353
-0.323714
-0.21137
-0.0770095
-0.109605
0.0783499
0.184934
-0.103545
-0.217707
-0.187649
-0.159044
0.023894
0.0490423
-0.056567
0.0374736
0.0155113
0.00274409
0.102013
0.111366
-0.174179
-0.156774
-0.17049
-0.16988
-0.0907855
-0.0290403
-0.0159844
-0.168708
-0.120988
-0.202382
-0.224164
-0.172623
-0.161706
-0.154555
-0.125319
-0.291486
-0.20696
-0.196383
-0.195085
-0.144799
-0.158141
0.359777
0.361407
0.361358
0.369101
0.384031
0.398703
0.362218
0.342085
0.333417
0.336251
0.310752
0.320358
0.316712
0.329043
0.348695
0.356675
0.355424
0.357887
0.341204
0.342896
0.330397
0.33345
0.310851
0.293077
0.281889
-0.271257
-0.22665
-0.276012
-0.199896
-0.156216
-0.168638
-0.106914
-0.149745
-0.13537
-0.116615
-0.0973406
-0.385371
-0.352632
-0.22906
-0.152857
-0.336082
-0.36799
-0.436726
0.731913
0.845703
0.65885
0.43934
0.444713
0.679679
0.770093
0.407374
0.579472
0.60858
0.409254
0.668508
0.370267
0.369878
0.367547
0.366989
0.368241
-0.16702
-0.0676753
-0.0548438
-0.00248172
0.116153
0.231309
0.141838
0.0155863
0.151122
0.158111
0.473112
0.489584
0.435081
0.45975
0.457442
0.285105
0.362174
0.417242
0.370929
0.41558
0.437831
0.398832
0.429161
0.375685
0.333496
0.332265
0.277708
0.298755
0.276354
0.258478
0.359832
0.338063
0.348281
0.338956
0.358445
0.385577
0.379902
0.40643
0.418053
0.344358
0.304829
0.314222
0.341995
0.303348
0.316393
0.331702
0.0638297
-0.0371743
0.0501043
-0.241865
-0.159954
-0.17581
-0.222176
-0.177404
0.109118
-0.589997
-0.563417
-1.19741
0.331485
0.79844
0.519541
0.490343
0.565362
0.543416
0.546105
0.570092
0.577199
0.50305
0.520234
0.524722
0.477983
0.501635
0.524975
0.523089
0.361471
0.238367
0.22953
0.190418
0.0673528
0.0999215
0.303524
0.225229
0.152634
0.157764
0.320735
0.211056
0.276671
0.314881
0.2466
0.202413
0.403076
0.470464
0.46138
0.436085
0.352212
0.364254
0.390296
0.425657
0.452588
0.485811
0.357136
0.362843
0.364149
0.361756
0.358839
0.361675
0.36175
0.364267
0.365154
0.368089
0.367049
-0.185929
-0.173829
-0.186686
-0.194162
-0.163871
-0.170524
-0.121858
-0.129242
-0.147324
-0.140552
-0.170513
-0.173234
-0.166009
-0.158498
-0.0439941
-0.0285496
-0.0381868
-0.0832327
0.0919021
0.226302
0.289066
0.171998
0.0643721
0.0919709
0.119435
-0.157857
-0.101408
-0.120893
-0.0852463
-0.102316
-0.201671
-0.224747
-0.226938
-0.147075
-0.178578
-0.267526
-0.29518
-0.283489
-0.273108
-0.237378
-0.270536
0.344406
0.338083
0.338927
0.333279
0.332226
0.345476
0.349616
0.351348
0.356493
0.358187
0.349102
0.354335
0.357661
-0.279404
-0.360695
-0.326368
-0.270509
-0.328036
-0.391301
-0.331538
-0.0442837
-0.117515
-0.111717
-0.153506
-0.275097
-0.220623
0.318629
0.317751
0.32884
0.543505
0.39658
0.316037
0.41167
0.515089
0.101661
0.302056
0.133089
0.71513
0.6049
0.748811
0.37262
0.0779918
0.232533
0.282253
0.091188
0.163302
0.17016
0.059142
0.0916262
0.12208
0.221209
0.101626
0.0756935
-0.169151
0.0162414
0.138755
0.118532
0.251436
0.316352
0.0889775
0.0132263
-0.0317775
0.464735
0.484844
0.503499
0.473211
0.498141
0.420266
0.41188
0.430181
0.43849
0.432342
-0.925147
-0.632386
-1.57768
-0.891606
-0.440661
0.363741
0.326558
0.598734
0.489952
0.555997
0.541443
0.501953
0.467391
0.479061
0.511735
0.213637
0.32359
0.297483
0.304501
0.207298
0.140929
0.439211
0.432443
0.470506
0.494215
0.45987
0.493824
0.354952
0.354567
0.354084
0.350836
0.349307
0.351294
-0.0737548
-0.107289
-0.077407
-0.0967377
-0.120809
-0.129108
-0.227604
-0.246027
-0.246784
-0.2654
-0.265452
-0.218308
-0.00615575
-0.0621933
-0.136192
-0.107482
-0.164681
-0.226827
-0.246441
-0.148509
-0.0604998
-0.0678623
0.234541
0.485549
0.309391
0.478302
0.316124
0.372198
0.320748
0.31236
0.343171
0.217319
0.293508
0.0635893
-0.441986
-0.350022
0.615796
0.634956
0.421867
0.235174
0.00480371
0.192703
0.389282
0.327554
0.366924
0.435237
0.428178
-0.152322
-0.0856467
0.17687
0.404845
0.0703759
0.0620801
0.05732
0.231946
0.155656
)
;

boundaryField
{
    wall-4
    {
        type            zeroGradient;
    }
    velocity-inlet-5
    {
        type            zeroGradient;
    }
    velocity-inlet-6
    {
        type            zeroGradient;
    }
    pressure-outlet-7
    {
        type            fixedValue;
        value           uniform 0;
    }
    wall-8
    {
        type            zeroGradient;
    }
    frontAndBackPlanes
    {
        type            empty;
    }
}


// ************************************************************************* //
