/*--------------------------------*- C++ -*----------------------------------*\
  =========                 |
  \\      /  F ield         | OpenFOAM: The Open Source CFD Toolbox
   \\    /   O peration     | Website:  https://openfoam.org
    \\  /    A nd           | Version:  13
     \\/     M anipulation  |
\*---------------------------------------------------------------------------*/
FoamFile
{
    format      ascii;
    class       volVectorField;
    location    "30";
    object      U;
}
// * * * * * * * * * * * * * * * * * * * * * * * * * * * * * * * * * * * * * //

dimensions      [0 1 -1 0 0 0 0];

internalField   nonuniform List<vector> 
918
(
(0.985168 -0.000494677 0)
(0.00501161 2.96625 0)
(-0.053495 1.23505 0)
(0.979698 0.00215208 0)
(-0.011439 1.29657 1.21774e-19)
(-0.0070424 2.94879 -2.17747e-18)
(0.834867 1.17911 5.79873e-19)
(0.355677 0.163298 -1.26985e-20)
(0.999905 -0.000293992 0)
(0.0634708 0.857487 0)
(0.0148565 0.681208 0)
(0.734005 -0.0096406 0)
(0.0111033 2.9304 0)
(0.00211052 2.79498 0)
(-0.0176962 3.15804 9.26644e-19)
(-0.119806 1.43995 7.8743e-20)
(0.439969 0.0576809 8.18226e-19)
(0.189003 1.20423 4.68315e-19)
(0.962771 0.00501966 0)
(-0.0367878 0.704038 0)
(0.0867888 0.200462 -6.06387e-19)
(1.00198 -0.00498574 0)
(1.00021 -0.0098042 0)
(0.975708 -0.00643889 0)
(0.598814 -0.0441655 0)
(0.0164422 2.63783 0)
(-0.0150034 2.91011 7.80706e-19)
(-0.120656 1.09015 0)
(-0.185662 1.3849 0)
(-0.0786347 1.16332 0)
(-0.0723623 2.30545 0)
(0.0596352 1.37474 -9.59149e-20)
(0.0197195 1.02215 0)
(-0.0206176 2.9876 -7.73864e-23)
(-0.0166925 3.00529 1.69237e-18)
(0.00210012 3.00019 0)
(0.870256 -0.0093571 0)
(0.40492 0.94042 7.80751e-20)
(0.815972 1.19528 -7.47595e-19)
(0.965964 1.03376 7.39958e-19)
(0.685082 1.28892 -1.34542e-19)
(0.682864 1.27601 7.6154e-19)
(0.396676 0.253514 1.2389e-20)
(0.381161 0.138076 0)
(1.14972 0.558049 0)
(0.357693 0.253965 5.68523e-20)
(0.312558 0.167633 -5.90008e-20)
(0.919639 -0.00749067 0)
(1.00028 0.000134504 0)
(0.999912 0.000330088 0)
(1.00364 -0.00778459 0)
(1.00096 -0.000933584 0)
(1.00017 2.36841e-05 0)
(0.0795605 1.78265 -5.08277e-19)
(0.0329638 1.01167 0)
(0.0802545 0.922689 0)
(0.0269867 0.946816 0)
(0.0254073 0.786559 0)
(0.0270598 2.0003 0)
(-0.00811468 0.818952 0)
(0.00044407 0.691704 0)
(-0.00722092 0.784942 0)
(-0.00968464 0.647254 0)
(0.835323 -0.0143258 0)
(0.852611 0.0263602 0)
(0.768082 -0.000418741 0)
(0.82705 0.0348368 0)
(0.701406 -0.0148449 0)
(0.0146891 3.0004 8.02952e-19)
(0.0114985 3.00798 0)
(0.00611804 3.00279 0)
(0.0135286 2.99734 9.04318e-24)
(0.00798278 2.95848 -1.19338e-18)
(0.014487 2.98208 0)
(0.0108369 2.9036 0)
(0.0245455 2.9308 1.73428e-24)
(0.00449785 2.82506 0)
(0.030639 2.91615 0)
(-0.0053426 2.74457 0)
(0.308936 3.55556 0)
(-0.132034 3.63713 0)
(0.139853 3.2487 -8.62352e-19)
(-0.0125068 2.98371 0)
(-0.288428 2.13083 0)
(-0.141674 1.64947 -7.71392e-20)
(-0.121897 1.66981 4.04963e-20)
(0.518646 0.151166 -2.82542e-19)
(0.438205 0.0335949 -2.73032e-19)
(0.502323 0.17678 -8.52193e-19)
(0.423237 0.0808497 -5.65612e-19)
(0.215791 0.921126 0)
(0.26985 1.34239 -5.14787e-19)
(0.380554 1.2884 8.52036e-19)
(0.987482 0.00850507 0)
(0.941989 0.00583869 0)
(1.0003 0.000570708 0)
(1.00287 0.00929771 0)
(1.00304 0.00844481 -1.94972e-18)
(0.991921 0.00970953 1.47231e-18)
(-0.0292039 0.792155 0)
(-0.0114388 0.63526 0)
(-0.116286 1.06709 0)
(-0.0368032 0.85135 0)
(-0.0206207 0.784096 0)
(0.134664 0.20853 1.87542e-19)
(0.189292 0.187096 0)
(0.993522 -0.00840828 0)
(0.954372 -0.00652135 0)
(0.782031 0.0392887 0)
(0.729836 0.0479985 0)
(0.66145 -0.0327693 0)
(0.950403 -0.00547148 0)
(0.658121 0.0616246 0)
(0.492706 -0.0208804 1.14985e-18)
(-0.0367914 2.86314 5.05932e-19)
(0.0420155 2.90892 0)
(0.0547074 2.88498 0)
(-0.00491222 2.69894 0)
(-0.0130676 2.98535 7.30051e-19)
(-0.017978 2.8953 0)
(-0.0153216 2.98812 -2.28268e-18)
(-0.0133488 2.92524 7.84277e-19)
(-0.275323 1.37639 0)
(-0.282067 1.56093 0)
(-0.0855367 1.4383 4.98644e-21)
(-0.0103608 1.30897 0)
(-0.0601901 1.18142 0)
(0.937549 -0.00771768 0)
(0.855582 -0.00964878 0)
(0.863815 0.00682625 0)
(0.948875 -0.00808656 0)
(0.883423 -0.00812871 0)
(0.517402 1.13433 -1.04158e-19)
(0.567117 1.18571 0)
(0.368221 0.884608 1.96722e-20)
(0.310311 0.744665 0)
(0.925512 1.0717 -2.09434e-19)
(1.03924 0.874361 4.24491e-19)
(0.374784 1.38366 0)
(0.537415 1.35284 0)
(0.544268 1.31107 0)
(0.106777 0.178965 -2.20153e-19)
(0.434625 0.233352 0)
(0.405361 0.122584 1.6039e-19)
(1.00964 0.928631 0)
(1.0762 0.776487 0)
(1.10192 0.718923 -3.52919e-19)
(1.12926 0.617793 0)
(1.17502 0.401987 5.61159e-20)
(0.95734 -0.00883136 0)
(0.962269 -0.0100865 0)
(0.901349 -0.00807322 0)
(0.984129 -0.00920529 0)
(0.974565 -0.009355 0)
(0.936982 -0.00640532 0)
(1.00019 0.00232245 0)
(1.00091 0.00142177 0)
(0.999906 0.000844215 0)
(0.0345193 2.04743 2.93389e-19)
(0.122723 1.72584 0)
(0.019162 2.16557 3.92765e-19)
(0.0482736 1.84135 -2.95816e-19)
(0.122863 1.19993 -3.86371e-19)
(0.043485 1.08159 0)
(0.127422 1.06994 0)
(0.0268467 0.900921 0)
(0.0204557 0.720975 0)
(-0.0116898 2.18524 7.79177e-22)
(0.0319382 1.99063 0)
(-0.0145338 2.15042 6.03504e-20)
(0.0333686 2.00544 -1.26524e-19)
(0.0156708 0.861749 0)
(-0.00127698 0.83485 0)
(0.00381393 0.691906 0)
(-0.0106759 0.76434 0)
(-0.0240857 0.628033 0)
(0.93274 0.00773694 0)
(0.841419 -0.0155243 0)
(0.924001 -0.00046852 0)
(0.838266 -0.0112161 0)
(0.813568 0.00364456 0)
(0.903504 0.0187173 0)
(0.881624 0.0221897 0)
(0.790331 0.00243595 0)
(0.00571625 3.06484 -7.30654e-21)
(0.0166622 3.05789 0)
(0.0147063 2.96908 0)
(0.00858393 2.87624 0)
(0.926698 3.97289 0)
(1.24175 3.3052 9.71344e-19)
(0.070347 3.07581 0)
(-0.027849 2.90654 0)
(-0.360253 1.61939 0)
(-0.360068 2.05988 0)
(-0.334778 1.84555 0)
(-0.162277 2.35541 -8.00589e-20)
(-0.272785 2.28063 0)
(-0.199087 2.23698 0)
(-0.0384342 1.94171 -3.95666e-21)
(-0.0923731 1.99973 -5.20624e-20)
(-0.126529 1.84277 -4.1463e-20)
(-0.106472 1.84544 0)
(0.546594 0.123624 4.20476e-19)
(0.454602 0.00932179 -4.1231e-19)
(0.26119 1.55524 0)
(0.263327 0.696671 -2.60907e-19)
(0.177204 1.64169 -8.77921e-19)
(0.225191 1.16909 8.80165e-19)
(0.902484 0.00668183 0)
(0.967619 0.0109624 0)
(0.974692 0.0107221 0)
(0.923609 0.00655082 0)
(0.00620347 0.746826 0)
(-0.015369 0.756503 0)
(-0.0228219 0.622883 0)
(0.302857 0.246826 5.20996e-19)
(0.246505 0.224056 -6.18339e-19)
(0.260518 0.179529 0)
(1.0786 0.0862908 1.28043e-20)
(1.06103 0.0403415 0)
(0.992998 0.0398868 0)
(0.888703 -0.00400217 0)
(0.570055 0.0953919 0)
(0.599485 0.072111 -1.84451e-18)
(0.470299 -0.00219769 6.96938e-19)
(0.00920019 2.98139 5.73945e-19)
(-0.0325204 2.86647 4.76335e-20)
(0.00367135 3.05019 -1.55968e-20)
(0.0201498 3.04344 5.57608e-19)
(-0.0150154 2.99658 2.58869e-20)
(-0.0129629 2.94948 -1.04448e-22)
(-0.0172507 3.01196 -4.84061e-19)
(0.0148209 3.02393 3.49948e-19)
(0.00733012 3.03673 -5.51065e-19)
(0.931715 -0.00225946 0)
(0.937882 -0.00372797 0)
(0.843261 -0.00880508 0)
(0.956902 0.0115605 0)
(0.943349 0.0126999 0)
(0.882036 0.00638544 0)
(0.919171 0.0154059 0)
(0.927131 0.0141226 0)
(0.839641 0.00506452 0)
(0.721323 1.41318 1.81037e-19)
(0.754968 1.52237 0)
(0.19766 0.347242 5.02962e-20)
(0.208029 0.645615 4.05114e-19)
(0.255066 0.717423 -2.34361e-19)
(0.27202 0.551638 4.58691e-19)
(0.318008 0.755761 1.18142e-18)
(0.123698 0.209338 2.9268e-19)
(0.477766 0.200001 6.02669e-19)
(0.455758 0.214978 1.54351e-19)
(0.413848 0.105232 3.00827e-19)
(1.16411 0.459428 1.59532e-19)
(1.17562 0.253765 1.61986e-19)
(0.00954613 2.20802 1.29085e-19)
(0.0473687 1.90874 0)
(0.955351 0.0281571 0)
(0.932942 0.0119079 0)
(0.853969 -0.0166762 0)
(0.0111186 3.07434 0)
(0.0197089 2.94407 9.93994e-19)
(0.0164678 2.95633 0)
(0.00629614 2.85071 -9.85922e-19)
(0.00626876 3.09116 2.38874e-19)
(0.00730042 3.08277 0)
(0.788168 1.82531 -1.99159e-19)
(1.24957 2.50383 5.32026e-19)
(0.770352 1.96511 -1.36285e-18)
(0.0203151 2.9818 -4.68425e-19)
(0.0362523 3.00276 0)
(-0.0332758 2.87921 0)
(-0.0266044 2.12037 7.46563e-22)
(-0.0443983 2.07195 1.20602e-19)
(0.000436374 1.98809 2.22773e-21)
(0.275121 1.3624 8.51206e-19)
(0.216724 0.478095 -5.85026e-19)
(0.0634017 1.97044 6.17458e-19)
(0.138404 1.86128 -7.47861e-19)
(0.1767 1.46293 8.7376e-20)
(0.00266054 3.1183 -1.45895e-18)
(0.0171633 3.11783 1.56163e-18)
(-0.00896483 2.98107 6.55879e-19)
(-0.00310376 2.9775 -6.04948e-19)
(-0.0213002 2.88171 -6.67994e-19)
(0.00868398 3.09928 -1.76554e-18)
(0.00224757 3.10662 1.7195e-18)
(0.261775 0.666814 0)
(0.219545 0.65568 -8.29407e-19)
(0.102363 0.220446 3.69074e-19)
(0.337475 0.878263 8.76276e-19)
(0.178832 0.250161 -1.34782e-18)
(1.16581 0.173447 9.39824e-21)
(1.17638 0.308001 0)
(1.1536 0.121046 4.75492e-20)
(-0.00692727 2.20524 2.26617e-22)
(-0.00273616 2.20917 0)
(0.0361107 1.95989 0)
(0.336688 1.26346 -3.08116e-19)
(0.359745 1.08747 -6.60673e-19)
(0.190993 0.343955 1.16016e-18)
(1.00586 -0.0108781 0)
(1.00766 -0.00767543 3.58743e-19)
(-0.284621 1.38009 0)
(-0.260149 1.2007 0)
(1.00221 0.00347349 1.7749e-21)
(1.00369 0.00944642 7.3384e-19)
(-0.174273 2.38446 1.00176e-19)
(-0.177151 2.41756 0)
(0.0368567 3.17964 2.67787e-19)
(0.396227 3.4934 0)
(1.13116 0.652783 -4.67792e-21)
(1.01301 0.012959 -2.15323e-21)
(1.02117 -0.0105127 0)
(1.00171 0.000143254 7.55226e-23)
(0.0998885 1.35451 0)
(0.142771 2.57924 0)
(0.0563029 1.27187 0)
(0.000758061 2.62103 -7.01205e-20)
(-0.0261814 2.58011 -7.57092e-20)
(1.00482 0.0282283 2.67987e-21)
(1.06122 0.00167833 0)
(1.08874 0.0142228 0)
(-0.345503 2.0576 0)
(-0.235436 2.55096 0)
(-0.0807156 1.05479 0)
(0.278105 1.46293 -2.95755e-19)
(1.01124 -0.00970746 0)
(1.00936 -0.0149591 0)
(1.00239 0.000724811 4.57763e-19)
(1.00548 -0.00484946 -5.38719e-19)
(1.00117 -0.00104163 0)
(-0.372924 1.81824 0)
(-0.329719 1.41226 0)
(-0.344443 1.64121 0)
(-0.088112 1.02275 0)
(-0.171567 1.06218 0)
(-0.0949072 0.967891 0)
(1.03417 -0.00684616 0)
(1.02094 0.0156468 -9.53949e-22)
(0.792114 1.256 3.79718e-19)
(1.00231 0.000317747 -4.57036e-19)
(1.00407 0.00522399 5.35494e-19)
(1.00116 0.00204069 0)
(1.01285 0.0102454 4.51877e-19)
(1.00807 0.00828164 -5.51122e-19)
(1.00861 0.0146915 0)
(-0.23449 2.57138 0)
(-0.217466 2.52242 -2.50594e-19)
(-0.240021 2.49802 1.82962e-19)
(1.2058 0.261337 2.8389e-19)
(1.14341 0.0818824 0)
(0.0463566 3.07756 -7.25587e-19)
(0.0661666 2.85327 -5.46272e-20)
(0.143144 3.19433 1.12667e-18)
(0.138155 3.22331 -1.04234e-19)
(0.13628 3.23599 0)
(0.0206665 3.13771 1.76897e-19)
(0.0776304 3.16111 7.12664e-19)
(0.0704854 3.18721 -3.35988e-19)
(0.0234078 3.12953 0)
(0.660973 0.302659 0)
(0.576023 0.367704 0)
(1.10339 0.682259 -3.30425e-20)
(1.10041 0.813825 1.01779e-19)
(1.16001 0.5703 0)
(1.18977 0.512627 0)
(1.0162 0.0132218 -8.40429e-19)
(1.01499 0.0142308 1.05343e-18)
(1.02506 -0.0100206 0)
(1.02309 -0.0120741 0)
(1.00645 0.00260171 0)
(1.01037 0.00367382 0)
(1.00443 0.00190479 0)
(1.00981 0.00601575 0)
(1.00795 0.00592906 0)
(1.00448 0.00466413 0)
(0.0915795 1.34978 0)
(0.0843573 1.31774 0)
(0.113397 1.38273 0)
(0.127327 1.40428 0)
(0.144723 2.60253 0)
(0.1867 2.66418 -3.22352e-19)
(0.102705 2.65955 0)
(0.0848875 2.66228 9.28835e-20)
(0.0415868 2.67668 3.78497e-21)
(0.0770044 1.25222 0)
(0.0704698 1.1518 0)
(0.0307541 1.30763 0)
(0.0200795 1.26052 0)
(-0.0132293 1.97993 9.3369e-20)
(-0.0358213 2.60481 -1.18852e-19)
(-0.0154544 2.66426 -1.30331e-19)
(-0.0244498 2.67139 0)
(-0.0504516 2.61045 2.18819e-19)
(-0.0416985 2.60005 1.27989e-19)
(-0.0130221 1.97867 -6.76503e-20)
(-0.03329 2.42488 1.59369e-19)
(-0.0145511 2.43017 1.47774e-19)
(1.01395 0.0346363 8.50111e-19)
(1.00865 0.0176352 -1.04926e-18)
(1.00561 0.0418284 -8.56281e-19)
(0.985638 0.0233671 1.09254e-18)
(1.06204 0.00575129 0)
(1.04753 -0.0095251 0)
(1.0876 0.0247808 0)
(1.07021 0.00817221 0)
(1.06703 -0.00273258 0)
(1.12657 0.0725246 0)
(1.10041 0.0352767 0)
(1.10183 0.025538 0)
(-0.216457 2.43985 2.07585e-20)
(-0.352557 2.29882 0)
(-0.27928 2.32633 0)
(-0.200711 2.60659 -1.16179e-19)
(-0.142635 2.55962 1.407e-21)
(-0.28182 1.97266 -3.34518e-19)
(-0.321885 1.83275 3.35981e-19)
(-0.16153 1.37084 0)
(-0.271651 1.40022 0)
(-0.311283 1.44084 0)
(-0.0133924 1.04456 0)
(-0.0233657 0.937838 0)
(0.372834 1.47628 5.41615e-19)
(0.406687 1.48637 2.32111e-19)
(0.593922 2.45041 -1.96336e-19)
(0.405623 2.5433 5.60522e-19)
(0.354624 2.08219 1.09718e-20)
(1.02081 -0.00831054 0)
(1.01539 -0.00988025 0)
(1.01482 -0.0156443 0)
(1.00749 -0.00133091 0)
(1.00498 -0.00101049 0)
(1.00775 -0.0048472 0)
(1.00921 -0.003874 0)
(1.01412 -0.00458064 0)
(1.02165 0.0157836 8.16232e-19)
(1.01831 0.0157362 -1.04855e-18)
(1.02212 0.0176269 -8.20446e-19)
(1.0197 0.0163577 1.02859e-18)
(0.76045 1.30553 0)
(0.693862 1.36004 4.18157e-19)
(0.869203 1.2018 2.16131e-19)
(0.912438 1.1582 -2.87668e-19)
(1.16003 2.61105 -1.1899e-19)
(0.821333 0.0958763 4.53722e-19)
(1.1432 0.100558 0)
(1.18595 0.186818 -2.25521e-19)
(1.17098 0.155727 -9.40704e-21)
(1.00458 0.131151 0)
(0.139299 2.96293 3.44001e-19)
(0.116408 2.86871 -9.28513e-19)
(0.0281725 2.36924 6.40113e-19)
(0.0934722 0.0166032 -2.7937e-19)
(0.340871 3.42237 -3.23139e-19)
(0.195116 3.31494 0)
(0.237578 3.35716 4.20834e-19)
(0.247154 3.03596 -1.29408e-18)
(0.341991 3.19474 0)
(0.00602224 3.12102 3.65895e-20)
(0.0162535 3.12979 -4.44353e-19)
(0.0144281 3.12579 6.54002e-19)
(0.0359888 3.14016 0)
(0.034617 3.15081 0)
(1.21824 2.61072 0)
(0.538057 0.842334 -3.90388e-19)
(1.0322 0.984916 -9.36419e-20)
(0.970308 1.05507 0)
(0.815747 0.957965 -3.28653e-20)
(1.05529 0.872418 2.98253e-20)
(0.369333 0.415964 -7.33805e-19)
(0.70247 0.323929 -2.23351e-20)
(0.687893 0.254331 3.3478e-19)
(0.591883 0.396991 2.51102e-20)
(0.511388 0.373078 -1.01581e-18)
(0.672262 0.343247 0)
(0.697211 0.429711 5.60911e-19)
(0.704321 0.427161 0)
(0.629145 0.382304 0)
(0.609092 0.310719 0)
(0.782634 0.616172 2.85946e-19)
(1.2022 0.27982 -2.50115e-19)
(1.19795 0.414782 0)
(1.21117 0.364183 0)
(0.765357 0.197883 4.97302e-19)
(0.827897 0.539535 -2.98327e-19)
(0.733766 0.516356 5.12383e-19)
(0.926846 0.419395 -5.40388e-19)
(1.01995 0.0144935 5.62782e-19)
(1.01797 0.0141214 -5.68752e-19)
(1.01595 0.0156953 0)
(1.03557 -0.00643118 0)
(1.02939 -0.00890674 -5.26318e-19)
(1.02714 -0.0124939 5.21008e-19)
(1.02516 0.00939453 0)
(1.0237 0.0129959 0)
(1.01139 0.00395666 0)
(1.01432 0.0088174 0)
(1.01507 0.00373694 0)
(1.01418 0.00268249 0)
(0.0706317 1.33424 0)
(0.0675743 1.29531 0)
(0.148189 1.34081 1.6016e-19)
(0.259508 1.46041 1.64531e-19)
(0.150335 1.4341 3.47837e-19)
(0.1808 1.44152 -5.67641e-19)
(0.166855 1.37062 0)
(0.12312 1.58981 9.83574e-20)
(0.11021 1.5592 0)
(0.351799 2.03724 -1.59453e-20)
(0.351896 2.36876 4.27437e-19)
(0.182885 1.44098 -8.58312e-20)
(0.26055 1.36268 1.05874e-19)
(0.190349 1.35308 -8.49712e-20)
(0.268091 1.30313 1.07376e-19)
(0.234104 1.57396 0)
(0.259566 1.61563 -4.76685e-20)
(0.0287961 2.27235 3.04759e-20)
(0.0387715 2.6698 0)
(0.0625595 2.4109 -1.57724e-20)
(0.0538426 2.43135 0)
(0.0701089 2.67374 -1.03607e-19)
(0.0510252 2.69877 0)
(0.0584714 1.43766 1.80366e-19)
(0.0148023 1.47393 0)
(0.0244332 1.39342 0)
(0.0602864 1.39632 -1.97637e-19)
(-0.00302579 2.64921 -1.96857e-20)
(0.0248854 2.69735 -2.2746e-20)
(0.00936766 2.71704 -1.80701e-22)
(0.0646647 1.90193 -1.33746e-19)
(0.0169606 1.65826 -4.46289e-20)
(0.0713505 1.1351 0)
(0.0487122 1.02198 0)
(0.029105 1.57561 -2.29765e-19)
(0.0227745 1.4447 -2.16757e-19)
(0.0393977 1.50869 2.78846e-19)
(0.0292042 1.602 0)
(-0.212178 2.48112 6.56425e-19)
(-0.214605 2.6161 -2.75438e-19)
(-0.139206 2.57366 5.94569e-20)
(0.010377 1.93123 1.61429e-19)
(-0.0814783 2.53925 6.3485e-20)
(-0.0364151 2.47247 -1.87261e-19)
(1.02062 0.0202361 -5.57877e-19)
(1.01744 0.0252168 5.60119e-19)
(1.01488 0.0164798 0)
(1.01822 0.0630799 7.77046e-19)
(0.996476 0.0544654 -8.96978e-19)
(0.958899 0.0402 1.01185e-18)
(1.01764 0.0948998 -1.04574e-19)
(1.04183 -0.00639341 0)
(1.04964 -0.00237179 4.94659e-19)
(1.03808 -0.0105385 -4.95379e-19)
(1.06772 0.0343427 -2.88438e-20)
(1.06242 0.0179326 2.50945e-19)
(1.06114 0.0453621 0)
(1.05613 0.0394472 -9.07779e-20)
(1.03307 0.0372741 0)
(1.02696 0.0342718 0)
(1.02762 0.0122228 0)
(1.02437 0.015192 0)
(1.03899 0.0278718 1.87734e-19)
(1.03794 0.0236577 -4.1808e-19)
(1.051 0.0282238 -1.97383e-19)
(1.04807 0.0279923 -2.18726e-19)
(1.07144 0.0516364 4.19886e-19)
(1.08794 0.0417115 0)
(1.09468 0.0884151 0)
(-0.22879 2.49213 3.16049e-19)
(-0.300338 2.31265 3.00364e-20)
(-0.289256 2.35371 0)
(-0.248604 2.51878 -2.94031e-19)
(-0.24669 2.47233 -4.94332e-20)
(-0.228004 2.5151 5.60789e-20)
(-0.0726644 2.61026 -1.02952e-19)
(-0.12158 2.59855 1.11415e-20)
(-0.0828675 2.55068 -4.2716e-20)
(-0.119429 2.61008 7.03397e-20)
(-0.0716858 2.58083 -8.67504e-20)
(-0.1325 1.66587 -8.09212e-21)
(-0.175505 2.01512 -4.57615e-19)
(0.363321 1.41293 -2.58008e-19)
(0.36104 1.35354 -1.82308e-19)
(0.641564 1.40598 -4.04426e-19)
(0.50853 1.4721 -2.24828e-19)
(0.55934 1.44612 0)
(0.58988 2.42503 1.67671e-19)
(0.657035 2.4153 2.81502e-19)
(0.411046 2.5197 8.08486e-20)
(0.405073 2.55699 -3.91704e-19)
(0.515617 2.50943 4.32868e-19)
(0.548243 2.46381 0)
(0.488241 2.51463 -4.57567e-19)
(0.246827 2.5917 8.83804e-19)
(0.352736 2.56858 -8.1117e-20)
(0.284345 2.65171 -1.25233e-18)
(0.9355 2.38496 4.88773e-19)
(0.830639 2.3876 0)
(1.01109 0.000208788 1.8461e-20)
(1.01528 -0.00553794 -1.49914e-20)
(1.01744 -0.00365781 -2.72607e-19)
(1.01484 -0.0011494 2.74485e-19)
(1.01233 0.000757012 0)
(0.628114 1.2723 0)
(0.649373 1.16605 0)
(0.750065 1.07217 0)
(0.641291 1.13425 0)
(1.18765 2.6267 5.79656e-20)
(1.07822 2.37093 0)
(0.845077 2.19774 1.08763e-21)
(0.827877 2.46485 0)
(0.922709 2.55214 -1.99216e-19)
(0.959658 2.50618 1.32726e-19)
(0.833386 0.14563 0)
(0.803146 0.133872 1.26432e-19)
(0.925215 0.122023 7.02074e-19)
(0.851348 0.119557 -2.70231e-19)
(0.832677 0.0605982 -8.18233e-19)
(1.06093 0.222242 -5.98275e-19)
(0.980347 0.275718 -1.56677e-20)
(0.910331 0.272071 6.51237e-19)
(0.995028 0.204359 5.24443e-19)
(0.946426 0.162374 -9.18611e-19)
(0.916978 0.170045 1.16139e-19)
(0.943792 0.23303 -2.42312e-19)
(0.922463 0.193204 0)
(0.991257 0.164216 4.49559e-19)
(1.03797 0.170631 0)
(1.03352 0.197066 0)
(1.09235 0.110474 1.92032e-19)
(1.06491 0.162031 -1.35149e-20)
(1.05512 0.226109 -1.05243e-19)
(1.08764 0.19542 0)
(1.02395 0.0417101 4.30431e-19)
(1.04378 0.0504234 5.28257e-19)
(1.03435 0.0385441 -4.27346e-19)
(1.04575 0.0557875 -3.54384e-19)
(1.02033 0.0650414 -5.48612e-19)
(0.990299 0.135158 0)
(1.00356 0.0897459 0)
(0.973619 0.0550394 -3.61987e-19)
(0.925845 0.0707309 1.45015e-19)
(1.04198 0.0910826 4.92656e-19)
(1.0676 0.110907 -5.61058e-19)
(1.07154 0.141217 5.04631e-19)
(1.03362 0.129438 0)
(1.07398 0.0963174 0)
(1.06033 0.0773999 -2.29518e-19)
(1.05072 0.0854127 -4.01124e-19)
(0.587723 1.08883 2.66971e-20)
(0.618749 1.41628 7.36138e-20)
(1.15956 2.74263 -6.92192e-20)
(1.22549 3.08344 -3.33686e-20)
(1.25116 2.72524 2.05821e-19)
(1.28143 2.7089 -1.81586e-19)
(1.20991 2.3498 -9.74808e-21)
(1.21273 2.98755 4.58288e-20)
(1.23208 2.95281 1.74964e-20)
(1.21658 3.23723 -2.04285e-19)
(1.37768 2.96939 2.82571e-19)
(1.36867 2.88774 0)
(0.542627 0.849249 -3.22019e-20)
(0.140961 1.26339 4.75173e-19)
(0.526129 0.471694 4.78619e-19)
(0.361002 0.224998 5.22997e-19)
(0.530363 0.403498 5.71695e-19)
(0.538589 0.4908 -9.23404e-19)
(0.541225 0.49591 7.55714e-19)
(0.495426 0.422012 -2.8893e-19)
(0.425318 0.36186 6.60932e-19)
(0.76769 0.254679 -2.82469e-19)
(0.72724 0.291281 0)
(0.724094 0.22766 9.97978e-21)
(0.71301 0.515315 2.92767e-19)
(0.684284 0.489578 -1.07169e-18)
(0.604934 0.488891 1.64574e-20)
(0.62199 0.473671 0)
(0.668759 0.738473 2.80181e-19)
(0.812496 0.768555 2.37719e-19)
(0.742207 0.852074 -2.82006e-19)
(0.855089 0.800481 -9.27404e-20)
(0.887606 0.839654 -1.41827e-20)
(0.895939 0.841462 1.45178e-20)
(0.821885 0.643221 -4.7792e-19)
(0.899197 0.694599 8.61484e-20)
(0.957407 0.707644 0)
(0.946076 0.683773 -1.16223e-19)
(1.00609 0.317028 1.46225e-19)
(1.115 0.28891 1.6146e-19)
(1.04529 0.259764 2.44437e-19)
(0.986137 0.350091 -3.02821e-19)
(1.02866 0.416641 0)
(1.08316 0.404472 0)
(0.898475 0.349574 4.71304e-21)
(0.837737 0.284178 0)
(0.85888 0.274367 3.15094e-19)
(0.894673 0.278336 -6.33373e-21)
(0.918031 0.422589 1.49872e-18)
(0.874823 0.484339 3.84848e-19)
(0.880273 0.449242 -4.3048e-19)
(0.811319 0.437287 4.61556e-19)
(0.793215 0.431937 2.87666e-19)
(0.764872 0.417129 -2.8262e-19)
(1.0272 -0.000647655 4.51565e-19)
(1.02013 -0.000293736 0)
(1.0186 0.00058767 2.95052e-19)
(1.02112 -0.00213746 -6.67155e-19)
(1.02247 0.00415212 3.24496e-19)
(1.02048 0.0108111 -6.79601e-19)
(1.02148 0.0102258 0)
(1.02087 0.010462 -1.42117e-19)
(1.01613 0.00738212 3.56496e-19)
(1.01681 0.0101703 -1.77926e-19)
(1.01747 0.00954576 1.31042e-19)
(0.0481575 1.31746 0)
(0.0345342 1.3676 0)
(0.05042 1.31908 0)
(0.0313665 1.27818 0)
(0.0760469 1.37061 -3.59678e-19)
(0.0848087 1.3411 1.17066e-19)
(0.101699 1.49549 7.04165e-20)
(0.0917897 1.33671 -8.1725e-20)
(0.0275711 1.45403 2.0783e-19)
(0.0320949 1.44531 -1.60255e-19)
(0.064216 1.35243 -5.43869e-21)
(0.0555252 1.3552 2.26705e-19)
(0.0491792 1.33491 3.27381e-20)
(0.0320262 1.3666 2.73976e-20)
(0.104316 2.38681 1.93426e-20)
(0.0945592 2.43002 0)
(0.161648 2.06624 3.70418e-20)
(0.106721 1.7073 -3.06587e-20)
(0.225834 2.06029 -2.96335e-20)
(0.211879 2.45647 0)
(0.268526 2.40976 -3.49587e-19)
(0.303296 2.40906 2.49601e-19)
(0.229027 2.01918 -8.09117e-20)
(0.148609 2.18554 7.78033e-20)
(0.143889 2.30756 0)
(0.0288303 1.88328 2.30795e-19)
(-0.00739875 2.40661 1.76353e-19)
(-0.0214262 2.15289 0)
(0.00308655 2.46433 -1.27993e-20)
(0.0286003 2.31448 -9.90644e-20)
(0.0992487 1.43634 -3.83107e-20)
(0.141545 1.3702 6.673e-19)
(0.108746 1.42612 -2.26182e-19)
(0.0902691 1.45321 -1.80534e-19)
(0.0847859 1.46427 0)
(0.103199 1.39965 0)
(-0.0312303 1.05071 -3.22366e-19)
(0.0788898 1.31054 9.76467e-20)
(0.121072 1.34143 0)
(0.0364043 1.04197 -2.11058e-19)
(0.0147366 0.916274 4.47765e-19)
(1.04028 0.0107317 0)
(1.0456 0.00710061 -4.63709e-20)
(1.03849 0.0205299 -3.35719e-19)
(1.04752 0.0185265 0)
(1.05219 0.0181214 0)
(1.03564 0.0105028 -6.41783e-21)
(1.03139 0.0104435 5.41859e-19)
(1.03135 0.0152906 6.58844e-19)
(1.02614 0.0190453 0)
(1.02359 0.0198556 0)
(1.03475 0.0231715 3.35686e-19)
(1.02586 0.0247414 0)
(1.02548 0.0240698 0)
(-0.0209753 2.22084 0)
(-0.0974647 2.04493 7.3388e-21)
(-0.0889151 2.14769 -1.50261e-19)
(0.0593712 1.31049 0)
(0.0442971 1.75458 -1.95422e-19)
(0.0350877 1.49339 1.6829e-19)
(0.0237502 1.27719 0)
(0.394664 1.69204 0)
(0.36136 1.28009 2.91498e-19)
(0.304898 1.33633 0)
(0.416595 1.27932 -4.17038e-19)
(0.46049 1.44489 0)
(0.441745 1.3886 2.06212e-19)
(1.03226 2.69708 -1.0087e-20)
(0.958555 2.41672 -6.15318e-19)
(0.90495 2.18557 7.0912e-19)
(0.843252 2.38012 1.82101e-19)
(0.845087 2.51126 0)
(0.915252 2.50516 0)
(0.918853 2.37882 0)
(0.896491 2.36304 -7.02488e-19)
(0.692876 2.48417 -2.02548e-19)
(0.801716 2.47594 -5.49738e-20)
(0.813351 2.44684 4.20765e-20)
(0.691277 2.3926 0)
(0.795203 2.39063 0)
(0.754313 2.40161 -2.9769e-19)
(0.769695 2.50167 0)
(0.613249 1.08713 0)
(0.489731 0.933267 -2.64303e-19)
(0.557412 0.965096 -1.73294e-20)
(0.529478 1.06531 0)
(0.528985 1.01466 3.97889e-19)
(0.765822 0.874922 -6.214e-20)
(0.776122 1.00915 0)
(0.749444 0.963833 6.94016e-20)
(0.641714 1.02887 0)
(0.644519 0.941336 0)
(1.16622 2.76447 -9.25735e-20)
(1.14454 2.82798 9.05968e-21)
(0.936347 2.35082 -8.47011e-20)
(0.903209 2.32989 -2.56883e-20)
(1.13079 2.73917 0)
(1.0832 2.71005 3.10624e-20)
(1.09013 2.49226 -2.03204e-19)
(0.985571 2.23674 -3.08122e-20)
(0.504737 1.37044 0)
(0.51874 1.08275 -2.35745e-20)
(0.554709 1.15396 0)
(0.860107 0.214076 0)
(0.80951 0.170131 0)
(0.768078 0.149344 0)
(0.854048 0.22275 -4.95827e-19)
(0.78617 0.21362 2.96781e-19)
(0.935408 0.0574991 -2.98686e-19)
(0.950478 0.103503 0)
(0.926085 0.10868 1.3046e-19)
(0.874844 0.0862321 5.26094e-19)
(0.857222 0.0475085 -3.27258e-19)
(1.16375 3.36273 -8.47918e-19)
(1.21146 3.28191 0)
(1.16215 3.39089 -1.70668e-18)
(0.648861 3.55171 1.45759e-18)
(0.873939 3.1189 2.19926e-19)
(0.516493 0.85766 4.23883e-19)
(0.436797 0.854082 0)
(0.340534 0.504572 -1.18767e-19)
(0.441989 0.688418 6.33018e-19)
(0.528518 0.477004 -1.61813e-19)
(0.504178 0.526522 1.85266e-19)
(0.649685 0.543308 3.98584e-19)
(0.678678 0.562804 0)
(0.630793 0.62511 0)
(0.588763 0.563577 0)
(0.95362 0.594355 2.77692e-20)
(0.87787 0.534022 -3.73913e-19)
(0.90095 0.565938 2.57739e-19)
(0.936376 0.501805 -2.85972e-19)
(1.04022 0.475232 0)
(1.04868 0.564676 -5.75229e-20)
(0.836388 0.387496 -6.50437e-19)
(0.840706 0.372566 -7.84147e-19)
(0.790221 0.383983 5.08124e-19)
(0.783276 0.355843 -5.38418e-19)
(0.836753 0.311945 -4.11375e-19)
(0.792182 0.309592 5.05966e-19)
(1.02651 0.00558112 -3.44504e-19)
(1.02627 0.00574791 7.01213e-19)
(1.02941 -0.0004499 4.35286e-19)
(1.0331 0.000325865 -5.23715e-19)
(1.03308 0.00767487 0)
(1.02991 0.00853524 -8.47528e-19)
(0.0511607 1.64618 -1.6272e-20)
(0.0343068 1.57412 0)
(0.0841185 1.69519 -1.80465e-19)
(0.0784978 1.67732 1.70489e-19)
(0.0910711 1.52849 -1.32124e-19)
(0.0897922 1.50494 0)
(0.131472 1.81742 0)
(0.0919389 1.61021 8.18985e-20)
(0.115653 1.45939 -7.2966e-20)
(0.0826324 1.66377 1.89247e-20)
(0.02595 2.09907 1.46232e-19)
(0.0292961 2.08187 -4.86135e-20)
(0.498095 1.37996 7.01441e-20)
(0.490875 1.38545 -7.22638e-20)
(0.438065 1.27766 1.9252e-19)
(0.433815 1.29452 -8.77472e-21)
(0.623002 1.28753 0)
(0.537515 1.37456 3.10442e-19)
(0.554602 1.38362 -3.02255e-19)
(0.444438 1.2665 -1.85715e-19)
(0.500343 1.22048 0)
(0.556553 1.19088 0)
(0.659396 2.44347 2.97608e-19)
(0.669507 2.47475 8.96533e-19)
(0.717436 2.49026 -6.16921e-19)
(0.620755 2.47186 -1.63429e-19)
(0.56323 2.56248 1.90735e-19)
(0.512749 2.53465 -5.22111e-19)
(0.972788 2.38142 -3.92398e-19)
(1.0121 2.3976 0)
(0.91834 2.16563 -4.69477e-19)
(1.05224 2.69047 0)
(1.05445 2.67753 0)
(0.614486 2.27818 4.93653e-20)
(1.04439 3.16527 3.00401e-19)
(0.915444 3.03549 -2.24072e-19)
(0.284306 0.923695 0)
(0.32318 0.784594 -2.39764e-19)
(0.481393 0.739372 -2.02207e-19)
(0.390269 2.02666 0)
(0.469024 2.78772 -1.53117e-19)
(0.424644 2.55203 0)
(0.678058 0.688626 -5.90396e-19)
(0.756362 0.679424 7.94498e-19)
(0.774882 0.624629 -7.84194e-19)
(0.657012 0.652406 -7.95767e-20)
(0.712157 0.600825 -3.29308e-19)
(1.00692 2.76912 -2.28418e-19)
(1.04336 2.82448 5.32872e-20)
(0.640996 2.15403 3.89763e-19)
(0.600178 1.72195 -2.92754e-19)
(0.70381 1.91267 -1.58589e-19)
(0.993145 2.45244 -9.25052e-20)
(0.997235 2.4448 7.60852e-20)
(0.663467 1.8513 1.22602e-20)
(0.457783 1.34299 3.77318e-20)
)
;

boundaryField
{
    wall-4
    {
        type            noSlip;
    }
    velocity-inlet-5
    {
        type            fixedValue;
        value           uniform (1 0 0);
    }
    velocity-inlet-6
    {
        type            fixedValue;
        value           uniform (0 3 0);
    }
    pressure-outlet-7
    {
        type            zeroGradient;
    }
    wall-8
    {
        type            noSlip;
    }
    frontAndBackPlanes
    {
        type            empty;
    }
}


// ************************************************************************* //
