/*--------------------------------*- C++ -*----------------------------------*\
  =========                 |
  \\      /  F ield         | OpenFOAM: The Open Source CFD Toolbox
   \\    /   O peration     | Website:  https://openfoam.org
    \\  /    A nd           | Version:  13
     \\/     M anipulation  |
\*---------------------------------------------------------------------------*/
FoamFile
{
    format      ascii;
    class       volScalarField;
    location    "1.5";
    object      Ma;
}
// * * * * * * * * * * * * * * * * * * * * * * * * * * * * * * * * * * * * * //

dimensions      [];

internalField   nonuniform List<scalar> 
5250
(
3
2.99999
2.99995
2.99986
2.99963
2.99908
2.99773
2.99427
2.98623
2.96492
2.91487
2.78487
2.47237
1.80129
0.799219
0.299266
0.330932
0.343475
0.318364
0.271598
0.215297
0.166709
0.122722
0.0774342
0.0440116
3
2.99999
2.99995
2.99986
2.99964
2.99909
2.99771
2.99449
2.98588
2.9663
2.91422
2.78868
2.47649
1.81128
0.80975
0.308242
0.333718
0.343472
0.320606
0.275359
0.22021
0.173581
0.132315
0.0919648
0.0667969
3
2.99999
2.99995
2.99986
2.99966
2.99907
2.99789
2.99427
2.987
2.96555
2.91825
2.79115
2.48861
1.83241
0.833419
0.328198
0.339821
0.346343
0.328
0.286062
0.233986
0.191413
0.155452
0.122941
0.105133
3
2.99999
2.99995
2.99988
2.99964
2.99919
2.99777
2.9949
2.98659
2.9682
2.91897
2.80027
2.50402
1.86506
0.87126
0.356861
0.347941
0.354522
0.339991
0.302491
0.255082
0.217302
0.187107
0.16116
0.147593
3
2.99999
2.99996
2.99987
2.99967
2.99919
2.99793
2.99509
2.98723
2.96985
2.92254
2.8102
2.52601
1.91074
0.926118
0.394727
0.358216
0.365929
0.355769
0.323381
0.281481
0.248647
0.22396
0.203379
0.19282
3
2.99999
2.99996
2.99988
2.99969
2.99925
2.99804
2.99544
2.98791
2.97187
2.927
2.82213
2.55362
1.96813
0.995914
0.440952
0.369571
0.379912
0.375554
0.348314
0.312476
0.285139
0.266087
0.250777
0.243347
3
2.99999
2.99996
2.9999
2.9997
2.99933
2.99817
2.99578
2.98898
2.97366
2.9332
2.83507
2.58737
2.03499
1.08627
0.497343
0.382467
0.396874
0.399287
0.377161
0.347811
0.32666
0.313835
0.304692
0.302925
3
2.99999
2.99997
2.9999
2.99976
2.99933
2.99848
2.99587
2.99065
2.97507
2.94124
2.84909
2.62728
2.11504
1.20162
0.565439
0.398282
0.417763
0.427502
0.410426
0.388284
0.373626
0.36799
0.368047
0.377136
3
3
2.99997
2.99992
2.99976
2.99948
2.99851
2.99672
2.99103
2.97936
2.94623
2.86936
2.66959
2.20985
1.34801
0.645972
0.421045
0.445659
0.461924
0.44952
0.434114
0.427187
0.43072
0.445283
0.478903
3
3
2.99998
2.99992
2.99982
2.99949
2.99887
2.99688
2.99291
2.98126
2.95559
2.88651
2.71942
2.31674
1.52936
0.743257
0.458821
0.485544
0.504655
0.496038
0.486544
0.486605
0.50421
0.549062
0.650505
3.00001
3
2.99998
2.99995
2.99983
2.99962
2.99894
2.99762
2.99361
2.98513
2.96176
2.90744
2.76692
2.43302
1.7446
0.8524
0.512421
0.538038
0.552987
0.548147
0.543362
0.553401
0.589858
0.674435
0.845642
3.00001
3
2.99999
2.99995
2.99988
2.99964
2.99919
2.99779
2.99494
2.98677
2.96859
2.92019
2.80355
2.5136
1.89165
0.956844
0.566144
0.577455
0.591808
0.598343
0.60226
0.62258
0.673669
0.778505
0.959077
3.00001
3
2.99999
2.99996
2.99988
2.99973
2.99926
2.99826
2.99555
2.98919
2.97312
2.93346
2.83422
2.58783
2.04067
1.12145
0.654411
0.605452
0.622188
0.638322
0.65365
0.68416
0.743327
0.847386
1.00696
3.00001
3
2.99999
2.99997
2.99992
2.99976
2.99943
2.9985
2.99643
2.99099
2.97787
2.94518
2.86331
2.65931
2.18832
1.33046
0.760387
0.631504
0.648448
0.671331
0.697758
0.73545
0.795689
0.88979
1.02591
3.00001
3
3
2.99998
2.99993
2.99982
2.99952
2.99886
2.99707
2.99289
2.98235
2.95629
2.89162
2.72911
2.34362
1.58377
0.890747
0.674369
0.682982
0.705372
0.737555
0.778979
0.838377
0.920429
1.036
3.00001
3
3
2.99998
2.99995
2.99986
2.99964
2.99911
2.99774
2.99462
2.98615
2.96728
2.91665
2.7967
2.49986
1.87986
1.04569
0.742042
0.730569
0.747869
0.77822
0.817781
0.874047
0.947277
1.04436
3.00001
3.00001
3
2.99999
2.99996
2.99989
2.99973
2.99927
2.99836
2.99551
2.98996
2.97318
2.93728
2.83938
2.60737
2.08385
1.22176
0.819282
0.770525
0.786072
0.814663
0.853377
0.904574
0.970991
1.05333
3.00001
3.00001
3
2.99999
2.99997
2.99992
2.99978
2.99949
2.99861
2.99693
2.99155
2.98099
2.94985
2.87994
2.69622
2.27579
1.48092
0.944069
0.813474
0.821368
0.846306
0.883852
0.931369
0.991838
1.06441
3.00001
3.00001
3
3
2.99998
2.99994
2.99985
2.9996
2.99907
2.99752
2.9944
2.985
2.96551
2.91075
2.78342
2.46814
1.82248
1.10433
0.875184
0.862474
0.879615
0.913572
0.957888
1.01167
1.07579
3.00001
3.00001
3
3
2.99999
2.99996
2.99988
2.99974
2.99926
2.99837
2.99555
2.98989
2.97363
2.93745
2.84188
2.61414
2.10424
1.30015
0.95324
0.903366
0.91538
0.944922
0.985329
1.03241
1.08813
3.00001
3.00001
3.00001
3
2.99999
2.99998
2.99992
2.99981
2.99947
2.99883
2.99677
2.99286
2.98079
2.95554
2.88581
2.72162
2.32964
1.58686
1.08182
0.950555
0.950855
0.972665
1.01
1.05385
1.1034
3.00001
3.00001
3.00001
3
3
2.99998
2.99995
2.99987
2.99964
2.99919
2.99778
2.99514
2.98679
2.97014
2.92263
2.81461
2.54577
1.97608
1.26279
1.02163
0.993274
1.00576
1.03504
1.07574
1.11982
3.00001
3.00001
3.00001
3.00001
3
2.99999
2.99997
2.99991
2.99976
2.99943
2.9985
2.99659
2.9909
2.97932
2.94611
2.87177
2.67916
2.24853
1.49504
1.11137
1.03552
1.04043
1.06241
1.09759
1.13906
3.00001
3.00001
3.00001
3.00001
3
3
2.99998
2.99994
2.99985
2.99958
2.99909
2.99748
2.99437
2.98516
2.96536
2.91213
2.78626
2.48065
1.85525
1.26804
1.09353
1.07699
1.08993
1.11897
1.15728
3.00001
3.00001
3.00001
3.00001
3.00001
3
2.99999
2.99997
2.99989
2.99976
2.99933
2.99848
2.99604
2.99068
2.97659
2.94344
2.85992
2.65872
2.203
1.49429
1.18111
1.11952
1.12263
1.14392
1.17609
3.00001
3.00001
3.00001
3.00001
3.00001
3
3
2.99998
2.99994
2.99983
2.9996
2.99895
2.99754
2.99377
2.98502
2.96307
2.90953
2.77753
2.46511
1.84005
1.32282
1.17234
1.15662
1.16779
1.19378
3.00001
3.00001
3.00001
3.00001
3.00001
3.00001
3
2.99999
2.99996
2.9999
2.99973
2.99936
2.9984
2.99609
2.99057
2.97645
2.94371
2.85998
2.66181
2.20966
1.54443
1.25737
1.1998
1.19942
1.21705
3.00001
3.00001
3.00001
3.00001
3.00001
3.00001
3
3
2.99998
2.99994
2.99984
2.99961
2.99897
2.99766
2.9938
2.98603
2.9635
2.91471
2.78589
2.49113
1.8946
1.40013
1.25128
1.23194
1.24051
3.00001
3.00001
3.00001
3.00001
3.00001
3.00001
3.00001
3
2.99999
2.99996
2.99991
2.99975
2.9994
2.99849
2.99636
2.99116
2.97812
2.94757
2.87025
2.68683
2.26542
1.62993
1.34007
1.27651
1.27163
3.00001
3.00001
3.00001
3.00001
3.00001
3.00001
3.00001
3
3
2.99998
2.99995
2.99985
2.99966
2.99906
2.99794
2.99442
2.9876
2.96762
2.92456
2.81138
2.55165
2.0101
1.49581
1.33046
1.30426
3.00001
3.00001
3.00001
3.00001
3.00001
3.00001
3.00001
3.00001
3
2.99999
2.99997
2.99992
2.99979
2.99946
2.99873
2.99671
2.99256
2.98049
2.95541
2.88654
2.73037
2.35897
1.75095
1.42746
1.3463
3.00001
3.00001
3.00001
3.00001
3.00001
3.00001
3.00001
3.00001
3
3
2.99999
2.99996
2.99987
2.99971
2.99921
2.99827
2.9953
2.98971
2.97296
2.93792
2.8447
2.63296
2.16573
1.6152
1.40995
3.00001
3.00001
3.00001
3.00001
3.00001
3.00001
3.00001
3.00001
3.00001
3
3
2.99998
2.99993
2.99982
2.99956
2.99895
2.99734
2.99389
2.98418
2.96387
2.90791
2.78256
2.47659
1.91417
1.52166
3.00001
3.00001
3.00001
3.00001
3.00001
3.00001
3.00001
3.00001
3.00001
3.00001
3
2.99999
2.99996
2.9999
2.99976
2.99938
2.99857
2.99631
2.99167
2.97832
2.95047
2.87518
2.70485
2.30813
1.74956
3.00001
3.00001
3.00001
3.00001
3.00001
3.00001
3.00001
3.00001
3.00001
3.00001
3
3
2.99998
2.99995
2.99987
2.99967
2.99918
2.99809
2.9951
2.98894
2.97145
2.93453
2.83663
2.61485
2.14539
3.00001
3.00001
3.00001
3.00001
3.00001
3.00001
3.00001
3.00001
3.00001
3.00001
3.00001
3
3
2.99997
2.99993
2.99981
2.99958
2.99887
2.99745
2.99348
2.9848
2.96247
2.91001
2.78212
2.48405
3.00001
3.00001
3.00001
3.00001
3.00001
3.00001
3.00001
3.00001
3.00001
3.00001
3.00001
3.00001
3
2.99999
2.99997
2.99991
2.99976
2.99941
2.9986
2.99648
2.99193
2.97937
2.95271
2.88166
2.72157
3.00001
3.00001
3.00001
3.00001
3.00001
3.00001
3.00001
3.00001
3.00001
3.00001
3.00001
3.00001
3
3
2.99998
2.99996
2.99987
2.99971
2.99921
2.99829
2.99546
2.98992
2.97425
2.94061
2.85413
3.00001
3.00001
3.00001
3.00001
3.00001
3.00001
3.00001
3.00001
3.00001
3.00001
3.00001
3.00001
3.00001
3
3
2.99998
2.99994
2.99984
2.99961
2.99906
2.99766
2.9946
2.98624
2.9687
2.92089
3.00001
3.00001
3.00001
3.00001
3.00001
3.00001
3.00001
3.00001
3.00001
3.00001
3.00001
3.00001
3.00001
3.00001
3
2.99999
2.99997
2.99992
2.99981
2.9995
2.99882
2.9971
2.99302
2.98342
2.95923
3.00001
3.00001
3.00001
3.00001
3.00001
3.00001
3.00001
3.00001
3.00001
3.00001
3.00001
3.00001
3.00001
3.00001
3
3
2.99999
2.99996
2.9999
2.99975
2.99942
2.99847
2.99665
2.99113
2.98054
3.00001
3.00001
3.00001
3.00001
3.00001
3.00001
3.00001
3.00001
3.00001
3.00001
3.00001
3.00001
3.00001
3.00001
3.00001
3
3
2.99999
2.99995
2.99989
2.99969
2.99931
2.99817
2.99598
2.98969
3.00001
3.00001
3.00001
3.00001
3.00001
3.00001
3.00001
3.00001
3.00001
3.00001
3.00001
3.00001
3.00001
3.00001
3.00001
3.00001
3
3
2.99998
2.99994
2.99986
2.99963
2.99916
2.9979
2.99505
3.00001
3.00001
3.00001
3.00001
3.00001
3.00001
3.00001
3.00001
3.00001
3.00001
3.00001
3.00001
3.00001
3.00001
3.00001
3.00001
3.00001
3
2.99999
2.99998
2.99993
2.99984
2.99956
2.99904
2.99745
3.00001
3.00001
3.00001
3.00001
3.00001
3.00001
3.00001
3.00001
3.00001
3.00001
3.00001
3.00001
3.00001
3.00001
3.00001
3.00001
3.00001
3.00001
3
2.99999
2.99997
2.99992
2.99981
2.9995
2.99884
3.00001
3.00001
3.00001
3.00001
3.00001
3.00001
3.00001
3.00001
3.00001
3.00001
3.00001
3.00001
3.00001
3.00001
3.00001
3.00001
3.00001
3.00001
3.00001
3
2.99999
2.99997
2.99991
2.99977
2.99946
3.00001
3.00001
3.00001
3.00001
3.00001
3.00001
3.00001
3.00001
3.00001
3.00001
3.00001
3.00001
3.00001
3.00001
3.00001
3.00001
3.00001
3.00001
3.00001
3
3
2.99999
2.99996
2.9999
2.99973
3.00001
3.00001
3.00001
3.00001
3.00001
3.00001
3.00001
3.00001
3.00001
3.00001
3.00001
3.00001
3.00001
3.00001
3.00001
3.00001
3.00001
3.00001
3.00001
3.00001
3
3
2.99999
2.99996
2.99988
3.00001
3.00001
3.00001
3.00001
3.00001
3.00001
3.00001
3.00001
3.00001
3.00001
3.00001
3.00001
3.00001
3.00001
3.00001
3.00001
3.00001
3.00001
3.00001
3.00001
3.00001
3
3
2.99998
2.99995
3.00001
3.00001
3.00001
3.00001
3.00001
3.00001
3.00001
3.00001
3.00001
3.00001
3.00001
3.00001
3.00001
3.00001
3.00001
3.00001
3.00001
3.00001
3.00001
3.00001
3.00001
3.00001
3
2.99999
2.99997
1.11771
1.32207
1.38942
1.35962
1.29461
1.22166
1.14763
1.11269
1.10581
1.11016
1.11597
1.12004
1.11975
1.11868
1.1175
1.11714
1.11809
1.11943
1.12211
1.1263
1.13102
1.13581
1.14085
1.14638
1.15247
1.15905
1.16609
1.17353
1.18137
1.18956
1.19807
1.20682
1.21573
1.22472
1.23374
1.24273
1.25166
1.26053
1.26932
1.27802
1.28662
1.29514
1.30363
1.31198
1.32015
1.3283
1.33649
1.3447
1.35291
1.36096
1.36853
1.37452
1.37888
1.38199
1.38141
1.3743
1.35184
1.30227
1.21551
1.10229
0.994142
0.910659
0.865162
0.860275
0.88095
0.901625
0.926549
0.953273
0.973765
0.990505
1.00682
1.02295
1.03928
1.05662
1.07518
1.09586
1.11656
1.13635
1.15447
1.17223
1.18755
1.2028
1.2165
1.23019
1.24378
1.25747
1.27168
1.2861
1.30073
1.31476
1.32909
1.34214
1.35601
1.36834
1.38141
1.39318
1.40514
1.41547
1.4247
1.42959
1.13071
1.24996
1.31963
1.36994
1.41931
1.46272
1.47706
1.47594
1.46538
1.44597
1.43188
1.42592
1.42754
1.43
1.43353
1.43658
1.43839
1.43966
1.44112
1.44307
1.44604
1.44962
1.45357
1.45783
1.46226
1.46686
1.47166
1.4767
1.48198
1.48749
1.49322
1.49917
1.50533
1.51169
1.51825
1.52501
1.53192
1.53901
1.54616
1.55348
1.56074
1.5682
1.57556
1.58308
1.5905
1.59796
1.60534
1.6127
1.61976
1.62654
1.63196
1.6358
1.63817
1.63724
1.6308
1.61094
1.56651
1.49735
1.42926
1.38019
1.34185
1.30212
1.25738
1.21352
1.18345
1.17027
1.17357
1.18787
1.20657
1.2323
1.26054
1.28414
1.30313
1.3178
1.32965
1.33877
1.34777
1.35816
1.37054
1.38543
1.40195
1.41904
1.43561
1.45195
1.46687
1.48095
1.4933
1.50469
1.51529
1.52564
1.536
1.54637
1.55664
1.56696
1.57713
1.58717
1.59708
1.60571
1.61348
1.61637
1.13387
1.24337
1.34163
1.43606
1.52513
1.59554
1.6362
1.64391
1.6417
1.63059
1.61481
1.60005
1.59401
1.59166
1.59314
1.59492
1.59771
1.60029
1.60239
1.60446
1.60674
1.60953
1.61261
1.61594
1.61953
1.62334
1.62733
1.6315
1.63584
1.64034
1.64501
1.64984
1.65486
1.66006
1.6655
1.67111
1.67697
1.68298
1.68921
1.69555
1.70207
1.7087
1.71545
1.72235
1.72929
1.73632
1.74336
1.75015
1.75672
1.76154
1.76493
1.76654
1.76488
1.75618
1.73192
1.6793
1.60474
1.54174
1.51462
1.51624
1.52057
1.52017
1.50888
1.48549
1.45163
1.41154
1.37339
1.34995
1.34128
1.35153
1.3641
1.38219
1.40722
1.43358
1.45677
1.47588
1.49155
1.50463
1.51499
1.52416
1.53437
1.5463
1.55975
1.57402
1.58802
1.60206
1.61538
1.62847
1.64076
1.65246
1.66354
1.67416
1.68447
1.69458
1.70453
1.71422
1.72386
1.73224
1.73988
1.74258
1.14937
1.25597
1.35675
1.44905
1.53211
1.60078
1.65687
1.69752
1.72415
1.73246
1.73274
1.72898
1.71948
1.7113
1.70581
1.7053
1.70623
1.70814
1.71135
1.71466
1.7176
1.7203
1.72287
1.72568
1.72873
1.73201
1.73558
1.73944
1.74348
1.74767
1.75201
1.75656
1.76135
1.7664
1.77173
1.77735
1.78325
1.78942
1.79582
1.80241
1.80914
1.81603
1.82289
1.83003
1.83677
1.84396
1.85028
1.85662
1.86045
1.86297
1.86354
1.86013
1.84644
1.81298
1.74646
1.6621
1.59841
1.57848
1.59076
1.60899
1.62745
1.64466
1.65459
1.65513
1.64667
1.62718
1.59792
1.56312
1.52228
1.48911
1.46636
1.45831
1.46951
1.48291
1.50156
1.52693
1.55276
1.57722
1.59729
1.61484
1.62795
1.63871
1.64832
1.65795
1.66841
1.6801
1.69251
1.70532
1.71803
1.73077
1.74303
1.75533
1.76677
1.77864
1.78918
1.80039
1.81036
1.82002
1.82811
1.83178
1.15229
1.25757
1.35361
1.44105
1.52256
1.5946
1.65998
1.7151
1.76005
1.79033
1.80594
1.80869
1.80823
1.80453
1.79741
1.79199
1.78837
1.78751
1.78838
1.78967
1.79222
1.7953
1.79836
1.80132
1.80425
1.80728
1.81049
1.81391
1.81754
1.82138
1.8255
1.82987
1.83455
1.83947
1.84466
1.85008
1.85568
1.8615
1.86745
1.87363
1.87985
1.88637
1.89276
1.89952
1.906
1.91249
1.91829
1.92178
1.92371
1.92346
1.91789
1.89959
1.8567
1.77963
1.68793
1.62655
1.6131
1.62736
1.64604
1.66906
1.69127
1.71442
1.73178
1.7453
1.75232
1.75344
1.74765
1.7324
1.70905
1.67937
1.64141
1.60539
1.57165
1.55033
1.54247
1.55486
1.56938
1.58821
1.61247
1.6387
1.66241
1.68326
1.70047
1.71472
1.72702
1.73751
1.74732
1.7572
1.76717
1.7781
1.78957
1.80175
1.81347
1.82582
1.83784
1.84956
1.86175
1.87195
1.88238
1.88669
1.15035
1.25061
1.34361
1.42823
1.50693
1.57884
1.64391
1.70106
1.75108
1.79192
1.82555
1.84756
1.8605
1.86336
1.86321
1.86093
1.85541
1.85164
1.84789
1.84824
1.84878
1.85063
1.85364
1.85766
1.86172
1.86556
1.86906
1.87248
1.87591
1.8796
1.88351
1.88775
1.8922
1.8969
1.90179
1.90685
1.91208
1.91749
1.92307
1.92884
1.93477
1.94079
1.94706
1.95307
1.95909
1.96428
1.9668
1.968
1.96673
1.95808
1.9341
1.88038
1.79144
1.69675
1.64469
1.63717
1.65119
1.67004
1.68982
1.71369
1.73625
1.75875
1.7786
1.79669
1.81059
1.82249
1.82885
1.83175
1.82998
1.8213
1.80457
1.78235
1.75177
1.71969
1.682
1.65182
1.6283
1.62093
1.63406
1.64879
1.66664
1.69018
1.71503
1.73776
1.75795
1.77373
1.78854
1.80068
1.81156
1.82179
1.83118
1.84131
1.85199
1.86319
1.87558
1.88714
1.90049
1.91082
1.92277
1.9276
1.14696
1.2393
1.32815
1.41058
1.487
1.55743
1.62283
1.68176
1.73579
1.7827
1.82386
1.85767
1.88457
1.90146
1.91017
1.91194
1.91182
1.91035
1.9066
1.90443
1.90219
1.90306
1.90394
1.90577
1.90867
1.91259
1.91637
1.92022
1.92364
1.92737
1.93099
1.93494
1.93901
1.94333
1.94789
1.9526
1.95754
1.96264
1.96795
1.97343
1.97899
1.98483
1.99045
1.9958
2.00034
2.00225
2.0026
1.99968
1.98749
1.9564
1.89078
1.79002
1.69384
1.65512
1.65237
1.66589
1.6842
1.70445
1.72574
1.74863
1.77018
1.79205
1.81189
1.83122
1.84847
1.86409
1.87745
1.88862
1.89741
1.90195
1.90381
1.90138
1.89284
1.87691
1.85475
1.82923
1.79332
1.76075
1.72575
1.70093
1.6909
1.70341
1.71698
1.73362
1.75532
1.77779
1.8014
1.81982
1.83825
1.85204
1.86623
1.87779
1.88973
1.90012
1.91159
1.92146
1.93333
1.94322
1.95484
1.95987
1.14617
1.23019
1.31253
1.3907
1.46477
1.53365
1.59827
1.65778
1.71278
1.76273
1.80754
1.84605
1.87922
1.90596
1.92765
1.94107
1.94921
1.95129
1.95144
1.95075
1.94839
1.94644
1.94456
1.94541
1.94625
1.94809
1.95122
1.95563
1.96044
1.96499
1.96924
1.97323
1.97716
1.98126
1.98554
1.99005
1.99476
1.99968
2.00481
2.00996
2.01529
2.0206
2.02528
2.02874
2.03015
2.02982
2.02457
2.00822
1.96881
1.88972
1.78018
1.68922
1.66297
1.66324
1.67568
1.69395
1.71274
1.73453
1.75496
1.77672
1.79718
1.81758
1.83641
1.85512
1.87258
1.8897
1.9058
1.9207
1.93495
1.94685
1.95869
1.96657
1.97238
1.97463
1.97303
1.9656
1.95057
1.93204
1.90224
1.87387
1.83388
1.80004
1.77025
1.75724
1.76894
1.78161
1.79754
1.81692
1.84029
1.86122
1.88373
1.89936
1.91698
1.92974
1.94434
1.95525
1.96786
1.97693
1.98686
1.99185
1.14784
1.22363
1.29937
1.37254
1.4428
1.50917
1.57196
1.63061
1.68564
1.73613
1.78322
1.82535
1.86382
1.89668
1.9253
1.94824
1.9662
1.97721
1.9841
1.98611
1.98652
1.98619
1.98549
1.9841
1.9846
1.98506
1.98645
1.98871
1.99209
1.99632
2.00079
2.00524
2.00955
2.0137
2.01779
2.02193
2.02624
2.0307
2.03531
2.03999
2.04465
2.04877
2.05079
2.05138
2.05008
2.04239
2.02101
1.97202
1.87831
1.76342
1.67998
1.6621
1.6678
1.68017
1.6967
1.71693
1.73785
1.75919
1.77917
1.79991
1.81925
1.83896
1.85738
1.87601
1.89394
1.91184
1.92931
1.94668
1.96354
1.9799
1.99561
2.00917
2.02304
2.03276
2.0426
2.04733
2.04979
2.04839
2.04212
2.02823
2.00724
1.98471
1.94809
1.91594
1.87338
1.84349
1.82579
1.83474
1.84744
1.86267
1.88108
1.90109
1.92464
1.94332
1.96437
1.97769
1.994
2.00466
2.01717
2.02206
1.15215
1.22041
1.28979
1.35805
1.42423
1.4876
1.54803
1.6051
1.65907
1.70949
1.75668
1.80026
1.84048
1.87681
1.90969
1.93794
1.96224
1.98164
1.99679
2.00639
2.01242
2.01471
2.01544
2.01549
2.01529
2.01459
2.01497
2.01547
2.01703
2.01952
2.02312
2.02738
2.0319
2.03637
2.04066
2.04498
2.04909
2.05327
2.05746
2.06137
2.0645
2.06598
2.06583
2.06313
2.05272
2.0258
1.96611
1.85908
1.74091
1.67291
1.66133
1.66994
1.68301
1.69969
1.7187
1.74025
1.76118
1.78222
1.80233
1.82248
1.84186
1.86123
1.87967
1.89843
1.91644
1.93477
1.953
1.97073
1.98881
2.00588
2.023
2.03953
2.0555
2.06998
2.08502
2.09568
2.10819
2.11595
2.12206
2.12482
2.1244
2.11914
2.10628
2.08965
2.06216
2.0366
1.99451
1.9591
1.92007
1.9018
1.90299
1.91493
1.93077
1.94595
1.96501
1.98399
2.0064
2.02099
2.03954
2.04388
1.15998
1.22031
1.2834
1.34649
1.40833
1.4682
1.52581
1.58079
1.63324
1.6828
1.72974
1.77363
1.81487
1.85284
1.88809
1.91966
1.94839
1.97292
1.99414
2.01086
2.02389
2.03237
2.03779
2.04052
2.04162
2.04203
2.0424
2.04247
2.04313
2.04367
2.04543
2.04814
2.05187
2.056
2.06053
2.0649
2.06919
2.07336
2.07716
2.0794
2.08037
2.07969
2.07527
2.06168
2.02834
1.95681
1.83627
1.71764
1.6661
1.65771
1.66875
1.68436
1.70075
1.7207
1.74159
1.76355
1.78461
1.80546
1.82535
1.84524
1.86454
1.88369
1.90247
1.9211
1.93939
1.95777
1.97547
1.99343
2.01108
2.02834
2.04627
2.06263
2.08009
2.09613
2.11236
2.12766
2.14311
2.15555
2.16959
2.17866
2.18919
2.19474
2.19811
2.19859
2.19493
2.1845
2.16744
2.14768
2.11496
2.08598
2.03846
2.0057
1.97606
1.97066
1.98254
1.99472
2.00943
2.02409
2.04259
2.04968
1.16933
1.22338
1.27994
1.33766
1.39523
1.45164
1.50644
1.55916
1.60982
1.65819
1.70432
1.74807
1.78946
1.8283
1.8647
1.8983
1.92928
1.95721
1.98228
2.00388
2.02234
2.03701
2.04844
2.05596
2.06101
2.06344
2.06467
2.06522
2.06546
2.06578
2.06628
2.06738
2.0695
2.07255
2.07651
2.08065
2.08484
2.08879
2.09075
2.09124
2.0902
2.08415
2.06759
2.02767
1.94394
1.81322
1.69899
1.66116
1.65614
1.66791
1.68396
1.70236
1.72283
1.74432
1.76556
1.78719
1.80793
1.82857
1.84861
1.86833
1.88763
1.90664
1.92536
1.94382
1.96214
1.9801
1.99818
2.01585
2.0335
2.05084
2.06815
2.08517
2.10274
2.11905
2.13678
2.15251
2.16946
2.18493
2.20077
2.21469
2.22966
2.2404
2.25312
2.26086
2.2691
2.27265
2.27421
2.27176
2.26496
2.25083
2.22965
2.20748
2.16962
2.13574
2.0863
2.06273
2.03769
2.0464
2.05529
2.06023
1.18235
1.22989
1.28015
1.33258
1.38567
1.43836
1.49013
1.54045
1.58914
1.63602
1.68104
1.72404
1.7651
1.804
1.84085
1.87546
1.90786
1.93786
1.96549
1.99042
2.01273
2.03195
2.04831
2.06132
2.0714
2.07842
2.08301
2.08569
2.08718
2.08814
2.08856
2.08937
2.09012
2.09179
2.0942
2.09716
2.10024
2.10194
2.10211
2.10059
2.09305
2.07333
2.02666
1.93012
1.7914
1.68277
1.65443
1.65448
1.66616
1.68287
1.70245
1.72442
1.74633
1.76813
1.78941
1.81078
1.83141
1.8519
1.87167
1.89128
1.91055
1.92946
1.94825
1.96658
1.98493
2.00288
2.02078
2.03825
2.05594
2.07309
2.09079
2.10759
2.12513
2.14172
2.15925
2.17546
2.19319
2.20872
2.22609
2.24127
2.25755
2.27211
2.28742
2.29999
2.31426
2.32354
2.33509
2.34187
2.34747
2.35004
2.34981
2.34503
2.33337
2.31816
2.2924
2.26625
2.2235
2.18356
2.12759
2.13019
1.19665
1.23853
1.28378
1.33123
1.37979
1.42873
1.47735
1.52518
1.57182
1.61708
1.66083
1.70292
1.74331
1.78191
1.81869
1.85356
1.88659
1.91758
1.94666
1.97352
1.99826
2.02056
2.0404
2.05762
2.07212
2.08379
2.09296
2.09952
2.10403
2.10693
2.10851
2.10956
2.11028
2.11109
2.11192
2.11287
2.1133
2.1124
2.1096
2.10036
2.0769
2.02376
1.91522
1.77143
1.67006
1.64885
1.65357
1.66581
1.68259
1.70265
1.72525
1.74807
1.77034
1.79205
1.81319
1.8341
1.85457
1.87482
1.89476
1.91424
1.93353
1.95231
1.97113
1.98941
2.00783
2.02561
2.04366
2.06112
2.07881
2.09594
2.1134
2.13034
2.14797
2.16463
2.18237
2.19868
2.21628
2.23224
2.2498
2.26511
2.28257
2.29729
2.31408
2.32843
2.34421
2.35755
2.37248
2.38362
2.39707
2.40527
2.4154
2.4209
2.42493
2.42638
2.42393
2.41716
2.40108
2.38351
2.34383
2.33757
1.2123
1.2506
1.29102
1.33336
1.37779
1.42291
1.4682
1.51318
1.55748
1.60078
1.64296
1.68377
1.72323
1.76116
1.79767
1.83253
1.86588
1.89751
1.92746
1.95564
1.98198
2.00636
2.02877
2.04894
2.06695
2.08249
2.09567
2.10639
2.11476
2.12076
2.12523
2.12782
2.12916
2.12968
2.12975
2.12856
2.12694
2.12175
2.10902
2.08037
2.01867
1.89856
1.75292
1.66049
1.64294
1.65097
1.66516
1.68231
1.70305
1.7259
1.74912
1.77179
1.79391
1.81536
1.83636
1.85711
1.87756
1.89777
1.91763
1.93713
1.95651
1.97536
1.99434
2.0126
2.03115
2.04895
2.06708
2.08444
2.10231
2.11941
2.13721
2.15409
2.17173
2.1884
2.20602
2.2224
2.2401
2.25611
2.27366
2.28932
2.30663
2.32182
2.33899
2.35358
2.37046
2.38452
2.40073
2.41421
2.42959
2.44175
2.45632
2.46629
2.47883
2.48619
2.4951
2.49908
2.50151
2.50038
2.49147
2.49328
1.2284
1.26366
1.30053
1.33954
1.37957
1.42119
1.46332
1.50541
1.54719
1.58832
1.6286
1.66792
1.70609
1.74313
1.77882
1.81333
1.84632
1.87812
1.90833
1.93718
1.96448
1.99017
2.01425
2.03652
2.05693
2.07547
2.0918
2.10595
2.11817
2.1277
2.1355
2.14115
2.14407
2.14489
2.14431
2.1423
2.13588
2.12044
2.08644
2.01608
1.88532
1.73859
1.65552
1.63925
1.64959
1.66445
1.68251
1.70385
1.7274
1.75067
1.77349
1.79546
1.81719
1.83835
1.85936
1.87993
1.9005
1.92064
1.94079
1.96035
1.97996
1.99887
2.018
2.03634
2.0551
2.07295
2.09132
2.1088
2.12679
2.14394
2.16171
2.1786
2.19638
2.21301
2.23078
2.24708
2.26475
2.28065
2.29825
2.31374
2.33122
2.34638
2.36362
2.37844
2.39541
2.40974
2.42643
2.44023
2.45651
2.46977
2.48547
2.49798
2.513
2.52414
2.53817
2.54723
2.5587
2.56503
2.57061
2.57506
1.246
1.27938
1.31268
1.34751
1.38431
1.42244
1.46146
1.50077
1.54009
1.57902
1.61744
1.65507
1.69186
1.72775
1.76253
1.79634
1.82898
1.86041
1.89071
1.9197
1.94737
1.97378
1.99872
2.02226
2.04415
2.06469
2.08329
2.10003
2.11565
2.12788
2.13958
2.1482
2.15305
2.1538
2.15242
2.14649
2.13033
2.09305
2.01633
1.87791
1.73131
1.65405
1.6392
1.65016
1.66612
1.68449
1.70634
1.72986
1.75378
1.77659
1.79859
1.81984
1.84103
1.86196
1.8829
1.9036
1.92424
1.9445
1.96471
1.98438
2.00407
2.02315
2.04243
2.06096
2.07981
2.09776
2.11617
2.13364
2.15176
2.16893
2.18682
2.20373
2.22141
2.238
2.25556
2.2718
2.28932
2.30523
2.32271
2.33827
2.35566
2.37081
2.38806
2.40282
2.41987
2.43426
2.45105
2.46503
2.48152
2.49504
2.51117
2.5242
2.53989
2.55229
2.56745
2.57892
2.59335
2.60328
2.61555
2.62116
1.26355
1.29477
1.32639
1.35871
1.39228
1.42734
1.46297
1.49961
1.53641
1.57313
1.60936
1.64526
1.68041
1.7149
1.74868
1.7814
1.81342
1.84442
1.87427
1.90335
1.93114
1.95781
1.98336
2.00785
2.03058
2.05248
2.07311
2.09108
2.10939
2.12431
2.13753
2.14974
2.15323
2.1529
2.14831
2.13338
2.09572
2.01578
1.87224
1.72632
1.65464
1.64217
1.65389
1.66982
1.68973
1.71234
1.73595
1.75916
1.78181
1.80367
1.82496
1.84573
1.86649
1.88711
1.90787
1.92844
1.94903
1.96921
1.98942
2.00902
2.0288
2.04782
2.06715
2.08559
2.10452
2.12249
2.14104
2.15859
2.1767
2.19383
2.21164
2.22841
2.24605
2.26254
2.28008
2.29629
2.31375
2.3296
2.34698
2.36244
2.37974
2.39489
2.41209
2.42689
2.44392
2.45831
2.47511
2.48908
2.50563
2.51921
2.53548
2.54865
2.56459
2.57729
2.59285
2.60497
2.62012
2.63134
2.64531
2.6523
1.28411
1.3089
1.34023
1.37053
1.40137
1.43363
1.46707
1.50103
1.53553
1.57007
1.60456
1.6385
1.67215
1.7051
1.73755
1.76936
1.80034
1.83066
1.86016
1.8887
1.91641
1.94332
1.96886
1.99364
2.01772
2.03944
2.06162
2.08154
2.09953
2.11796
2.13169
2.14238
2.14368
2.14019
2.12626
2.08923
2.00547
1.86399
1.72141
1.65334
1.64392
1.65738
1.67511
1.69583
1.7206
1.74508
1.76819
1.78978
1.81087
1.83175
1.85261
1.87312
1.89355
1.91369
1.93401
1.95418
1.97447
1.9944
2.01442
2.03382
2.05342
2.07233
2.09162
2.11012
2.12905
2.147
2.1655
2.18295
2.2011
2.21818
2.23606
2.25282
2.27049
2.28697
2.30449
2.32062
2.33802
2.35381
2.37117
2.38664
2.40395
2.41907
2.43625
2.45098
2.46796
2.4823
2.49909
2.51305
2.5296
2.54315
2.55941
2.57252
2.58846
2.60111
2.61673
2.62887
2.6442
2.65561
2.67
2.67729
1.30804
1.32679
1.35487
1.38471
1.41388
1.44318
1.47381
1.50515
1.53719
1.56962
1.60207
1.63441
1.6665
1.6981
1.7293
1.75999
1.79002
1.81957
1.84832
1.87624
1.90379
1.92984
1.95584
1.98061
2.00396
2.02794
2.04873
2.07023
2.09001
2.10656
2.12212
2.12499
2.12214
2.1096
2.07374
1.98999
1.84569
1.70894
1.64844
1.64115
1.65651
1.67826
1.70122
1.72731
1.75318
1.77736
1.7997
1.82032
1.84074
1.86097
1.88136
1.90135
1.92138
1.94102
1.96095
1.9806
2.00063
2.02013
2.03995
2.05901
2.07861
2.09725
2.11655
2.13475
2.15369
2.17151
2.19011
2.20753
2.22573
2.24274
2.26066
2.27733
2.29507
2.31145
2.32903
2.3451
2.36258
2.37833
2.39572
2.41111
2.42839
2.44341
2.46058
2.47525
2.49228
2.50658
2.5234
2.53729
2.55385
2.56731
2.58357
2.5966
2.61254
2.62512
2.64077
2.65288
2.6683
2.67972
2.69428
2.7016
1.33571
1.34511
1.36752
1.39687
1.42556
1.45377
1.48242
1.51172
1.54146
1.57172
1.60198
1.6326
1.663
1.69328
1.72309
1.75258
1.78159
1.81012
1.83794
1.86569
1.89189
1.91855
1.94366
1.96803
1.99296
2.01465
2.03819
2.05865
2.07781
2.09541
2.10017
2.09798
2.08611
2.05097
1.96658
1.81698
1.68512
1.63653
1.63467
1.6505
1.67455
1.70246
1.72945
1.75505
1.78073
1.80508
1.82815
1.84956
1.87034
1.89019
1.91025
1.92994
1.94993
1.96942
1.98922
2.00853
2.02821
2.04728
2.06684
2.08556
2.1049
2.12319
2.14235
2.16032
2.17923
2.19679
2.21529
2.23245
2.25064
2.26752
2.28548
2.30205
2.31981
2.33607
2.35366
2.36961
2.38706
2.40268
2.42003
2.43533
2.45261
2.46759
2.48475
2.49936
2.51634
2.53054
2.5473
2.56108
2.5776
2.59097
2.6072
2.62013
2.63605
2.64855
2.6642
2.67625
2.69169
2.70306
2.71768
2.72498
1.37357
1.37188
1.38567
1.40971
1.43814
1.46477
1.49139
1.51858
1.54636
1.57475
1.60362
1.63237
1.66129
1.69015
1.71875
1.74701
1.77517
1.80238
1.83003
1.856
1.88271
1.90816
1.93285
1.95837
1.98079
2.00525
2.02651
2.04723
2.06578
2.07204
2.06975
2.05757
2.0223
1.93448
1.78292
1.65382
1.61442
1.62151
1.64045
1.66366
1.69642
1.72638
1.75377
1.77894
1.80375
1.82803
1.85189
1.8746
1.89665
1.91752
1.93826
1.95821
1.97848
1.99813
2.01804
2.03719
2.05666
2.0753
2.09452
2.11275
2.13186
2.14975
2.16871
2.18619
2.20487
2.22205
2.24047
2.25742
2.27553
2.29217
2.31001
2.32637
2.34404
2.36015
2.37769
2.39353
2.41095
2.4265
2.4438
2.45903
2.47622
2.49109
2.50814
2.52263
2.53953
2.55366
2.57036
2.5841
2.60056
2.61388
2.63006
2.64296
2.65887
2.67137
2.68705
2.69912
2.71461
2.72601
2.74069
2.74803
1.41568
1.40035
1.40685
1.42554
1.45165
1.47836
1.50338
1.5281
1.55351
1.57965
1.60667
1.63404
1.66153
1.68909
1.71649
1.74405
1.77048
1.79767
1.82342
1.84967
1.87533
1.89973
1.92553
1.9482
1.97291
1.99471
2.01594
2.03497
2.04181
2.03914
2.02612
1.9891
1.89567
1.74361
1.61809
1.5873
1.59971
1.62425
1.65037
1.68326
1.71716
1.7476
1.77501
1.8
1.82445
1.84856
1.87269
1.89601
1.91888
1.9407
1.9625
1.98343
2.00447
2.0246
2.04485
2.06417
2.08366
2.10226
2.1213
2.13941
2.15827
2.17593
2.19465
2.21194
2.23052
2.24745
2.26571
2.28231
2.30025
2.31665
2.33439
2.3506
2.36818
2.38415
2.40158
2.41728
2.43457
2.44999
2.46717
2.48228
2.49936
2.51414
2.53112
2.54556
2.56241
2.57645
2.59311
2.60675
2.62318
2.63641
2.65259
2.66543
2.68136
2.69382
2.70953
2.72155
2.73707
2.7484
2.76312
2.77038
1.50195
1.44471
1.43532
1.44332
1.46265
1.4884
1.51375
1.53835
1.56282
1.58755
1.61261
1.63814
1.66395
1.68992
1.71621
1.74207
1.76842
1.79395
1.81926
1.84495
1.86893
1.89452
1.91742
1.94181
1.96399
1.98511
2.00427
2.01071
2.00716
1.9926
1.95235
1.85311
1.6997
1.58085
1.55845
1.57352
1.603
1.63378
1.66731
1.70145
1.73458
1.76497
1.79282
1.81849
1.84319
1.86751
1.89167
1.91522
1.93838
1.96086
1.98336
2.00513
2.02701
2.04799
2.06888
2.08879
2.10879
2.1278
2.14716
2.16548
2.18448
2.20226
2.22105
2.23831
2.25679
2.27356
2.29174
2.30819
2.32608
2.34226
2.35987
2.37581
2.39324
2.40895
2.42626
2.44173
2.45892
2.47411
2.4912
2.50611
2.52312
2.53772
2.55464
2.56891
2.58572
2.59962
2.61628
2.6298
2.64628
2.65941
2.67567
2.68842
2.70444
2.71681
2.73259
2.74451
2.76007
2.77131
2.78608
2.79326
1.66775
1.49984
1.46876
1.46704
1.47775
1.49812
1.52286
1.54704
1.57073
1.59444
1.61865
1.64322
1.668
1.69285
1.71762
1.74228
1.76731
1.7917
1.81706
1.8406
1.8654
1.8886
1.91217
1.93479
1.95539
1.97425
1.97991
1.9751
1.95843
1.91442
1.8098
1.65263
1.54322
1.52814
1.54544
1.57631
1.61413
1.64975
1.68342
1.71608
1.74838
1.77905
1.80762
1.83412
1.85944
1.88425
1.90878
1.93306
1.95694
1.98008
2.00292
2.02516
2.04752
2.06916
2.09085
2.11161
2.13227
2.15194
2.17183
2.19067
2.21006
2.22818
2.2472
2.26461
2.28327
2.30003
2.31826
2.33447
2.35229
2.36814
2.38567
2.40129
2.41862
2.434
2.45117
2.46628
2.48332
2.49818
2.51515
2.52977
2.54668
2.56103
2.57789
2.59195
2.60874
2.62248
2.63916
2.65256
2.66911
2.68215
2.69851
2.71117
2.72731