/*--------------------------------*- C++ -*----------------------------------*\
  =========                 |
  \\      /  F ield         | OpenFOAM: The Open Source CFD Toolbox
   \\    /   O peration     | Website:  https://openfoam.org
    \\  /    A nd           | Version:  13
     \\/     M anipulation  |
\*---------------------------------------------------------------------------*/
FoamFile
{
    format      ascii;
    class       volScalarField;
    location    "1.5";
    object      p;
}
// * * * * * * * * * * * * * * * * * * * * * * * * * * * * * * * * * * * * * //

dimensions      [1 -1 -2 0 0 0 0];

internalField   nonuniform List<scalar> 
5250
(
1
1.00002
1.00005
1.00013
1.00031
1.00084
1.00192
1.00513
1.01175
1.03114
1.07389
1.19268
1.50089
2.3999
5.09652
11.5673
11.4273
11.1605
11.2057
11.3746
11.6137
11.7791
11.8915
11.9776
12.0405
1
1.00002
1.00005
1.00012
1.00034
1.00077
1.00206
1.00468
1.01255
1.02902
1.07595
1.18712
1.49871
2.38169
5.04717
11.4937
11.3926
11.1654
11.2039
11.3627
11.6038
11.7698
11.8831
11.97
12.0341
1
1.00002
1.00005
1.00013
1.0003
1.00082
1.00185
1.00497
1.01144
1.02993
1.07188
1.18584
1.48422
2.34919
4.94071
11.3288
11.3144
11.1642
11.1874
11.3226
11.5625
11.7269
11.8388
11.9244
11.9882
1
1.00002
1.00005
1.00012
1.00031
1.00075
1.00186
1.00467
1.01126
1.02858
1.0699
1.1788
1.46686
2.29825
4.78008
11.0523
11.2618
11.1362
11.1469
11.2591
11.4884
11.6499
11.7578
11.8404
11.9048
1
1.00001
1.00005
1.00011
1.0003
1.00069
1.00185
1.00421
1.0113
1.02607
1.06843
1.16772
1.44586
2.22868
4.57041
10.6606
11.2141
11.0845
11.0797
11.1737
11.385
11.543
11.645
11.7232
11.7878
1
1.00001
1.00004
1.0001
1.00028
1.00065
1.00174
1.00395
1.0106
1.0245
1.06423
1.15719
1.41674
2.14362
4.31734
10.1443
11.1641
11.0271
10.9826
11.063
11.2528
11.4005
11.4916
11.5613
11.6263
1
1.00001
1.00004
1.0001
1.00025
1.00063
1.00152
1.00388
1.00923
1.02379
1.05737
1.14745
1.3801
2.0486
4.02074
9.48729
11.1197
10.9655
10.8607
10.9258
11.0886
11.2173
11.2889
11.3406
11.3972
1
1.00001
1.00003
1.00009
1.00022
1.00059
1.00134
1.00358
1.00827
1.0216
1.05184
1.13316
1.34181
1.93635
3.68759
8.6733
11.092
10.9048
10.7163
10.7623
10.8895
10.9878
11.0263
11.0401
11.0677
1
1.00001
1.00003
1.00008
1.00021
1.00048
1.00126
1.003
1.00755
1.01866
1.04622
1.1165
1.29962
1.81258
3.3169
7.6944
11.0805
10.8481
10.5524
10.5738
10.6532
10.7027
10.6864
10.6209
10.5488
1
1.00001
1.00003
1.00007
1.00017
1.00044
1.00103
1.00264
1.00645
1.01593
1.03985
1.09902
1.25467
1.68021
2.9248
6.57922
11.0571
10.7934
10.3837
10.3592
10.3823
10.3639
10.2619
10.0246
9.66049
1
1.00001
1.00002
1.00006
1.00015
1.00035
1.0009
1.00219
1.00537
1.01351
1.03276
1.08282
1.20819
1.55054
2.522
5.33765
10.9153
10.6746
10.2288
10.1198
10.0843
9.97891
9.70634
9.08822
7.51475
1
1.00001
1.00002
1.00005
1.00012
1.00031
1.00075
1.00185
1.00464
1.01115
1.02835
1.06908
1.17656
1.45918
2.26813
4.62492
10.3127
10.3513
10.1084
9.87725
9.76984
9.56289
9.13346
8.29633
6.64188
1
1.00001
1.00002
1.00004
1.0001
1.00026
1.00062
1.0016
1.00374
1.00979
1.02293
1.05952
1.14573
1.38391
2.04302
3.98052
9.07405
10.0506
9.91159
9.63256
9.44477
9.16448
8.64484
7.77921
6.43712
1
1
1.00001
1.00003
1.00009
1.00021
1.00053
1.00125
1.00327
1.00758
1.01999
1.04717
1.12222
1.3097
1.84323
3.3811
7.65812
9.84899
9.73386
9.44241
9.15384
8.8148
8.27953
7.47841
6.40207
1
1
1.00001
1.00003
1.00007
1.00017
1.00041
1.00105
1.00247
1.00646
1.01503
1.03922
1.09455
1.24611
1.64934
2.8198
6.14065
9.68784
9.59827
9.30208
8.91389
8.52909
8.01152
7.29246
6.39202
1
1
1.00001
1.00002
1.00005
1.00013
1.00034
1.00076
1.00204
1.00463
1.01235
1.02845
1.07419
1.18148
1.47894
2.29575
4.57739
9.30137
9.40366
9.18781
8.73633
8.30238
7.80441
7.16136
6.38535
1
1
1.00001
1.00002
1.00004
1.00011
1.00024
1.00064
1.00146
1.00388
1.00898
1.02322
1.05582
1.14236
1.3648
1.98854
3.7639
8.25048
9.12403
8.97057
8.59074
8.11979
7.6363
7.05704
6.37582
1
1
1.00001
1.00001
1.00003
1.00007
1.0002
1.00045
1.00121
1.00276
1.00727
1.01702
1.04366
1.1069
1.27617
1.73471
3.04504
6.60056
8.8405
8.75863
8.47664
7.98338
7.50184
6.97063
6.36512
1
1
1
1.00001
1.00002
1.00006
1.00013
1.00036
1.00082
1.00219
1.00496
1.01315
1.03061
1.07905
1.19529
1.51491
2.39502
4.8053
8.46752
8.57555
8.38396
7.9354
7.41191
6.90271
6.35506
1
1
1
1.00001
1.00002
1.00004
1.00011
1.00024
1.00064
1.0015
1.00378
1.00923
1.02261
1.05636
1.13985
1.36103
1.96066
3.62119
7.55815
8.36762
8.23462
7.87972
7.34774
6.85121
6.34663
1
1
1
1
1.00001
1.00003
1.00008
1.00017
1.00046
1.00106
1.00278
1.00647
1.01652
1.03992
1.10043
1.25389
1.67098
2.83119
5.89417
8.08964
8.04454
7.81745
7.33652
6.82733
6.34636
1
1
1
1
1.00001
1.00002
1.00005
1.00012
1.00032
1.00073
1.00191
1.00441
1.01137
1.02693
1.06788
1.16749
1.43187
2.13701
3.97284
7.56061
7.89802
7.74354
7.34813
6.8306
6.3512
1
1
1
1
1.00001
1.00001
1.00004
1.00008
1.00022
1.0005
1.00133
1.00302
1.00799
1.01836
1.04756
1.11438
1.29571
1.77307
3.08307
6.33435
7.66684
7.59556
7.33987
6.85011
6.36724
1
1
1
1
1
1.00001
1.00002
1.00006
1.00014
1.00036
1.00085
1.00215
1.00519
1.01268
1.03153
1.07701
1.19481
1.50191
2.33747
4.50523
7.21837
7.41956
7.28596
6.9201
6.40593
1
1
1
1
1
1.00001
1.00002
1.00004
1.0001
1.00023
1.00057
1.00142
1.00337
1.00856
1.02012
1.05131
1.12407
1.31877
1.82632
3.16337
6.23712
7.22951
7.16781
6.93648
6.46933
1
1
1
1
1
1
1.00001
1.00003
1.00006
1.00015
1.00038
1.0009
1.00228
1.00531
1.01372
1.03202
1.08194
1.20064
1.52236
2.36634
4.51501
6.82726
7.00989
6.89682
6.59105
1
1
1
1
1
1
1.00001
1.00002
1.00004
1.0001
1.00023
1.0006
1.00137
1.00359
1.00812
1.0214
1.04934
1.127
1.31387
1.81507
3.08325
5.93613
6.82794
6.78952
6.60379
1
1
1
1
1
1
1
1.00001
1.00003
1.00006
1.00016
1.00035
1.00093
1.00208
1.00549
1.01251
1.03234
1.07656
1.19488
1.49292
2.27938
4.2283
6.41158
6.65606
6.56509
1
1
1
1
1
1
1
1.00001
1.00002
1.00004
1.00009
1.00022
1.00056
1.00129
1.00336
1.00761
1.01997
1.04598
1.11797
1.28966
1.74587
2.88567
5.4715
6.45597
6.44668
1
1
1
1
1
1
1
1
1.00001
1.00002
1.00005
1.00014
1.00032
1.00083
1.00189
1.00485
1.01139
1.02833
1.06876
1.17064
1.43059
2.09509
3.7177
5.97597
6.33587
1
1
1
1
1
1
1
1
1.00001
1.00001
1.00003
1.00008
1.00019
1.0005
1.00112
1.00295
1.00664
1.01736
1.04003
1.10197
1.24917
1.63724
2.6077
4.877
6.08975
1
1
1
1
1
1
1
1
1
1.00001
1.00002
1.00005
1.00012
1.00027
1.0007
1.00159
1.0041
1.00946
1.02368
1.05661
1.13988
1.3466
1.86269
3.07386
5.4995
1
1
1
1
1
1
1
1
1
1
1.00001
1.00003
1.00007
1.00016
1.00041
1.00092
1.00242
1.00543
1.01419
1.03236
1.08309
1.19905
1.50921
2.27637
4.14481
1
1
1
1
1
1
1
1
1
1
1.00001
1.00002
1.00004
1.0001
1.00022
1.00057
1.00127
1.00333
1.00746
1.0194
1.04456
1.11305
1.27446
1.6892
2.6813
1
1
1
1
1
1
1
1
1
1
1
1.00001
1.00002
1.00005
1.00013
1.00029
1.00076
1.0017
1.00444
1.00992
1.02574
1.05918
1.14981
1.36419
1.9031
1
1
1
1
1
1
1
1
1
1
1
1.00001
1.00001
1.00003
1.00007
1.00017
1.0004
1.00098
1.00239
1.00565
1.01414
1.03298
1.08293
1.19931
1.50166
1
1
1
1
1
1
1
1
1
1
1
1
1.00001
1.00002
1.00004
1.00009
1.00021
1.00055
1.00124
1.00322
1.0072
1.01868
1.04252
1.10803
1.25848
1
1
1
1
1
1
1
1
1
1
1
1
1
1.00001
1.00002
1.00005
1.00012
1.00027
1.0007
1.00161
1.00396
1.00947
1.02255
1.05515
1.13185
1
1
1
1
1
1
1
1
1
1
1
1
1
1
1.00001
1.00003
1.00006
1.00015
1.00037
1.00084
1.00217
1.00484
1.01254
1.02828
1.07228
1
1
1
1
1
1
1
1
1
1
1
1
1
1
1.00001
1.00001
1.00003
1.00008
1.00019
1.00044
1.00112
1.00254
1.00653
1.01467
1.0377
1
1
1
1
1
1
1
1
1
1
1
1
1
1
1
1.00001
1.00002
1.00004
1.00009
1.00024
1.00054
1.00138
1.0031
1.00791
1.01805
1
1
1
1
1
1
1
1
1
1
1
1
1
1
1
1
1.00001
1.00002
1.00005
1.00011
1.00029
1.00065
1.00162
1.00381
1.00906
1
1
1
1
1
1
1
1
1
1
1
1
1
1
1
1
1
1.00001
1.00002
1.00006
1.00014
1.00033
1.0008
1.00186
1.00468
1
1
1
1
1
1
1
1
1
1
1
1
1
1
1
1
1
1
1.00001
1.00003
1.00007
1.00016
1.0004
1.00092
1.00225
1
1
1
1
1
1
1
1
1
1
1
1
1
1
1
1
1
1
1.00001
1.00001
1.00003
1.00008
1.00019
1.00045
1.00111
1
1
1
1
1
1
1
1
1
1
1
1
1
1
1
1
1
1
1
1.00001
1.00002
1.00004
1.00009
1.00023
1.0005
1
1
1
1
1
1
1
1
1
1
1
1
1
1
1
1
1
1
1
1
1.00001
1.00002
1.00004
1.0001
1.00025
1
1
1
1
1
1
1
1
1
1
1
1
1
1
1
1
1
1
1
1
1
1.00001
1.00002
1.00005
1.00012
1
1
1
1
1
1
1
1
1
1
1
1
1
1
1
1
1
1
1
1
1
1
1.00001
1.00002
1.00006
1
1
1
1
1
1
1
1
1
1
1
1
1
1
1
1
1
1
1
1
1
1
1.00001
1.00001
1.00003
3.03175
1.54145
1.04688
0.940176
0.963448
1.03769
1.1941
1.3218
1.36272
1.36032
1.35242
1.33873
1.33543
1.33621
1.33838
1.34126
1.34113
1.34025
1.33783
1.33272
1.32624
1.32046
1.31534
1.31037
1.30517
1.29968
1.29389
1.28785
1.28161
1.27522
1.26868
1.26202
1.25524
1.24835
1.24134
1.23421
1.22698
1.21964
1.21222
1.20468
1.19706
1.18944
1.18171
1.17388
1.16608
1.15829
1.15047
1.14268
1.13499
1.12761
1.12105
1.11695
1.11797
1.12196
1.13268
1.15764
1.2127
1.32783
1.56111
2.01238
2.65871
3.38437
3.98348
4.28038
4.26551
4.22559
4.14982
4.02408
3.94665
3.93038
3.91653
3.88907
3.85669
3.8104
3.74888
3.66597
3.57537
3.49485
3.41999
3.35348
3.2964
3.24697
3.20352
3.16247
3.12006
3.07474
3.02546
2.97334
2.92016
2.86761
2.81724
2.76877
2.72211
2.67704
2.63391
2.59247
2.55331
2.5162
2.48568
2.45994
3.74652
2.35509
1.75579
1.49823
1.37337
1.28234
1.24798
1.25316
1.26985
1.30495
1.34518
1.36055
1.3596
1.35635
1.34934
1.34241
1.33839
1.33641
1.33503
1.33282
1.32902
1.32401
1.31827
1.31222
1.30618
1.30024
1.2943
1.28826
1.28205
1.27565
1.26908
1.26236
1.25552
1.24858
1.24153
1.23437
1.22711
1.21976
1.21231
1.20477
1.19715
1.18949
1.18176
1.17397
1.16617
1.15836
1.15055
1.14284
1.13524
1.12854
1.12262
1.12279
1.12498
1.13209
1.15106
1.19464
1.28539
1.46671
1.7544
2.08655
2.42019
2.73313
3.0802
3.49434
3.89326
4.172
4.29111
4.2654
4.19142
4.05841
3.89503
3.77102
3.68324
3.63339
3.60465
3.58916
3.57587
3.55056
3.5105
3.44962
3.37615
3.29871
3.22333
3.15115
3.08532
3.02694
2.97631
2.93156
2.89013
2.84972
2.80856
2.76677
2.72481
2.68282
2.64111
2.59974
2.55982
2.5205
2.48959
2.45679
4.57428
3.27077
2.45054
1.92711
1.5881
1.37587
1.24898
1.219
1.22441
1.24136
1.27758
1.3158
1.33974
1.34777
1.34715
1.34492
1.34002
1.33419
1.33025
1.32708
1.32363
1.31951
1.31482
1.30965
1.30415
1.29844
1.29256
1.28651
1.28029
1.27394
1.26747
1.26088
1.25418
1.24735
1.24039
1.23331
1.22611
1.21881
1.21141
1.20392
1.19636
1.18874
1.18105
1.17332
1.16556
1.15781
1.15012
1.14263
1.13584
1.13043
1.13082
1.13341
1.1408
1.16122
1.20862
1.30673
1.50179
1.78232
2.06516
2.22417
2.33547
2.43906
2.56431
2.73456
2.95986
3.27187
3.63782
3.95282
4.16841
4.16321
4.12963
4.05643
3.91093
3.75345
3.62254
3.52966
3.46171
3.41358
3.3833
3.36378
3.3372
3.29825
3.24586
3.1872
3.12664
3.06758
3.01082
2.95623
2.90427
2.85528
2.80913
2.76513
2.72252
2.68067
2.63934
2.59824
2.5588
2.51919
2.48917
2.45514
5.02161
3.84176
2.96722
2.35725
1.94872
1.67148
1.49452
1.37965
1.31082
1.28151
1.28298
1.29002
1.30609
1.3291
1.34569
1.35034
1.34961
1.3471
1.34158
1.3339
1.3278
1.32236
1.31745
1.31256
1.30737
1.30169
1.29559
1.28915
1.28256
1.2759
1.2692
1.26245
1.25562
1.24868
1.24162
1.23445
1.22717
1.2198
1.21234
1.2048
1.1972
1.18954
1.18183
1.17408
1.16633
1.15864
1.15117
1.1446
1.14006
1.14082
1.1444
1.15499
1.1806
1.23814
1.35526
1.5826
1.89551
2.14683
2.25234
2.29218
2.31114
2.32314
2.34397
2.38601
2.46228
2.57626
2.73616
2.95009
3.24328
3.56442
3.83686
4.01933
4.0006
3.952
3.873
3.72492
3.57287
3.44387
3.3425
3.26795
3.21922
3.18913
3.16537
3.14148
3.11147
3.07169
3.02413
2.97246
2.91911
2.86602
2.81422
2.764
2.71588
2.67013
2.62681
2.58533
2.54677
2.50796
2.47921
2.44691
5.29377
4.25842
3.41915
2.78184
2.31661
1.97618
1.72784
1.54719
1.41996
1.33562
1.28872
1.27756
1.27949
1.28595
1.29987
1.3157
1.32687
1.33143
1.33103
1.32944
1.32576
1.31929
1.31301
1.3071
1.30151
1.296
1.29038
1.28455
1.27852
1.27229
1.2659
1.25935
1.25265
1.24583
1.23889
1.23185
1.22472
1.2175
1.2102
1.20283
1.19537
1.18784
1.18026
1.17267
1.16517
1.15785
1.15153
1.14868
1.14973
1.1544
1.16766
1.20042
1.27081
1.41372
1.66833
2.01847
2.22747
2.31217
2.33341
2.32712
2.30941
2.27926
2.25544
2.24628
2.25197
2.27048
2.31437
2.39411
2.50613
2.66188
2.87782
3.15143
3.45002
3.70628
3.8764
3.85611
3.80218
3.72283
3.58586
3.44202
3.31096
3.209
3.13245
3.07406
3.03014
2.99483
2.96408
2.93372
2.90015
2.86123
2.81785
2.77274
2.72703
2.68181
2.63764
2.59425
2.55335
2.5124
2.48019
2.44808
5.47414
4.57697
3.79752
3.16409
2.66914
2.288
1.99774
1.77669
1.61079
1.48782
1.39943
1.33806
1.30459
1.29214
1.2932
1.29729
1.30642
1.31839
1.32809
1.33042
1.3299
1.32798
1.32373
1.31579
1.30759
1.3
1.29326
1.28718
1.28134
1.27538
1.26911
1.26249
1.25559
1.24851
1.24132
1.23408
1.22681
1.21949
1.21211
1.20466
1.19713
1.18955
1.18195
1.17446
1.16744
1.16112
1.16033
1.16194
1.16822
1.18539
1.22638
1.314
1.49168
1.78926
2.14577
2.31147
2.37373
2.38361
2.37168
2.34093
2.30064
2.25948
2.21961
2.18668
2.16182
2.14446
2.1438
2.15084
2.17315
2.22122
2.3008
2.40847
2.55831
2.76025
3.01926
3.29133
3.5434
3.70396
3.68285
3.62712
3.55167
3.42265
3.2838
3.15552
3.05596
2.97894
2.91839
2.87003
2.83156
2.79899
2.76949
2.73971
2.70783
2.67214
2.63372
2.59334
2.55374
2.51351
2.47937
2.4474
5.60135
4.81927
4.10544
3.49548
2.9944
2.59003
2.2688
2.01358
1.81226
1.65377
1.52965
1.436
1.36647
1.31955
1.29519
1.28766
1.28843
1.29121
1.29742
1.30537
1.31161
1.3116
1.311
1.30906
1.30481
1.29748
1.28977
1.28258
1.2761
1.26994
1.26383
1.2576
1.25118
1.24455
1.23772
1.23075
1.22369
1.21655
1.20932
1.20203
1.19469
1.18734
1.18012
1.17358
1.16771
1.16822
1.17102
1.17913
1.20125
1.25121
1.35717
1.56887
1.92615
2.25178
2.38866
2.43493
2.43352
2.41698
2.38147
2.33866
2.29268
2.24707
2.20283
2.16115
2.1234
2.09145
2.06544
2.04644
2.03457
2.03678
2.04627
2.06942
2.1159
2.19004
2.29176
2.42799
2.61808
2.8549
3.11577
3.3617
3.52929
3.50762
3.46376
3.39124
3.27875
3.15095
3.02918
2.9278
2.84933
2.78726
2.7368
2.69443
2.65848
2.62642
2.5973
2.56779
2.53786
2.50477
2.4734
2.44579
5.69357
5.00437
4.35537
3.77809
3.28434
2.87081
2.53034
2.25134
2.02425
1.83955
1.69098
1.57226
1.47826
1.40745
1.35322
1.31678
1.2965
1.28804
1.28843
1.29024
1.29445
1.30055
1.30609
1.30609
1.30552
1.30371
1.29966
1.29155
1.28257
1.27399
1.26624
1.25927
1.2528
1.24647
1.24004
1.23336
1.22638
1.21915
1.21175
1.20425
1.19686
1.18961
1.18335
1.17875
1.17949
1.18327
1.19446
1.22248
1.28557
1.41493
1.66633
2.07683
2.34065
2.4573
2.49042
2.48505
2.46305
2.42
2.37622
2.32905
2.28126
2.23467
2.18962
2.14662
2.10569
2.06742
2.03186
2.00111
1.97407
1.95265
1.93616
1.92615
1.92881
1.93777
1.95885
2.00047
2.06826
2.15808
2.28542
2.45173
2.67682
2.92168
3.1674
3.34168
3.3307
3.29507
3.22983
3.13376
3.01878
2.90217
2.80195
2.72297
2.66076
2.60867
2.56448
2.52549
2.49234
2.46293
2.43709
2.42122
5.76031
5.14674
4.55589
4.01467
3.53707
3.12494
2.77546
2.48145
2.23601
2.03138
1.86163
1.721
1.60542
1.51157
1.43625
1.37753
1.3339
1.30498
1.2889
1.28132
1.28141
1.28219
1.2842
1.28814
1.28927
1.28897
1.2879
1.28536
1.28016
1.27277
1.26488
1.2571
1.24975
1.24283
1.23623
1.22973
1.22316
1.21643
1.20948
1.20248
1.19564
1.1892
1.18658
1.18781
1.19262
1.20665
1.24108
1.3175
1.47566
1.76576
2.20937
2.43256
2.51948
2.54129
2.53226
2.50646
2.46045
2.41222
2.36306
2.31429
2.26648
2.22045
2.17611
2.13368
2.09284
2.05362
2.01605
1.98019
1.94651
1.91491
1.88722
1.86258
1.84329
1.82785
1.81792
1.81986
1.82727
1.84481
1.88013
1.93935
2.02128
2.13223
2.28735
2.48448
2.72556
2.96335
3.14697
3.16315
3.13731
3.07504
2.99553
2.89627
2.79144
2.69186
2.61147
2.54648
2.49509
2.45044
2.41528
2.38722
5.80996
5.258
4.71807
4.21255
3.75535
3.35126
3.00019
2.69821
2.44058
2.2214
2.03574
1.87857
1.74622
1.63493
1.54253
1.46648
1.40547
1.35758
1.32169
1.29729
1.28321
1.2759
1.27477
1.27518
1.2763
1.27867
1.28004
1.27976
1.27858
1.27577
1.27001
1.26245
1.25441
1.24643
1.23876
1.23143
1.22439
1.21753
1.21077
1.20459
1.19889
1.19825
1.1999
1.206
1.22373
1.2661
1.35899
1.54833
1.90117
2.33398
2.51785
2.57979
2.5896
2.57687
2.5454
2.49944
2.44774
2.39625
2.34581
2.29717
2.25026
2.20529
2.162
2.12038
2.08007
2.04105
2.00318
1.96645
1.93099
1.89679
1.86417
1.83318
1.80426
1.77805
1.75523
1.7366
1.72235
1.71167
1.71224
1.71743
1.7314
1.76042
1.81246
1.8821
1.98293
2.11389
2.2976
2.51291
2.75129
2.93312
3.00111
2.97945
2.92109
2.86094
2.78026
2.68631
2.59513
2.5102
2.45166
2.39683
5.85063
5.34849
4.85199
4.38038
3.94558
3.55354
3.20597
2.90117
2.63619
2.40676
2.20898
2.03864
1.89244
1.76698
1.65999
1.56894
1.49241
1.42876
1.37727
1.33662
1.30631
1.28563
1.27321
1.26674
1.26422
1.2643
1.2646
1.26525
1.26516
1.26462
1.26305
1.25964
1.25344
1.24609
1.23825
1.23039
1.22283
1.21559
1.20926
1.20387
1.20434
1.20706
1.21474
1.23635
1.28681
1.39591
1.61715
2.04079
2.42441
2.59147
2.63927
2.63713
2.61926
2.58239
2.53348
2.48016
2.42696
2.37548
2.32602
2.27863
2.23306
2.18923
2.14692
2.10597
2.06618
2.02747
1.98975
1.953
1.91726
1.88242
1.84873
1.81595
1.78456
1.75431
1.72578
1.69885
1.67415
1.65244
1.63445
1.62061
1.61023
1.60771
1.61157
1.62218
1.64554
1.68689
1.7487
1.83096
1.94851
2.0995
2.30117
2.51951
2.71033
2.8308
2.81551
2.77951
2.72906
2.66221
2.60165
2.50093
5.88466
5.42064
4.96425
4.5248
4.11269
3.73463
3.39361
3.08952
2.8208
2.58456
2.3778
2.19718
2.0398
1.90275
1.78378
1.68063
1.59176
1.51557
1.45115
1.3973
1.3536
1.3191
1.29304
1.27499
1.26354
1.25753
1.2544
1.2541
1.2542
1.25433
1.25411
1.25327
1.2512
1.2469
1.24048
1.23323
1.22578
1.21898
1.21348
1.21414
1.21753
1.22757
1.25328
1.31348
1.43971
1.69549
2.18173
2.51181
2.65365
2.69313
2.6878
2.66483
2.61872
2.56612
2.51087
2.4565
2.40397
2.3538
2.30577
2.25968
2.21526
2.17233
2.13073
2.09028
2.05088
2.01242
1.97492
1.9383
1.90263
1.8678
1.83396
1.80089
1.76891
1.73767
1.70767
1.67851
1.65081
1.62417
1.59937
1.57604
1.55549
1.53764
1.52417
1.51409
1.50848
1.51093
1.51875
1.53569
1.56683
1.61737
1.68805
1.7815
1.91614
2.07845
2.29014
2.47868
2.6334
2.67009
2.65536
2.62418
5.92327
5.49033
5.06498
4.65214
4.26108
3.89752
3.56479
3.2638
2.99399
2.75361
2.54047
2.35199
2.18574
2.03923
1.91038
1.79715
1.69794
1.61124
1.53595
1.47099
1.41568
1.3693
1.33139
1.30145
1.27875
1.26264
1.2523
1.24642
1.24338
1.24207
1.24195
1.24169
1.24108
1.23966
1.23674
1.23173
1.22689
1.22171
1.22238
1.22624
1.23776
1.26742
1.33692
1.48067
1.77061
2.30601
2.60089
2.71426
2.74446
2.73549
2.70805
2.65689
2.59937
2.5414
2.48526
2.43177
2.38074
2.33207
2.28533
2.24028
2.19669
2.15438
2.11327
2.07316
2.03406
1.99582
1.95855
1.92211
1.88664
1.85196
1.81826
1.78529
1.75334
1.72203
1.6918
1.66217
1.63371
1.60587
1.5793
1.55348
1.52912
1.5058
1.48431
1.46429
1.44711
1.43334
1.42315
1.41564
1.41631
1.42062
1.43138
1.45411
1.49393
1.54934
1.62607
1.73721
1.86524
2.0714
2.22835
2.49683
5.9666
5.55558
5.15433
4.76566
4.39416
4.04479
3.72104
3.42455
3.1555
2.91301
2.69558
2.50127
2.3281
2.17397
2.03702
1.91541
1.8076
1.71214
1.62788
1.55377
1.48901
1.43291
1.38492
1.3446
1.31146
1.28539
1.26532
1.25096
1.24137
1.23561
1.23247
1.23124
1.23065
1.23034
1.22971
1.22838
1.22869
1.23026
1.23543
1.24972
1.28501
1.36409
1.52923
1.85955
2.43048
2.68991
2.77836
2.79598
2.7835
2.75027
2.69512
2.6343
2.57345
2.51514
2.46005
2.40801
2.35844
2.31092
2.26507
2.22063
2.17752
2.13554
2.09472
2.05481
2.01594
1.97788
1.94082
1.90457
1.86933
1.83486
1.80139
1.76862
1.73685
1.70571
1.6756
1.64604
1.61755
1.58955
1.56267
1.53626
1.51101
1.48627
1.46279
1.43996
1.41859
1.39814
1.37954
1.36243
1.34845
1.33744
1.3299
1.32627
1.32879
1.33567
1.35053
1.37789
1.42147
1.48672
1.57317
1.74872
6.02348
5.6214
5.23955
4.86989
4.51463
4.17838
3.86373
3.57263
3.30578
3.06286
2.84293
2.64457
2.46618
2.30604
2.16248
2.03389
1.91883
1.81594
1.72409
1.64224
1.56954
1.50527
1.44883
1.39976
1.35762
1.32215
1.29286
1.26951
1.25161
1.23877
1.22969
1.22445
1.22088
1.22102
1.22177
1.22354
1.22747
1.23636
1.25585
1.29936
1.39275
1.58377
1.95828
2.53853
2.77706
2.8451
2.84806
2.83193
2.79349
2.73402
2.66999
2.60656
2.54605
2.48922
2.43587
2.38533
2.33694
2.29019
2.24484
2.20069
2.15779
2.11594
2.07525
2.03546
1.99674
1.95883
1.92198
1.88592
1.8509
1.81664
1.7834
1.75086
1.71932
1.68841
1.65852
1.62917
1.60086
1.57301
1.54622
1.51984
1.49452
1.46957
1.44569
1.42217
1.39976
1.37777
1.35698
1.33677
1.318
1.30006
1.28398
1.26935
1.2581
1.24946
1.24362
1.24421
1.24801
1.25793
1.27998
1.32843
6.11011
5.69375
5.31925
4.96453
4.62486
4.3
3.99414
3.70897
3.44533
3.20326
2.98224
2.78129
2.59913
2.43437
2.28552
2.15124
2.0301
1.92096
1.82263
1.7342
1.65475
1.58358
1.52004
1.46363
1.41389
1.37052
1.3332
1.30171
1.27553
1.2548
1.23835
1.22749
1.21846
1.21817
1.21945
1.22346
1.23372
1.25745
1.30814
1.41615
1.63458
2.04816
2.614
2.84885
2.90772
2.90326
2.88024
2.83528
2.77233
2.70465
2.63887
2.57665
2.51851
2.46406
2.41266
2.36347
2.31593
2.26962
2.22449
2.18042
2.13757
2.09574
2.05511
2.01538
1.97678
1.93899
1.90231
1.86642
1.8316
1.79754
1.76452
1.73218
1.70088
1.67018
1.64052
1.6114
1.58332
1.5557
1.52913
1.50294
1.47779
1.45296
1.42916
1.40563
1.38311
1.36084
1.3396
1.31862
1.29873
1.27915
1.2608
1.2429
1.22646
1.21075
1.19691
1.18451
1.17568
1.16858
1.16887
1.17333
6.20827
5.77547
5.39823
5.05296
4.72439
4.41068
4.11401
3.8354
3.5757
3.33538
3.11433
2.91191
2.7271
2.55881
2.40575
2.26672
2.1405
2.02598
1.92211
1.82798
1.74271
1.66561
1.59601
1.5334
1.47724
1.42727
1.38303
1.34438
1.31097
1.28294
1.25898
1.2417
1.22614
1.22641
1.22965
1.2378
1.26239
1.31663
1.43191
1.67054
2.11229
2.66455
2.89831
2.95603
2.95006
2.92634
2.87493
2.80498
2.73358
2.66626
2.60379
2.54554
2.49092
2.43912
2.38949
2.34135
2.29439
2.24836
2.2034
2.15942
2.11665
2.0749
2.03435
1.99471
1.95622
1.91855
1.88202
1.84628
1.81164
1.77775
1.74492
1.71277
1.68167
1.6512
1.62176
1.59286
1.56501
1.53763
1.51129
1.48533
1.46041
1.4358
1.41219
1.38884
1.36647
1.34429
1.3231
1.30206
1.28203
1.26213
1.2433
1.22458
1.20705
1.18962
1.17357
1.15774
1.14342
1.13006
1.11832
1.1118
6.31669
5.87735
5.48653
5.14097
4.82016
4.51627
4.22743
3.95405
3.69817
3.46017
3.23986
3.03684
2.85031
2.67936
2.52299
2.38005
2.24954
2.13044
2.02174
1.92266
1.83231
1.75003
1.67514
1.60718
1.54553
1.48987
1.43991
1.39512
1.35563
1.32099
1.29133
1.26677
1.25077
1.25221
1.25966
1.28211
1.33624
1.4551
1.69904
2.1748
2.71175
2.93631
2.99542
2.98748
2.96099
2.90482
2.82757
2.75324
2.68594
2.62465
2.56775
2.51397
2.4626
2.41297
2.36472
2.31744
2.27107
2.22547
2.18088
2.13722
2.09474
2.05321
2.01288
1.97342
1.93511
1.89761
1.86124
1.82565
1.79118
1.75746
1.72481
1.69285
1.66194
1.63166
1.60242
1.57374
1.5461
1.51894
1.49281
1.46709
1.44239
1.41801
1.39463
1.37149
1.34934
1.32736
1.30635
1.28546
1.26556
1.24572
1.22693
1.2081
1.19046
1.17262
1.15624
1.13933
1.12442
1.10852
1.09577
1.083
6.31669
6.01233
5.59612
5.23502
4.91346
4.61446
4.33191
4.06473
3.81342
3.57826
3.35937
3.15641
2.96891
2.79603
2.63702
2.49091
2.35677
2.23374
2.12089
2.01744
1.92265
1.83581
1.75631
1.68361
1.61725
1.55665
1.50173
1.45184
1.40711
1.36704
1.33332
1.3033
1.29817
1.30361
1.32269
1.37708
1.49781
1.74792
2.24672
2.77887
2.98712
3.04074
3.02872
2.99384
2.9232
2.84115
2.76551
2.69867
2.63894
2.5835
2.53093
2.4803
2.43123
2.3833
2.33638
2.29017
2.24474
2.19998
2.15616
2.11316
2.07128
2.03024
1.99034
1.95122
1.91323
1.876
1.83989
1.80453
1.77029
1.73675
1.70431
1.67253
1.64182
1.61172
1.58268
1.55419
1.52675
1.49978
1.47387
1.44835
1.42386
1.39969
1.37654
1.35362
1.33169
1.30992
1.28913
1.26844
1.24874
1.22907
1.21045
1.19174
1.17423
1.15642
1.14011
1.12305
1.10815
1.09166
1.07897
1.06454
6.27848
6.09436
5.71705
5.33833
5.00879
4.7113
4.43307
4.17106
3.92347
3.69092
3.47376
3.27138
3.08336
2.90911
2.748
2.59927
2.46206
2.33564
2.21917
2.11192
2.01322
1.92234
1.83876
1.7619
1.69125
1.62649
1.56705
1.51304
1.46354
1.42064
1.38217
1.36451
1.36891
1.38796
1.44256
1.56862
1.83015
2.35038
2.87116
3.0668
3.10483
3.08648
3.03704
2.94315
2.85527
2.7782
2.71061
2.65017
2.59495
2.54214
2.4918
2.44303
2.39563
2.3492
2.3037
2.25882
2.21469
2.17113
2.12846
2.08647
2.04552
2.00525
1.96607
1.92754
1.89011
1.85333
1.81766
1.78266
1.74875
1.7155
1.68334
1.6518
1.62133
1.59144
1.56261
1.53431
1.50707
1.48029
1.45457
1.42924
1.40496
1.38098
1.35804
1.33532
1.3136
1.29204
1.27146
1.25098
1.23149
1.21201
1.1936
1.17507
1.15775
1.14009
1.12396
1.10699
1.09226
1.07575
1.06322
1.04846
6.17276
6.08174
5.84965
5.45901
5.11189
4.80837
4.53156
4.27301
4.0297
3.80045
3.58502
3.38296
3.1945
3.01923
2.85643
2.70549
2.56567
2.43628
2.31661
2.20601
2.10372
2.00929
1.92197
1.84134
1.76699
1.69827
1.63524
1.57725
1.5255
1.47974
1.45148
1.45484
1.47339
1.52923
1.66355
1.94556
2.50656
3.003
3.19307
3.19857
3.16974
3.1005
2.99598
2.9038
2.8212
2.74667
2.67875
2.61606
2.55776
2.50359
2.45351
2.40504
2.35826
2.31263
2.26807
2.22423
2.18127
2.1389
2.09747
2.05664
2.01683
1.97759
1.93938
1.90172
1.8651
1.82903
1.79402
1.75959
1.72621
1.69341
1.66166
1.63046
1.60033
1.57071
1.54216
1.51409
1.48708
1.46051
1.435
1.40986
1.38578
1.362
1.33925
1.31672
1.29521
1.27385
1.25348
1.23319
1.21391
1.19463
1.17642
1.15809
1.14098
1.1235
1.10758
1.09077
1.07625
1.05987
1.04754
1.03279
6.03702
6.01584
5.88585
5.59691
5.23071
4.91207
4.63035
4.37284
4.13243
3.90572
3.69199
3.49136
3.30304
3.12693
2.96266
2.80976
2.66763
2.53558
2.41314
2.2994
2.19405
2.09626
2.00559
1.92164
1.84372
1.77181
1.70551
1.64529
1.59301
1.55564
1.55868
1.57828
1.63985
1.78862
2.10152
2.71465
3.18806
3.3596
3.35069
3.29897
3.18898
3.08171
2.9794
2.88888
2.80763
2.73324
2.66444
2.5997
2.5381
2.47982
2.42486
2.37352
2.32514
2.27847
2.23341
2.18948
2.14682
2.10502
2.06437
2.02443
1.98561
1.94736
1.91018
1.87349
1.83785
1.80267
1.76853
1.73486
1.70221
1.67004
1.63889
1.6082
1.57854
1.54934
1.52116
1.49342
1.46672
1.44041
1.41515
1.39025
1.36639
1.34281
1.32027
1.29795
1.27664
1.25547
1.2353
1.21521
1.19613
1.17704
1.15904
1.14089
1.12399
1.10669
1.09098
1.07435
1.06005
1.04382
1.03171
1.01705
5.67857
5.90323
5.84892
5.68458
5.35106
5.02076
4.73342
4.47508
4.23571
4.00994
3.79659
3.59625
3.40831
3.23191
3.06658
2.91214
2.76794
2.6337
2.50855
2.39217
2.28389
2.18306
2.08948
2.00229
1.92154
1.84688
1.77858
1.71971
1.67513
1.67821
1.6999
1.76888
1.93602
2.28497
2.97517
3.42156
3.55573
3.54057
3.46992
3.32463
3.19231
3.07802
2.97635
2.88593
2.80456
2.72977
2.66031
2.59386
2.52983
2.4688
2.41011
2.35412
2.30138
2.25171
2.20439
2.1589
2.11521
2.07283
2.03199
1.99216
1.95369
1.91596
1.87946
1.84353
1.80873
1.7744
1.74115
1.70832
1.67651
1.6451
1.61469
1.58467
1.55564
1.52699
1.49934
1.47205
1.44577
1.41983
1.39492
1.37032
1.34674
1.32343
1.30113
1.27903
1.25794
1.23698
1.21703
1.19713
1.17826
1.15936
1.14156
1.1236
1.10691
1.08979
1.07429
1.05783
1.04375
1.02768
1.0158
1.00123
4.84384
5.67984
5.7436
5.67091
5.48384
5.14842
4.84484
4.57924
4.33797
4.11377
3.90237
3.70218
3.51336
3.33548
3.16899
3.01283
2.86701
2.73061
2.60318
2.48434
2.37322
2.27001
2.17337
2.08367
2.00059
1.9244
1.85888
1.80912
1.81255
1.83726
1.91625
2.10744
2.5056
3.28566
3.69337
3.7807
3.75456
3.66186
3.4933
3.33856
3.20618
3.09172
2.99039
2.89869
2.81447
2.7361
2.66237
2.59292
2.52753
2.46485
2.40356
2.34472
2.28826
2.2343
2.18341
2.13538
2.0895
2.04546
2.00338
1.96266
1.92363
1.88565
1.84914
1.81341
1.779
1.74517
1.71254
1.68037
1.6493
1.61863
1.58898
1.55968
1.53137
1.50339
1.47637
1.44966
1.42393
1.39849
1.37403
1.34984
1.32664
1.30366
1.28169
1.25988
1.23907
1.21835
1.19865
1.17897
1.16033
1.14163
1.12405
1.10627
1.0898
1.07285
1.05757
1.04128
1.02742
1.0115
0.999842
0.985367
3.15532
5.14734
5.61714
5.60714
5.51388
5.29716
4.97886
4.69468
4.44442
4.21668
4.00424
3.80391
3.61492
3.43707
3.26973
3.11238
2.96488
2.82623
2.69708
2.57569
2.46249
2.35642
2.25769
2.16618
2.08213
2.01016
1.95695
1.96103
1.98954
2.08161
2.30235
2.7611
3.62583
3.98936
4.03467
3.99045
3.86901
3.68269
3.50981
3.36245
3.23553
3.12289
3.02049
2.92573
2.83727
2.75414
2.67571
2.60144
2.53111
2.46425
2.4015
2.34099
2.28222
2.22567
2.1715
2.11972
2.07085
2.02458
1.9805
1.93812
1.89775
1.85871
1.82144
1.78518
1.75051
1.71659
1.6841
1.65218
1.62152
1.59132
1.56226
1.53357
1.50592
1.47858
1.45223
1.42615
1.40105
1.37618
1.35229
1.3286
1.3059
1.28335
1.2618
1.24036
1.2199
1.1995
1.18011
1.1607
1.14233
1.12387
1.10653
1.08897
1.07272
1.05596
1.04091
1.02478
1.01115
0.995379
0.983943
0.969554
2.22986
3.9378
5.27645
5.5094
5.47988
5.36551
5.11956
4.81985
4.55472
4.31932
4.10409
3.90304
3.71399
3.53597
3.36786
3.20987
3.06108
2.92156
2.7899
2.66672
2.55136
2.44346
2.34338
2.25176
2.17311
2.11854
2.12389
2.1579
2.26643
2.52474
3.06377
3.97627
4.32656
4.3211
4.24825
4.08835
3.88775
3.70101
3.5403
3.40085
3.27705
3.16399
3.0589
2.96017
2.86709
2.77914
2.69594
2.61708
2.54234
2.47136
2.40415
2.34029
2.28027
2.22213
2.16596
2.11183
2.06006
2.01071
1.9641
1.91964
1.87745
1.83681
1.79818
1.76077
1.72521
1.69061
1.65767
1.62546
1.59474
1.56458
1.53574
1.50733
1.48011
1.45322
1.42742
1.40187
1.37736
1.35305
1.32975
1.3066
1.28444
1.2624
1.24134
1.22035
1.20033
1.18033
1.16131
1.14224
1.12421
1.10603
1.08899
1.07168
1.05569
1.03914
1.02433
1.00839
0.994985
0.979375
0.968165
0.953859
1.64139
2.5337
4.46532
5.28434
5.39913
5.35003
5.21725
4.94708
4.66967
4.42451
4.20451
4.00201
3.81244
3.63335
3.46483
3.30602
3.15613
3.0153
2.88242
2.75772
2.64071
2.53208
2.4331
2.34769
2.29397
2.30151
2.34432
2.4757
2.79064
3.45001
4.36537
4.67318
4.65581
4.54761
4.32644
4.1108
3.914
3.74076
3.58837
3.45176
3.3272
3.21142
3.10264
2.99971
2.90215
2.80965
2.72195
2.63873
2.55984
2.48486
2.4138
2.34622
2.28224
2.22139
2.16416
2.10848
2.05499
2.00338
1.95414
1.90723
1.86299
1.82043
1.7801
1.74117
1.70428
1.66852
1.63465
1.60165
1.57037
1.53978
1.51071
1.48218
1.45501
1.42825
1.40271
1.37748
1.35336
1.32949
1.30666
1.28401
1.26236
1.24084
1.22028
1.19979
1.18025
1.16071
1.14214
1.12348
1.10584
1.08804
1.07135
1.05434
1.03866
1.02238
1.00784
0.992118
0.978971
0.963538
0.95257
0.938364
1.32416
1.77829
2.81205
4.72196
5.24548
5.283
5.21943
5.06638
4.79493
4.53817
4.30998
4.1032
3.91157
3.73219
3.56305
3.40241
3.25123
3.10843
2.97467
2.84887
2.73207
2.62543
2.53455
2.48378
2.49499
2.5506
2.71545
3.10536
3.9213
4.80313
5.05375
5.01389
4.86569
4.59549
4.35473
4.14504
3.96077
3.79582
3.64627
3.50881
3.38132
3.26168
3.14873
3.04155
2.93975
2.84307
2.7513
2.66414
2.58148
2.50287
2.42834
2.35739