/*--------------------------------*- C++ -*----------------------------------*\
  =========                 |
  \\      /  F ield         | OpenFOAM: The Open Source CFD Toolbox
   \\    /   O peration     | Website:  https://openfoam.org
    \\  /    A nd           | Version:  13
     \\/     M anipulation  |
\*---------------------------------------------------------------------------*/
FoamFile
{
    format      ascii;
    class       surfaceScalarField;
    location    "1.5";
    object      phi;
}
// * * * * * * * * * * * * * * * * * * * * * * * * * * * * * * * * * * * * * //

dimensions      [1 0 -1 0 0 0 0];

internalField   nonuniform List<scalar> 
10325
(
0.00840003
-4.16319e-11
0.00840002
5.55107e-10
0.00840005
-2.45661e-10
0.00839997
5.44777e-09
0.00840017
-1.18568e-09
0.00839953
3.4345e-08
0.00840101
-6.51089e-09
0.00839712
2.04289e-07
0.00840511
-2.38128e-08
0.00838799
1.01565e-06
0.0084102
6.73799e-07
0.00837603
4.34312e-06
0.00838479
9.87015e-06
0.0083257
3.51612e-05
0.00813593
0.000155509
0.00743136
0.000642132
0.00666532
0.000743582
0.00602462
0.00065583
0.00536203
0.000674193
0.00460095
0.000750582
0.00376422
0.000814612
0.00288145
0.000876409
0.00195988
0.000922756
0.00100343
0.000955803
0.000981443
0.00840003
1.55979e-10
0.00840004
1.57956e-10
0.0084
2.7213e-09
0.00840009
1.44433e-09
0.00839983
1.94653e-08
0.00840046
1.13692e-08
0.00839873
1.14057e-07
0.00840267
9.40975e-08
0.00839332
6.23222e-07
0.00840943
8.42122e-07
0.00838111
3.09175e-06
0.00840496
7.03465e-06
0.008364
2.15975e-05
0.00833159
7.14496e-05
0.00813375
0.000311129
0.0074129
0.00129932
0.00668926
0.00144278
0.00604064
0.00132227
0.00536123
0.00136486
0.00460008
0.00150232
0.00375542
0.0016377
0.00286838
0.00175727
0.00194099
0.00185126
0.000980278
0.00191574
0.00193952
0.00840003
1.06064e-10
0.00840002
8.23218e-10
0.00840008
2.09707e-09
0.00839992
7.83594e-09
0.00840028
1.59199e-08
0.00839941
4.54207e-08
0.00840135
1.14792e-07
0.00839687
2.46133e-07
0.0084056
7.56055e-07
0.00838809
1.45527e-06
0.00841038
4.54257e-06
0.00837485
1.05589e-05
0.00838458
3.29219e-05
0.00832672
0.0001066
0.00814311
0.000460027
0.00739586
0.00198003
0.00678945
0.00203017
0.00609922
0.00203087
0.00539585
0.00207727
0.00464129
0.00224943
0.00379277
0.00246527
0.00290188
0.00264217
0.00196703
0.0027874
0.000993417
0.00288887
0.00291071
0.00840003
9.90074e-11
0.00840004
1.09842e-09
0.00840001
2.49349e-09
0.00840008
1.08446e-08
0.00839993
1.81497e-08
0.00840009
7.22163e-08
0.00839978
1.08961e-07
0.00839955
4.47477e-07
0.00839938
6.84325e-07
0.00839795
2.57813e-06
0.00839511
4.96334e-06
0.00839148
1.55987e-05
0.00837273
4.21928e-05
0.00832722
0.000141919
0.00816237
0.000588696
0.00745202
0.00261715
0.00680742
0.00267934
0.00616864
0.0026747
0.00546423
0.0027837
0.00471091
0.00299741
0.00387154
0.00328511
0.00298205
0.00352685
0.00203567
0.0037348
0.00103353
0.0038896
0.00392253
0.00840003
1.75266e-10
0.00840004
1.05848e-09
0.0084
3.78186e-09
0.00840009
1.02501e-08
0.00839984
2.82261e-08
0.00840045
6.76054e-08
0.00839876
1.80437e-07
0.0084027
4.17751e-07
0.00839331
1.10775e-06
0.00841016
2.61918e-06
0.00837942
6.88017e-06
0.00840784
1.78994e-05
0.00836202
5.22911e-05
0.0083503
0.000171427
0.00819885
0.00069353
0.00752649
0.00320728
0.00687393
0.00333915
0.00624672
0.00330696
0.00554516
0.0034844
0.00480362
0.00373484
0.00398856
0.00408505
0.00310462
0.0044055
0.00214581
0.00469468
0.00110763
0.00492796
0.00501043
0.00840003
2.61043e-10
0.00840004
1.06494e-09
0.0084
5.09224e-09
0.00840009
1.0293e-08
0.00839984
3.78363e-08
0.00840047
6.92867e-08
0.00839877
2.37514e-07
0.00840271
4.37961e-07
0.00839341
1.42955e-06
0.00841019
2.82759e-06
0.0083792
8.51664e-06
0.00840942
2.03761e-05
0.00836196
6.11398e-05
0.00834896
0.000196705
0.00821875
0.000780527
0.00759852
0.00373883
0.00695156
0.00399741
0.00633593
0.0039301
0.0056721
0.00414819
0.00495555
0.00444867
0.00416111
0.00486116
0.00328793
0.00527422
0.0023154
0.00567272
0.00121554
0.00603324
0.00620866
0.00840003
2.27344e-10
0.00840003
1.4123e-09
0.00840002
5.08295e-09
0.00840005
1.4089e-08
0.00839998
3.71676e-08
0.00839999
9.76523e-08
0.00839999
2.24084e-07
0.00839917
6.24847e-07
0.00840037
1.34057e-06
0.00839612
3.87765e-06
0.00839852
8.69986e-06
0.00838861
2.46773e-05
0.00837836
6.76831e-05
0.00834023
0.000221803
0.00824091
0.000850036
0.00770709
0.00417409
0.00706842
0.00465272
0.0064681
0.00453916
0.00583702
0.00477631
0.00515638
0.00512352
0.00439717
0.00560677
0.0035444
0.00612502
0.00255781
0.00666137
0.00139506
0.00719548
0.00758523
0.00840003
2.47286e-10
0.00840002
1.66945e-09
0.00840006
5.28538e-09
0.00839996
1.62706e-08
0.0084002
3.96647e-08
0.0083996
1.06359e-07
0.00840089
2.61567e-07
0.00839784
6.35929e-07
0.00840361
1.6781e-06
0.00839126
3.84753e-06
0.00840734
1.04978e-05
0.00837822
2.60935e-05
0.00839024
7.55588e-05
0.00834366
0.000238646
0.00827587
0.000898569
0.00790969
0.00442683
0.0072652
0.00531834
0.00666807
0.00514864
0.00607195
0.00537481
0.0054391
0.00575795
0.00471798
0.00631989
0.00389135
0.00695198
0.00291561
0.00764094
0.00167677
0.00843838
0.00924607
0.00840003
2.4703e-10
0.00840004
1.68117e-09
0.00840001
5.59011e-09
0.00840008
1.64308e-08
0.00839992
4.196e-08
0.00840024
1.11115e-07
0.00839952
2.59926e-07
0.00840058
7.16719e-07
0.00839812
1.56622e-06
0.00840102
4.51473e-06
0.00839328
1.01399e-05
0.00839821
2.87401e-05
0.00837917
7.71173e-05
0.00836855
0.000246673
0.00833586
0.000901921
0.00828252
0.00436114
0.00762174
0.00600503
0.00699784
0.00579008
0.0064297
0.00594468
0.00582658
0.00636057
0.00517037
0.00696762
0.00441771
0.00770795
0.0034952
0.00857197
0.00218921
0.0097569
0.0114282
0.00840003
2.62927e-10
0.00840003
1.5524e-09
0.00840005
5.4728e-09
0.00839999
1.51818e-08
0.00840012
4.08958e-08
0.00839984
9.98109e-08
0.00840033
2.69176e-07
0.00839939
6.06301e-07
0.00840046
1.7221e-06
0.00839812
3.78224e-06
0.00840081
1.07831e-05
0.00839364
2.60122e-05
0.00840005
7.51208e-05
0.00839934
0.000228113
0.00845859
0.000823877
0.00894038
0.00375354
0.0082456
0.00671852
0.00750478
0.00654496
0.00694743
0.00650594
0.00638686
0.0069214
0.00580935
0.00753409
0.0051762
0.00833528
0.00432535
0.00942132
0.00304685
0.0110423
0.0144631
0.00840003
2.01863e-10
0.00840004
1.36704e-09
0.00840002
4.54931e-09
0.00840006
1.34099e-08
0.00839997
3.36689e-08
0.00840016
9.11151e-08
0.00839986
2.06114e-07
0.00840019
5.83845e-07
0.00840001
1.23535e-06
0.0084002
3.60388e-06
0.0084015
7.84902e-06
0.00840559
2.20295e-05
0.00841643
5.59625e-05
0.00847158
0.000168585
0.00871231
0.000564493
0.0099402
0.00242887
0.00915467
0.00749772
0.00813102
0.00757208
0.00757089
0.00706505
0.00706248
0.00742909
0.00657423
0.0080201
0.00607535
0.00883466
0.00564871
0.00985391
0.00565366
0.0110531
0.0113571
0.0087649
0.00840003
2.07235e-10
0.00840003
1.13942e-09
0.00840004
4.28735e-09
0.00840001
1.10883e-08
0.00840008
3.19521e-08
0.00839995
7.27808e-08
0.00840012
2.06535e-07
0.00839999
4.3972e-07
0.00839972
1.28238e-06
0.00840062
2.69132e-06
0.00839957
7.73152e-06
0.00840203
1.76494e-05
0.00840732
4.96309e-05
0.00842627
0.000138982
0.00851752
0.000461349
0.00902749
0.00186998
0.00910984
0.00734466
0.00883942
0.00783434
0.00812843
0.00777701
0.0076448
0.00791055
0.00723451
0.00842622
0.00694315
0.00912154
0.00687014
0.00992488
0.00729802
0.010632
0.0104063
0.00826344
0.00840003
1.50266e-10
0.00840003
1.17179e-09
0.00840003
3.4719e-09
0.00840003
1.14634e-08
0.00840003
2.59691e-08
0.0084
7.62993e-08
0.00840012
1.62708e-07
0.00839956
4.75601e-07
0.00840114
9.94797e-07
0.00839694
2.90014e-06
0.00840549
6.27241e-06
0.00839183
1.76076e-05
0.00841029
4.33205e-05
0.00840233
0.000126331
0.00846116
0.000401982
0.00874033
0.00154343
0.0090825
0.00688411
0.00879554
0.00811797
0.00838506
0.00818759
0.00807862
0.00821834
0.00785573
0.00864288
0.0077528
0.00921772
0.00791648
0.00975721
0.00844157
0.0101084
0.00983906
0.00902073
0.00840003
1.80473e-10
0.00840003
9.35656e-10
0.00840003
3.71663e-09
0.00840003
9.1867e-09
0.00840003
2.7552e-08
0.00840004
6.12576e-08
0.00839992
1.76013e-07
0.00840033
3.78066e-07
0.00839886
1.08879e-06
0.00840245
2.34091e-06
0.00839446
6.64924e-06
0.00840781
1.5243e-05
0.0083906
4.21508e-05
0.00841205
0.000114065
0.00842781
0.000362127
0.00862127
0.00132868
0.0093049
0.00608322
0.00907331
0.00835983
0.00876708
0.00850472
0.00850959
0.00847764
0.00839418
0.00875706
0.00841198
0.00919395
0.0086155
0.00954921
0.00907013
0.00965368
0.00933874
0.00957817
0.00840003
1.23436e-10
0.00840003
9.49481e-10
0.00840003
2.84249e-09
0.00840003
9.25353e-09
0.00840003
2.14177e-08
0.00840002
6.14722e-08
0.0084001
1.36595e-07
0.00839975
3.83988e-07
0.00840087
8.51123e-07
0.0083979
2.36226e-06
0.00840473
5.38027e-06
0.00839353
1.4616e-05
0.00841199
3.60736e-05
0.00840378
0.000101348
0.0084619
0.000305455
0.00867539
0.00108569
0.0100011
0.00463469
0.00964812
0.00870982
0.00927318
0.00888176
0.00898326
0.0087765
0.0089006
0.00884482
0.00897575
0.00911904
0.00916585
0.00935905
0.00950496
0.0093147
0.0089367
0.00990925
0.00840003
1.26341e-10
0.00840003
6.65931e-10
0.00840003
2.64872e-09
0.00840004
6.53931e-09
0.00840001
1.95277e-08
0.00840011
4.40581e-08
0.00839988
1.22006e-07
0.00840059
2.75795e-07
0.00839903
7.35596e-07
0.00840358
1.71336e-06
0.00839535
4.42251e-06
0.00841568
1.07274e-05
0.00839529
2.74718e-05
0.00845274
7.21401e-05
0.00851234
0.000208127
0.0089161
0.000684543
0.0107366
0.00274533
0.0103703
0.0090273
0.0100601
0.00918323
0.00960058
0.00923284
0.00940537
0.00903278
0.00944723
0.00907628
0.0096194
0.00918283
0.0098618
0.00907244
0.00865094
0.0101488
0.00840003
8.54203e-11
0.00840003
6.25086e-10
0.00840004
1.91508e-09
0.00840002
6.09157e-09
0.00840007
1.44295e-08
0.00839997
3.97e-08
0.00840024
9.25787e-08
0.00839968
2.40671e-07
0.00840117
5.77238e-07
0.00839833
1.43521e-06
0.00840525
3.57965e-06
0.00839465
8.68709e-06
0.0084174
2.2372e-05
0.0084033
5.70356e-05
0.00846885
0.00016134
0.00860881
0.000510701
0.00935911
0.00195919
0.0104989
0.0077616
0.0103325
0.00933831
0.0100759
0.00948684
0.00985279
0.00926332
0.00983653
0.00909348
0.00997541
0.00904218
0.010154
0.00888855
0.00846562
0.0103375
0.00840003
8.42295e-11
0.00840003
4.59733e-10
0.00840003
1.77052e-09
0.00840004
4.52292e-09
0.00840001
1.30525e-08
0.0084001
3.06018e-08
0.00839992
8.15215e-08
0.0084004
1.9258e-07
0.00839943
4.93821e-07
0.008402
1.19877e-06
0.00839706
2.98814e-06
0.00840806
7.48432e-06
0.00839324
1.86039e-05
0.00842193
4.85835e-05
0.00841797
0.000132501
0.00852686
0.000408492
0.00896282
0.00147759
0.0105884
0.00601775
0.0106296
0.00929822
0.0104541
0.00966122
0.0102229
0.00949437
0.0101777
0.00913441
0.0102725
0.00894787
0.0104129
0.00874431
0.00834656
0.0105323
0.00840003
5.53088e-11
0.00840003
3.95196e-10
0.00840004
1.2324e-09
0.00840003
3.85294e-09
0.00840005
9.25517e-09
0.0084
2.51779e-08
0.00840015
5.94552e-08
0.00839984
1.5313e-07
0.0084008
3.68734e-07
0.00839902
9.20751e-07
0.00840421
2.28194e-06
0.00839575
5.56773e-06
0.00841722
1.42066e-05
0.00839968
3.5358e-05
0.00846271
9.53929e-05
0.00855228
0.000275922
0.00908698
0.000930272
0.0112982
0.00364544
0.0111689
0.00941394
0.0110862
0.00975837
0.0108274
0.00976447
0.0105903
0.00937315
0.0105617
0.00897826
0.0106394
0.0086672
0.00826694
0.0107112
0.00840003
4.52009e-11
0.00840003
2.83367e-10
0.00840003
9.86884e-10
0.00840004
2.78664e-09
0.00840002
7.32086e-09
0.00840007
1.86541e-08
0.00839999
4.57647e-08
0.00840021
1.15309e-07
0.00839989
2.7843e-07
0.00840074
7.01528e-07
0.00840001
1.6841e-06
0.00840265
4.26857e-06
0.00840277
1.03412e-05
0.00841462
2.64062e-05
0.00843047
6.7754e-05
0.00851595
0.000190456
0.008826
0.000599918
0.0101511
0.0022688
0.0114691
0.00801792
0.0114339
0.00979644
0.0112364
0.00996808
0.010982
0.00962964
0.0108709
0.00908989
0.0108654
0.0086731
0.0082446
0.0108877
0.00840003
3.4597e-11
0.00840003
2.18171e-10
0.00840003
7.56455e-10
0.00840004
2.12787e-09
0.00840003
5.64908e-09
0.00840006
1.41081e-08
0.00839999
3.56858e-08
0.00840019
8.77557e-08
0.00839985
2.17407e-07
0.00840089
5.37889e-07
0.00839918
1.32488e-06
0.00840394
3.29851e-06
0.00839792
8.14863e-06
0.00841532
2.05785e-05
0.00840818
5.26025e-05
0.00847097
0.000143465
0.00860504
0.000433791
0.00929625
0.00155541
0.0114318
0.00576108
0.011667
0.00955294
0.0116241
0.0100086
0.0113938
0.00986044
0.0112164
0.00926851
0.0111304
0.00875773
0.00827134
0.0111001
0.00840003
2.51314e-11
0.00840003
1.57157e-10
0.00840003
5.49337e-10
0.00840004
1.54301e-09
0.00840003
4.07449e-09
0.00840005
1.02659e-08
0.00840001
2.55079e-08
0.00840016
6.31435e-08
0.00839992
1.54489e-07
0.00840074
3.83079e-07
0.00839957
9.26737e-07
0.00840379
2.31823e-06
0.00839894
5.59086e-06
0.00841745
1.41162e-05
0.00841262
3.49229e-05
0.00848528
9.20973e-05
0.00862379
0.000259162
0.00932491
0.000841002
0.0119124
0.00306221
0.0122104
0.00921813
0.0121778
0.0100312
0.0119341
0.0100954
0.011567
0.00963464
0.0114086
0.00891214
0.00837473
0.0113023
0.00840003
1.92421e-11
0.00840003
1.10826e-10
0.00840003
4.11845e-10
0.00840003
1.08288e-09
0.00840003
3.04551e-09
0.00840004
7.20851e-09
0.00840002
1.89511e-08
0.00840011
4.46277e-08
0.00839995
1.13628e-07
0.00840056
2.72607e-07
0.00839951
6.76929e-07
0.00840314
1.65954e-06
0.00839769
4.04131e-06
0.00841481
1.01594e-05
0.00839962
2.48406e-05
0.00845615
6.44711e-05
0.0084972
0.00017436
0.00881304
0.000537238
0.0098519
0.00196153
0.0121182
0.00684515
0.012376
0.00976114
0.0123064
0.0101545
0.0119067
0.0100316
0.011731
0.00909143
0.00854398
0.0115656
0.00840003
1.25129e-11
0.00840003
8.27126e-11
0.00840003
2.72393e-10
0.00840003
8.06276e-10
0.00840004
2.02646e-09
0.00840003
5.2623e-09
0.00840006
1.28669e-08
0.00840002
3.1848e-08
0.00840016
7.92009e-08
0.00839999
1.898e-07
0.00840061
4.83246e-07
0.00840022
1.133e-06
0.00840217
2.9457e-06
0.00840321
6.84389e-06
0.00841125
1.79636e-05
0.00842493
4.34764e-05
0.00848081
0.000117761
0.00866178
0.000335947
0.00946114
0.00113442
0.0121119
0.00404142
0.0125876
0.00925263
0.0126907
0.0100569
0.0125865
0.0101391
0.0121052
0.00957511
0.00881146
0.0118381
0.00840003
8.92389e-12
0.00840003
5.47881e-11
0.00840003
1.94716e-10
0.00840003
5.39037e-10
0.00840003
1.43465e-09
0.00840004
3.60218e-09
0.00840003
8.88852e-09
0.00840006
2.22728e-08
0.00840005
5.30776e-08
0.00840014
1.35696e-07
0.00840024
3.15159e-07
0.00840035
8.19912e-07
0.00840184
1.88387e-06
0.00840137
4.93926e-06
0.00841137
1.1472e-05
0.00841542
3.00378e-05
0.00846318
7.44816e-05
0.00857378
0.000207622
0.00906248
0.000637699
0.0107745
0.00227391
0.0127022
0.00722649
0.0128897
0.00986189
0.0129013
0.0101258
0.0124693
0.0100106
0.00910808
0.0121817
0.00840003
6.05128e-12
0.00840003
3.77702e-11
0.00840003
1.30138e-10
0.00840003
3.69823e-10
0.00840003
9.68001e-10
0.00840003
2.41986e-09
0.00840004
6.11394e-09
0.00840003
1.46278e-08
0.00840007
3.73489e-08
0.00840008
8.7095e-08
0.00840015
2.26088e-07
0.00840052
5.19334e-07
0.0084003
1.36147e-06
0.00840367
3.12655e-06
0.00840179
8.19402e-06
0.00841998
1.92744e-05
0.00842727
5.04658e-05
0.00851288
0.000130246
0.00873896
0.0003814
0.00970293
0.00128852
0.0124332
0.00435258
0.0130463
0.00921664
0.0131813
0.0099921
0.0130467
0.0101465
0.00955785
0.0126015
0.00840003
3.80099e-12
0.00840003
2.55403e-11
0.00840003
8.4875e-11
0.00840003
2.49548e-10
0.00840003
6.29706e-10
0.00840003
1.64932e-09
0.00840003
3.91118e-09
0.00840004
1.01347e-08
0.00840005
2.34703e-08
0.00840006
6.09536e-08
0.00840021
1.4034e-07
0.00840003
3.63778e-07
0.00840136
8.4036e-07
0.00839988
2.16633e-06
0.00840822
5.06632e-06
0.00840169
1.29624e-05
0.00843969
3.13667e-05
0.00845559
8.15466e-05
0.00863449
0.000220591
0.00920488
0.000683652
0.0111668
0.00234992
0.0131538
0.00712035
0.0133078
0.00982828
0.0134301
0.01002
0.00995928
0.0130327
0.00840003
2.64028e-12
0.00840003
1.57767e-11
0.00840003
5.71723e-11
0.00840003
1.54855e-10
0.00840003
4.22513e-10
0.00840003
1.02498e-09
0.00840003
2.63651e-09
0.00840004
6.26992e-09
0.00840003
1.58101e-08
0.0084001
3.78504e-08
0.00840001
9.38205e-08
0.00840047
2.27882e-07
0.00839987
5.56812e-07
0.00840262
1.36862e-06
0.00839962
3.3155e-06
0.00841334
8.26164e-06
0.00840536
2.00603e-05
0.00845966
5.11302e-05
0.00850577
0.000132752
0.00882213
0.000383178
0.00984533
0.00127632
0.0126842
0.00414375
0.0134709
0.00900086
0.0136242
0.00986717
0.0101141
0.0134724
0.00840003
1.6764e-12
0.00840003
1.02599e-11
0.00840003
3.61035e-11
0.00840003
1.00363e-10
0.00840003
2.67665e-10
0.00840003
6.58771e-10
0.00840004
1.67802e-09
0.00840003
3.99865e-09
0.00840004
1.0149e-08
0.00840005
2.38282e-08
0.00840007
6.08236e-08
0.00840019
1.41935e-07
0.00840014
3.62078e-07
0.00840127
8.48232e-07
0.0084003
2.15312e-06
0.008408
5.09551e-06
0.0084035
1.28634e-05
0.00844037
3.13393e-05
0.00846165
8.04727e-05
0.00864523
0.000216426
0.00922586
0.000661315
0.0111041
0.00222412
0.0134262
0.00656681
0.0136342
0.00964901
0.00985467
0.0138889
0.00840003
9.89186e-13
0.00840003
6.56636e-12
0.00840003
2.17746e-11
0.00840003
6.42945e-11
0.00840003
1.61463e-10
0.00840003
4.20327e-10
0.00840003
1.0104e-09
0.00840003
2.53761e-09
0.00840004
6.11046e-09
0.00840003
1.50481e-08
0.00840011
3.65665e-08
0.00840003
8.88944e-08
0.00840044
2.18284e-07
0.00840011
5.2536e-07
0.00840218
1.29981e-06
0.0084012
3.11372e-06
0.00841053
7.7742e-06
0.00841304
1.87432e-05
0.00845573
4.75826e-05
0.00852321
0.000121946
0.00884159
0.000345912
0.00989844
0.00111956
0.0127792
0.00353899
0.013857
0.00853826
0.00973709
0.013969
0.00840003
6.04668e-13
0.00840003
4.04414e-12
0.00840003
1.35244e-11
0.00840003
3.9557e-11
0.00840003
1.0008e-10
0.00840003
2.60885e-10
0.00840003
6.17966e-10
0.00840003
1.59236e-09
0.00840004
3.69152e-09
0.00840004
9.50482e-09
0.00840007
2.19802e-08
0.00840004
5.63192e-08
0.00840027
1.3113e-07
0.00840001
3.31989e-07
0.00840158
7.85243e-07
0.00839998
1.95957e-06
0.00840881
4.71884e-06
0.00840241
1.1647e-05
0.00844198
2.88346e-05
0.00845265
7.2508e-05
0.00863547
0.000194058
0.0091239
0.000577626
0.0107215
0.00191996
0.0134931
0.00564537
0.00923106
0.013971
0.00840003
3.9529e-13
0.00840003
2.34437e-12
0.00840003
8.54031e-12
0.00840003
2.29762e-11
0.00840003
6.28759e-11
0.00840003
1.51302e-10
0.00840003
3.8899e-10
0.00840003
9.18346e-10
0.00840003
2.30995e-09
0.00840004
5.49493e-09
0.00840003
1.35665e-08
0.0084001
3.26942e-08
0.00840004
7.95792e-08
0.00840041
1.9404e-07
0.00840016
4.66705e-07
0.00840212
1.14794e-06
0.00840126
2.74675e-06
0.00841071
6.80415e-06
0.00841272
1.63321e-05
0.00845673
4.10816e-05
0.00851936
0.00010344
0.00882346
0.000285443
0.00983003
0.000884472
0.0126921
0.00272902
0.00770113
0.0141463
0.00840003
2.27074e-13
0.00840003
1.45617e-12
0.00840003
4.94207e-12
0.00840003
1.42417e-11
0.00840003
3.66695e-11
0.00840003
9.25688e-11
0.00840003
2.29493e-10
0.00840003
5.54053e-10
0.00840003
1.38298e-09
0.00840004
3.25578e-09
0.00840004
8.25298e-09
0.00840006
1.91009e-08
0.00840005
4.88426e-08
0.00840022
1.12677e-07
0.0084001
2.87033e-07
0.0084013
6.67697e-07
0.00840024
1.68117e-06
0.0084078
3.9718e-06
0.00840245
9.90038e-06
0.00844028
2.39729e-05
0.00844188
6.04012e-05
0.00861114
0.000156812
0.00897765
0.000452843
0.0102331
0.00146928
0.00443265
0.0133432
0.00840003
1.32125e-13
0.00840003
8.51221e-13
0.00840003
2.92935e-12
0.00840003
8.33803e-12
0.00840003
2.16388e-11
0.00840003
5.48423e-11
0.00840003
1.33274e-10
0.00840003
3.33883e-10
0.00840003
7.88062e-10
0.00840003
1.99371e-09
0.00840004
4.63312e-09
0.00840004
1.18133e-08
0.00840008
2.72832e-08
0.00840005
6.95783e-08
0.00840035
1.61368e-07
0.0084001
4.08185e-07
0.00840198
9.56574e-07
0.00840052
2.39634e-06
0.008411
5.69268e-06
0.00840612
1.41568e-05
0.00845406
3.45061e-05
0.00848272
8.75781e-05
0.0087294
0.000233211
0.00945332
0.000700139
0.002211
0.0116366
0.00840003
7.93278e-14
0.00840003
4.86171e-13
0.00840003
1.71249e-12
0.00840003
4.75305e-12
0.00840003
1.26136e-11
0.00840003
3.10145e-11
0.00840003
7.82756e-11
0.00840003
1.86116e-10
0.00840003
4.67688e-10
0.00840003
1.09494e-09
0.00840004
2.7597e-09
0.00840004
6.42448e-09
0.00840004
1.618e-08
0.0084001
3.7763e-08
0.00840007
9.43677e-08
0.00840048
2.22312e-07
0.00840022
5.4856e-07
0.00840279
1.30915e-06
0.00840131
3.19513e-06
0.00841561
7.73127e-06
0.00841233
1.88167e-05
0.00847868
4.66907e-05
0.00854308
0.000118573
0.00893835
0.000327785
0.00102202
0.0100509
0.00840003
4.23277e-14
0.00840003
2.84753e-13
0.00840003
9.41489e-13
0.00840003
2.78774e-12
0.00840003
6.95507e-12
0.00840003
1.81855e-11
0.00840003
4.30178e-11
0.00840003
1.09067e-10
0.00840003
2.56679e-10
0.00840003
6.39604e-10
0.00840004
1.52043e-09
0.00840003
3.72572e-09
0.00840005
8.98674e-09
0.00840004
2.16331e-08
0.00840012
5.30259e-08
0.00840013
1.25591e-07
0.00840046
3.11979e-07
0.00840083
7.30877e-07
0.0084019
1.83014e-06
0.00840576
4.2778e-06
0.00840985
1.07632e-05
0.0084355
2.55516e-05
0.00847241
6.51319e-05
0.00863792
0.000166785
0.000483778
0.00913882
0.00840003
2.47642e-14
0.00840003
1.54176e-13
0.00840003
5.45132e-13
0.00840003
1.5105e-12
0.00840003
4.0111e-12
0.00840003
9.9164e-12
0.00840003
2.46046e-11
0.00840003
6.01505e-11
0.00840003
1.44815e-10
0.00840003
3.57194e-10
0.00840003
8.45151e-10
0.00840004
2.1076e-09
0.00840004
4.93116e-09
0.00840004
1.23632e-08
0.00840008
2.88346e-08
0.00840008
7.22724e-08
0.00840034
1.69085e-07
0.00840023
4.20431e-07
0.00840202
9.94973e-07
0.00840105
2.44631e-06
0.00841182
5.87548e-06
0.00840836
1.43583e-05
0.00846122
3.52888e-05
0.00849436
8.83943e-05
0.000234829
0.00877603
0.00840003
1.38682e-14
0.00840003
8.5057e-14
0.00840003
3.00398e-13
0.00840003
8.3046e-13
0.00840003
2.21744e-12
0.00840003
5.40486e-12
0.00840003
1.372e-11
0.00840003
3.23678e-11
0.00840003
8.13231e-11
0.00840003
1.90598e-10
0.00840003
4.75702e-10
0.00840003
1.11866e-09
0.00840003
2.76429e-09
0.00840005
6.57149e-09
0.00840004
1.59982e-08
0.00840011
3.85272e-08
0.00840009
9.24527e-08
0.00840047
2.25385e-07
0.00840047
5.33986e-07
0.00840221
1.31408e-06
0.00840361
3.08753e-06
0.00841083
7.66605e-06
0.00842505
1.80586e-05
0.00846675
4.53969e-05
0.000112435
0.00857626
0.00840003
7.26012e-15
0.00840003
4.66317e-14
0.00840003
1.59289e-13
0.00840003
4.58205e-13
0.00840003
1.17418e-12
0.00840003
2.9811e-12
0.00840003
7.25693e-12
0.00840003
1.78137e-11
0.00840003
4.30161e-11
0.00840003
1.04214e-10
0.00840003
2.52653e-10
0.00840003
6.0628e-10
0.00840004
1.47638e-09
0.00840004
3.52073e-09
0.00840004
8.62805e-09
0.00840006
2.04237e-08
0.00840008
5.01248e-08
0.00840024
1.18764e-07
0.00840023
2.90407e-07
0.00840143
6.90201e-07
0.00840098
1.67694e-06
0.00840858
4.02279e-06
0.00840626
9.72939e-06
0.00844654
2.36757e-05
5.82583e-05
0.00845933
0.00840003
3.77438e-15
0.00840003
2.55334e-14
0.00840003
8.45191e-14
0.00840003
2.49463e-13
0.00840003
6.22803e-13
0.00840003
1.6197e-12
0.00840003
3.83759e-12
0.00840003
9.63966e-12
0.00840003
2.27669e-11
0.00840003
5.61588e-11
0.00840003
1.3372e-10
0.00840003
3.24808e-10
0.00840003
7.84417e-10
0.00840003
1.8754e-09
0.00840004
4.58581e-09
0.00840004
1.08272e-08
0.00840007
2.67966e-08
0.00840011
6.25894e-08
0.00840021
1.5586e-07
0.00840063
3.62978e-07
0.00840077
9.0528e-07
0.00840397
2.11144e-06
0.00840408
5.25468e-06
0.00842327
1.24126e-05
3.09008e-05
0.0084298
0.00840003
2.08617e-15
0.00840003
1.31513e-14
0.00840003
4.62032e-14
0.00840003
1.27807e-13
0.00840003
3.38597e-13
0.00840003
8.33656e-13
0.00840003
2.06925e-12
0.00840003
5.01072e-12
0.00840003
1.20858e-11
0.00840003
2.95351e-11
0.00840003
6.98951e-11
0.00840003
1.73065e-10
0.00840003
4.03624e-10
0.00840003
1.00835e-09
0.00840004
2.33844e-09
0.00840004
5.85107e-09
0.00840006
1.35825e-08
0.00840006
3.38043e-08
0.0084002
7.91392e-08
0.00840015
1.94941e-07
0.00840102
4.61349e-07
0.00840084
1.12285e-06
0.00840561
2.69833e-06
0.00840559
6.48009e-06
1.58731e-05
0.00842989
0.00840003
1.04937e-15
0.00840003
6.74984e-15
0.00840003
2.3428e-14
0.00840003
6.7046e-14
0.00840003
1.75063e-13
0.00840003
4.34987e-13
0.00840003
1.07906e-12
0.00840003
2.58173e-12
0.00840003
6.39369e-12
0.00840003
1.49721e-11
0.00840003
3.73592e-11
0.00840003
8.6605e-11
0.00840003
2.16789e-10
0.00840003
5.02064e-10
0.00840003
1.25035e-09
0.00840004
2.91879e-09
0.00840004
7.18687e-09
0.00840007
1.69663e-08
0.00840006
4.1208e-08
0.00840024
9.86144e-08
0.00840026
2.35743e-07
0.00840109
5.71645e-07
0.00840174
1.348e-06
0.00840513
3.31169e-06
7.72883e-06
0.008412
0.00840003
4.98137e-16
0.00840003
3.55762e-15
0.00840003
1.21488e-14
0.00840003
3.48068e-14
0.00840003
8.99474e-14
0.00840003
2.25913e-13
0.00840003
5.4701e-13
0.00840003
1.35214e-12
0.00840003
3.18551e-12
0.00840003
7.91423e-12
0.00840003
1.84043e-11
0.00840003
4.58851e-11
0.00840003
1.06364e-10
0.00840003
2.64204e-10
0.00840003
6.15643e-10
0.00840003
1.51533e-09
0.00840004
3.56699e-09
0.00840004
8.66165e-09
0.00840007
2.0649e-08
0.00840009
4.93984e-08
0.00840022
1.1949e-07
0.00840047
2.81494e-07
0.00840089
6.88758e-07
0.00840304
1.60664e-06
3.96802e-06
0.00840412
0.00840003
1.69325e-16
0.00840003
1.92267e-15
0.00840003
6.29382e-15
0.00840003
1.76016e-14
0.00840003
4.59085e-14
0.00840003
1.1331e-13
0.00840003
2.80157e-13
0.00840003
6.717e-13
0.00840003
1.64885e-12
0.00840003
3.88062e-12
0.00840003
9.59409e-12
0.00840003
2.23131e-11
0.00840003
5.53787e-11
0.00840003
1.28451e-10
0.00840003
3.18351e-10
0.00840003
7.40058e-10
0.00840003
1.82118e-09
0.00840004
4.27192e-09
0.00840004
1.03983e-08
0.00840009
2.46497e-08
0.00840009
5.91689e-08
0.00840032
1.42334e-07
0.00840042
3.36588e-07
0.00840143
8.20615e-07
1.91654e-06
0.0084028
0.00840003
2.97099e-16
0.00840003
8.28222e-16
0.00840003
3.06293e-15
0.00840003
8.70899e-15
0.00840003
2.2021e-14
0.00840003
5.7434e-14
0.00840003
1.36308e-13
0.00840003
3.4231e-13
0.00840003
7.99479e-13
0.00840003
1.98698e-12
0.00840003
4.62304e-12
0.00840003
1.14098e-11
0.00840003
2.67003e-11
0.00840003
6.53155e-11
0.00840003
1.53919e-10
0.00840003
3.72793e-10
0.00840003
8.88992e-10
0.00840003
2.12312e-09
0.00840004
5.12215e-09
0.00840005
1.21015e-08
0.00840008
2.95136e-08
0.00840013
6.89525e-08
0.00840028
1.69621e-07
0.00840073
3.94149e-07
9.73016e-07
0.00840115
0.00840003
1.40404e-17
0.00840003
3.8538e-16
0.00840003
1.4058e-15
0.00840003
4.11119e-15
0.00840003
1.10208e-14
0.00840003
2.76614e-14
0.00840003
6.84238e-14
0.00840003
1.64234e-13
0.00840003
4.0051e-13
0.00840003
9.54104e-13
0.00840003
2.3025e-12
0.00840003
5.52011e-12
0.00840003
1.31458e-11
0.00840003
3.17982e-11
0.00840003
7.50503e-11
0.00840003
1.82988e-10
0.00840003
4.27894e-10
0.00840003
1.05096e-09
0.00840004
2.44516e-09
0.00840004
6.01716e-09
0.00840006
1.4001e-08
0.00840007
3.43604e-08
0.00840021
8.04263e-08
0.00840021
1.95646e-07
4.62604e-07
0.0084011
0.00840003
-1.14112e-17
0.00840003
6.96058e-17
0.00840003
5.7788e-16
0.00840003
1.87586e-15
0.00840003
5.18189e-15
0.00840003
1.30248e-14
0.00840003
3.31772e-14
0.00840003
7.8369e-14
0.00840003
1.93622e-13
0.00840003
4.54715e-13
0.00840003
1.11656e-12
0.00840003
2.61314e-12
0.00840003
6.40629e-12
0.00840003
1.49743e-11
0.00840003
3.66383e-11
0.00840003
8.59785e-11
0.00840003
2.08687e-10
0.00840003
4.93575e-10
0.00840003
1.18897e-09
0.00840004
2.83416e-09
0.00840004
6.75924e-09
0.00840007
1.62525e-08
0.00840008
3.84868e-08
0.00840021
9.31251e-08
2.1875e-07
0.00840037
0.00840003
4.55365e-17
0.00840003
1.30402e-16
0.00840003
4.40999e-16
0.00840003
1.08117e-15
0.00840003
2.65066e-15
0.00840003
6.273e-15
0.00840003
1.50061e-14
0.00840003
3.66488e-14
0.00840003
8.76653e-14
0.00840003
2.12151e-13
0.00840003
5.07929e-13
0.00840003
1.21488e-12
0.00840003
2.92458e-12
0.00840003
6.92432e-12
0.00840003
1.67988e-11
0.00840003
3.94269e-11
0.00840003
9.63814e-11
0.00840003
2.24595e-10
0.00840003
5.51148e-10
0.00840004
1.28166e-09
0.00840004
3.14065e-09
0.00840005
7.32803e-09
0.00840005
1.78253e-08
0.00840014
4.19306e-08
1.00892e-07
0.00840015
0.00840003
1.80953e-16
0.00840003
3.52501e-16
0.00840003
4.85967e-16
0.00840003
7.97675e-16
0.00840003
1.42716e-15
0.00840003
2.99543e-15
0.00840003
6.31171e-15
0.00840003
1.50902e-14
0.00840003
3.3976e-14
0.00840003
8.49292e-14
0.00840003
1.92906e-13
0.00840003
4.83131e-13
0.00840003
1.10792e-12
0.00840003
2.75191e-12
0.00840003
6.36552e-12
0.00840003
1.56444e-11
0.00840003
3.65484e-11
0.00840003
8.86459e-11
0.00840003
2.10046e-10
0.00840003
5.0124e-10
0.00840004
1.20517e-09
0.00840004
2.83115e-09
0.00840005
6.89399e-09
0.00840007
1.59845e-08
3.92985e-08
0.00840013
0.00840003
0.00840003
0.00840003
0.00840003
0.00840003
0.00840003
0.00840003
0.00840003
0.00840003
0.00840003
0.00840003
0.00840003
0.00840003
0.00840003
0.00840003
0.00840003
0.00840003
0.00840003
0.00840003
0.00840003
0.00840003
0.00840004
0.00840005
0.00840005
0.00840011
0.00478825
0.00398085
0.00320024
0.00159144
0.00251914
0.000682281
0.00224916
0.000267708
0.00223073
1.53039e-05
0.00241607
-0.000190352
0.00262553
-0.000217427
0.00275011
-0.000132947
0.0027959
-5.43136e-05
0.00279308
-6.22046e-06
0.00276294
2.08996e-05
0.00274136
1.18283e-05
0.00272861
2.00637e-06
0.00272705
-8.9986e-06
0.00273031
-1.39418e-05
0.00273373
-1.38522e-05
0.00273603
-1.21902e-05
0.00273547
-9.29568e-06
0.00273299
-6.62926e-06
0.00273001
-5.78599e-06
0.00272838
-6.781e-06
0.00272898
-8.44607e-06
0.00273169
-9.88196e-06
0.00273584
-1.07979e-05
0.00274086
-1.13181e-05
0.00274644
-1.16472e-05
0.00275247
-1.19243e-05
0.00275903
-1.21883e-05
0.00276617
-1.24286e-05
0.00277382
-1.26255e-05
0.00278176
-1.27688e-05
0.0027897
-1.28592e-05
0.00279735
-1.29039e-05
0.00280444
-1.29095e-05
0.00281077
-1.28813e-05
0.0028162
-1.28233e-05
0.00282069
-1.27392e-05
0.00282428
-1.26335e-05
0.00282695
-1.25124e-05
0.00282866
-1.23905e-05
0.00282961
-1.22497e-05
0.00282996
-1.20883e-05
0.00282943
-1.19666e-05
0.00282795
-1.18755e-05
0.00282595
-1.17374e-05
0.00282374
-1.15945e-05
0.00282151
-1.14735e-05
0.00281937
-1.14219e-05
0.00281743
-1.14801e-05
0.00281578
-1.21403e-05
0.00281596
-1.36844e-05
0.00281466
-1.86067e-05
0.00281892
-2.39302e-05
0.00283019
-3.2974e-05
0.00285229
-5.14935e-05
0.00289818
-9.16534e-05
0.00299667
-0.000179315
0.00321857
-0.000358806
0.0036164
-0.000653481
0.00415371
-0.000979775
0.00472688
-0.00114163
0.00523108
-0.00108467
0.00561277
-0.00081098
0.00589815
-0.000439742
0.00604928
-0.000194572
0.00611139
-4.15057e-05
0.00609884
4.67884e-05