/*--------------------------------*- C++ -*----------------------------------*\
  =========                 |
  \\      /  F ield         | OpenFOAM: The Open Source CFD Toolbox
   \\    /   O peration     | Website:  https://openfoam.org
    \\  /    A nd           | Version:  13
     \\/     M anipulation  |
\*---------------------------------------------------------------------------*/
FoamFile
{
    format      ascii;
    class       volScalarField;
    location    "1.5";
    object      rho;
}
// * * * * * * * * * * * * * * * * * * * * * * * * * * * * * * * * * * * * * //

dimensions      [1 -3 0 0 0 0 0];

internalField   nonuniform List<scalar> 
5250
(
1.40001
1.40002
1.40004
1.4001
1.40022
1.40062
1.40133
1.4037
1.40819
1.42181
1.44962
1.52089
1.66784
1.97439
2.8744
5.85489
5.79694
5.67764
5.68214
5.73883
5.79927
5.8404
5.88857
5.92572
5.82373
1.40001
1.40002
1.40004
1.40009
1.40025
1.40053
1.4015
1.40328
1.4089
1.42014
1.45137
1.51703
1.66786
1.96822
2.85526
5.82353
5.78217
5.67999
5.68241
5.73477
5.7969
5.83843
5.8873
5.92498
5.82286
1.40001
1.40002
1.40004
1.4001
1.40022
1.40057
1.40136
1.40342
1.40832
1.42039
1.44924
1.51605
1.6615
1.95885
2.81502
5.75233
5.75043
5.68143
5.67881
5.72033
5.78361
5.82446
5.87287
5.91027
5.8082
1.40001
1.40002
1.40004
1.40009
1.40021
1.40058
1.40124
1.40351
1.40756
1.42064
1.44625
1.51397
1.65254
1.94438
2.75322
5.63382
5.73304
5.67324
5.66619
5.69718
5.75715
5.79835
5.8464
5.88338
5.78006
1.40001
1.40001
1.40004
1.40008
1.40023
1.40048
1.40134
1.40298
1.40796
1.41826
1.44634
1.50642
1.64468
1.92517
2.68053
5.46357
5.71616
5.65509
5.64268
5.66623
5.7232
5.76195
5.805
5.84015
5.7484
1.40001
1.40001
1.40004
1.40008
1.40021
1.40046
1.40124
1.40285
1.40738
1.41736
1.44337
1.5007
1.63128
1.90159
2.59015
5.23528
5.69861
5.63645
5.60882
5.62885
5.67882
5.71345
5.75411
5.79106
5.69818
1.40001
1.40001
1.40003
1.40008
1.40017
1.40048
1.40102
1.40292
1.4062
1.41728
1.43821
1.49611
1.61342
1.87171
2.48912
4.94367
5.68706
5.62076
5.56542
5.57888
5.61717
5.65061
5.68767
5.71533
5.63826
1.40001
1.40001
1.40003
1.40007
1.40016
1.40041
1.40098
1.40246
1.40607
1.41474
1.43623
1.48575
1.59729
1.83293
2.38215
4.58035
5.68416
5.6064
5.51248
5.52136
5.55613
5.56924
5.58719
5.60783
5.52972
1.40001
1.40001
1.40003
1.40006
1.40014
1.40037
1.40084
1.40229
1.40504
1.41374
1.43089
1.47781
1.57524
1.79078
2.2682
4.13468
5.7
5.61033
5.46609
5.46486
5.47731
5.48204
5.47818
5.4596
5.38663
1.40001
1.40001
1.40002
1.40005
1.40013
1.4003
1.40079
1.40177
1.40483
1.41075
1.42849
1.46475
1.55529
1.74068
2.15486
3.62421
5.71642
5.60983
5.41443
5.39386
5.39117
5.36186
5.32607
5.27372
5.09018
1.40001
1.40001
1.40002
1.40005
1.4001
1.40027
1.4006
1.40167
1.40361
1.41
1.42211
1.45693
1.52853
1.69277
2.03055
3.0459
5.70547
5.60633
5.38304
5.31964
5.28578
5.23459
5.12589
4.90955
4.21433
1.40001
1.40001
1.40002
1.40004
1.4001
1.40021
1.40058
1.40124
1.4035
1.40752
1.42053
1.4459
1.51319
1.65076
1.94112
2.73627
5.447
5.47772
5.36492
5.25173
5.19542
5.10291
4.92631
4.61152
3.86641
1.40001
1.40001
1.40002
1.40004
1.40007
1.4002
1.40042
1.4012
1.40255
1.40716
1.41568
1.44141
1.49311
1.61826
1.87121
2.4916
4.89416
5.34974
5.29202
5.1594
5.0737
4.95657
4.74499
4.40831
3.84321
1.40001
1.40001
1.40002
1.40003
1.40007
1.40014
1.40041
1.40085
1.40244
1.40518
1.41445
1.4319
1.48101
1.58078
1.80315
2.29341
4.24281
5.28103
5.24188
5.10922
4.98006
4.83274
4.59976
4.27199
3.84072
1.40001
1.40001
1.40001
1.40003
1.40005
1.40013
1.40028
1.40079
1.40169
1.40475
1.41033
1.42776
1.46243
1.5508
1.72976
2.12329
3.53373
5.24199
5.20483
5.07242
4.90349
4.74516
4.52532
4.20061
3.83448
1.40001
1.40001
1.40001
1.40002
1.40005
1.40009
1.40025
1.40054
1.40148
1.40328
1.40877
1.41996
1.45044
1.51511
1.66269
1.96144
2.78047
5.12977
5.16464
5.07138
4.856
4.6632
4.46495
4.17477
3.83579
1.40001
1.40001
1.40001
1.40002
1.40003
1.40008
1.40018
1.40045
1.40109
1.40266
1.40666
1.4158
1.43924
1.49141
1.61039
1.85607
2.44483
4.64672
5.06212
4.99793
4.82859
4.60791
4.40608
4.15697
3.84359
1.40001
1.40001
1.40001
1.40001
1.40003
1.40006
1.40015
1.40034
1.40083
1.40207
1.40494
1.41251
1.42951
1.47196
1.56482
1.76523
2.19105
3.86415
4.97204
4.93609
4.81364
4.57631
4.36388
4.14078
3.86597
1.40001
1.40001
1.40001
1.40001
1.40002
1.40005
1.4001
1.40026
1.4006
1.40153
1.40365
1.4091
1.42197
1.45308
1.52401
1.67875
1.99939
2.96646
4.84058
4.8858
4.80351
4.59183
4.34304
4.12253
3.87923
1.40001
1.40001
1.40001
1.40001
1.40002
1.40004
1.40008
1.40019
1.40044
1.40115
1.40255
1.40691
1.41533
1.4399
1.48993
1.61043
1.84699
2.41998
4.43169
4.83131
4.77318
4.61333
4.3506
4.11916
3.88874
1.40001
1.40001
1.40001
1.40001
1.40001
1.40003
1.40006
1.40013
1.40032
1.4008
1.40188
1.40487
1.41121
1.42868
1.46599
1.55598
1.74085
2.13158
3.61426
4.73638
4.71091
4.61266
4.38499
4.1406
3.91442
1.40001
1.40001
1.40001
1.40001
1.40001
1.40002
1.40004
1.40009
1.40023
1.40055
1.40131
1.40334
1.40772
1.41973
1.44548
1.5091
1.64268
1.90427
2.60982
4.54495
4.69191
4.61737
4.42161
4.17082
3.93539
1.40001
1.40001
1.40001
1.40001
1.40001
1.40002
1.40003
1.40006
1.40017
1.40037
1.40095
1.40222
1.40556
1.41336
1.4325
1.47671
1.57676
1.78244
2.22799
3.92628
4.62476
4.58831
4.46458
4.2161
3.98083
1.40001
1.40001
1.40001
1.40001
1.40001
1.40001
1.40002
1.40005
1.40011
1.40025
1.40065
1.40145
1.40394
1.40862
1.423
1.45142
1.52503
1.67383
1.97746
2.95848
4.43558
4.53427
4.47261
4.29058
4.02621
1.40001
1.40001
1.40001
1.40001
1.40001
1.40001
1.40002
1.40003
1.40007
1.40018
1.40039
1.40108
1.4023
1.40638
1.41383
1.43649
1.48113
1.59122
1.79771
2.28519
3.96163
4.48732
4.45388
4.3434
4.0982
1.40001
1.40001
1.40001
1.40001
1.40001
1.40001
1.40001
1.40002
1.40005
1.40011
1.40029
1.40062
1.40173
1.40366
1.41011
1.42206
1.45672
1.52624
1.68521
1.98859
3.02822
4.31761
4.40586
4.35223
4.19901
1.40001
1.40001
1.40001
1.40001
1.40001
1.40001
1.40001
1.40002
1.40003
1.40008
1.40016
1.40046
1.40095
1.40266
1.40571
1.41542
1.43412
1.48483
1.58754
1.79076
2.27564
3.87982
4.36369
4.33785
4.24738
1.40001
1.40001
1.40001
1.40001
1.40001
1.40001
1.40001
1.40001
1.40002
1.40005
1.40012
1.40026
1.40067
1.40154
1.40386
1.40922
1.4224
1.45329
1.52376
1.6725
1.96072
2.92613
4.17583
4.30051
4.25563
1.40001
1.40001
1.40001
1.40001
1.40001
1.40001
1.40001
1.40001
1.40002
1.40003
1.40008
1.40016
1.40043
1.4009
1.40251
1.40534
1.41449
1.43185
1.47957
1.57549
1.76642
2.20754
3.69384
4.24868
4.23168
1.40001
1.40001
1.40001
1.40001
1.40001
1.40001
1.40001
1.40001
1.40001
1.40002
1.40004
1.40011
1.40024
1.40058
1.40145
1.40334
1.40859
1.41945
1.4488
1.50961
1.64631
1.89711
2.67353
4.01495
4.21079
1.40001
1.40001
1.40001
1.40001
1.40001
1.40001
1.40001
1.40001
1.40001
1.40002
1.40003
1.40007
1.40014
1.40037
1.40082
1.40211
1.4049
1.41217
1.42879
1.46832
1.55611
1.72766
2.10425
3.40915
4.11512
1.40001
1.40001
1.40001
1.40001
1.40001
1.40001
1.40001
1.40001
1.40001
1.40001
1.40002
1.40004
1.40009
1.40021
1.40049
1.40122
1.40282
1.40716
1.4163
1.44066
1.49149
1.60681
1.80444
2.33371
3.81928
1.40001
1.40001
1.40001
1.40001
1.40001
1.40001
1.40001
1.40001
1.40001
1.40001
1.40001
1.40002
1.40006
1.40012
1.40031
1.40067
1.40175
1.40398
1.41005
1.42337
1.45658
1.52835
1.67822
1.97609
3.01379
1.40001
1.40001
1.40001
1.40001
1.40001
1.40001
1.40001
1.40001
1.40001
1.40001
1.40001
1.40002
1.40003
1.40008
1.40016
1.40042
1.40093
1.40239
1.40551
1.41366
1.43196
1.47576
1.56973
1.74192
2.15826
1.40001
1.40001
1.40001
1.40001
1.40001
1.40001
1.40001
1.40001
1.40001
1.40001
1.40001
1.40001
1.40002
1.40004
1.4001
1.40021
1.40056
1.40124
1.4032
1.40732
1.41819
1.44208
1.49899
1.61451
1.82903
1.40001
1.40001
1.40001
1.40001
1.40001
1.40001
1.40001
1.40001
1.40001
1.40001
1.40001
1.40001
1.40001
1.40003
1.40006
1.40012
1.40032
1.40068
1.40184
1.40393
1.41059
1.42293
1.45835
1.52736
1.67617
1.40001
1.40001
1.40001
1.40001
1.40001
1.40001
1.40001
1.40001
1.40001
1.40001
1.40001
1.40001
1.40001
1.40002
1.40003
1.40008
1.40016
1.40042
1.4009
1.40235
1.40529
1.41334
1.43049
1.47324
1.56144
1.40001
1.40001
1.40001
1.40001
1.40001
1.40001
1.40001
1.40001
1.40001
1.40001
1.40001
1.40001
1.40001
1.40001
1.40002
1.40004
1.40009
1.40022
1.40049
1.40125
1.40274
1.40725
1.41562
1.44015
1.48717
1.40001
1.40001
1.40001
1.40001
1.40001
1.40001
1.40001
1.40001
1.40001
1.40001
1.40001
1.40001
1.40001
1.40001
1.40001
1.40002
1.40005
1.40011
1.40029
1.40061
1.4016
1.40356
1.40904
1.42063
1.45017
1.40001
1.40001
1.40001
1.40001
1.40001
1.40001
1.40001
1.40001
1.40001
1.40001
1.40001
1.40001
1.40001
1.40001
1.40001
1.40002
1.40003
1.40006
1.40015
1.40032
1.40086
1.40181
1.40489
1.41051
1.42726
1.40001
1.40001
1.40001
1.40001
1.40001
1.40001
1.40001
1.40001
1.40001
1.40001
1.40001
1.40001
1.40001
1.40001
1.40001
1.40001
1.40002
1.40004
1.40007
1.40018
1.40041
1.40099
1.40237
1.40556
1.41366
1.40001
1.40001
1.40001
1.40001
1.40001
1.40001
1.40001
1.40001
1.40001
1.40001
1.40001
1.40001
1.40001
1.40001
1.40001
1.40001
1.40001
1.40002
1.40004
1.40009
1.40021
1.40051
1.40114
1.40295
1.40635
1.40001
1.40001
1.40001
1.40001
1.40001
1.40001
1.40001
1.40001
1.40001
1.40001
1.40001
1.40001
1.40001
1.40001
1.40001
1.40001
1.40001
1.40001
1.40002
1.40005
1.40011
1.40024
1.40063
1.40132
1.40355
1.40001
1.40001
1.40001
1.40001
1.40001
1.40001
1.40001
1.40001
1.40001
1.40001
1.40001
1.40001
1.40001
1.40001
1.40001
1.40001
1.40001
1.40001
1.40001
1.40003
1.40006
1.40013
1.40029
1.40073
1.40158
1.40001
1.40001
1.40001
1.40001
1.40001
1.40001
1.40001
1.40001
1.40001
1.40001
1.40001
1.40001
1.40001
1.40001
1.40001
1.40001
1.40001
1.40001
1.40001
1.40002
1.40003
1.40006
1.40016
1.40032
1.40086
1.40001
1.40001
1.40001
1.40001
1.40001
1.40001
1.40001
1.40001
1.40001
1.40001
1.40001
1.40001
1.40001
1.40001
1.40001
1.40001
1.40001
1.40001
1.40001
1.40001
1.40002
1.40004
1.40007
1.40017
1.40038
1.40001
1.40001
1.40001
1.40001
1.40001
1.40001
1.40001
1.40001
1.40001
1.40001
1.40001
1.40001
1.40001
1.40001
1.40001
1.40001
1.40001
1.40001
1.40001
1.40001
1.40001
1.40002
1.40004
1.40009
1.40018
1.40001
1.40001
1.40001
1.40001
1.40001
1.40001
1.40001
1.40001
1.40001
1.40001
1.40001
1.40001
1.40001
1.40001
1.40001
1.40001
1.40001
1.40001
1.40001
1.40001
1.40001
1.40001
1.40002
1.40004
1.40009
1.40001
1.40001
1.40001
1.40001
1.40001
1.40001
1.40001
1.40001
1.40001
1.40001
1.40001
1.40001
1.40001
1.40001
1.40001
1.40001
1.40001
1.40001
1.40001
1.40001
1.40001
1.40001
1.40001
1.40002
1.40005
1.40001
1.40001
1.40001
1.40001
1.40001
1.40001
1.40001
1.40001
1.40001
1.40001
1.40001
1.40001
1.40001
1.40001
1.40001
1.40001
1.40001
1.40001
1.40001
1.40001
1.40001
1.40001
1.40001
1.40002
1.40003
1.85182
1.01698
0.708575
0.628558
0.626225
0.656929
0.731865
0.800087
0.818941
0.817657
0.812644
0.803557
0.799523
0.797714
0.796616
0.796225
0.794798
0.792903
0.790637
0.787429
0.783601
0.780228
0.777364
0.774795
0.772298
0.76975
0.767121
0.764445
0.76178
0.759151
0.756532
0.753868
0.751094
0.748152
0.744996
0.741599
0.737954
0.734083
0.730004
0.725721
0.721256
0.716681
0.711994
0.707135
0.70215
0.697157
0.692217
0.68737
0.68264
0.678073
0.673852
0.670628
0.670009
0.670785
0.674212
0.684574
0.706972
0.752862
0.846489
1.02612
1.27698
1.5479
1.7666
1.87232
1.87633
1.86284
1.83624
1.79353
1.76588
1.7602
1.75628
1.74699
1.73569
1.71923
1.69688
1.66724
1.63382
1.60469
1.57538
1.55122
1.52723
1.50839
1.48974
1.47293
1.45541
1.43667
1.41682
1.39586
1.37497
1.35353
1.33424
1.3138
1.29626
1.27699
1.2605
1.24298
1.22751
1.21156
1.19882
1.18474
2.30005
1.50998
1.15521
1.00595
0.938463
0.892001
0.870815
0.873333
0.880228
0.894872
0.916849
0.921955
0.920915
0.917894
0.912746
0.907572
0.903875
0.901517
0.899766
0.89752
0.894796
0.891484
0.887792
0.884069
0.880458
0.876995
0.873624
0.870266
0.866867
0.863399
0.859861
0.856268
0.852637
0.848981
0.845293
0.841586
0.837811
0.834015
0.83008
0.826143
0.82199
0.817891
0.813558
0.809273
0.80482
0.800338
0.795738
0.791155
0.786424
0.782187
0.777859
0.777112
0.777151
0.77917
0.787784
0.807541
0.847357
0.931092
1.07041
1.23517
1.39959
1.54814
1.70713
1.88808
2.05938
2.17902
2.23062
2.22143
2.19462
2.14402
2.0797
2.03016
1.99461
1.97344
1.96074
1.95152
1.94331
1.93021
1.91109
1.8833
1.85046
1.81617
1.78189
1.74942
1.71817
1.69049
1.66477
1.64143
1.61896
1.59681
1.57428
1.55147
1.52849
1.50572
1.48299
1.46051
1.43891
1.41676
1.39883
1.375
2.82702
2.10131
1.63141
1.32922
1.13579
1.01162
0.934613
0.913863
0.916679
0.923819
0.943825
0.963954
0.978195
0.980708
0.979821
0.977402
0.973554
0.968912
0.965549
0.96279
0.959886
0.95684
0.953488
0.949865
0.94615
0.942388
0.938575
0.934699
0.930772
0.926801
0.922797
0.918749
0.914681
0.910566
0.906467
0.902324
0.898232
0.894081
0.889973
0.885791
0.881616
0.877409
0.873162
0.868943
0.864643
0.860367
0.856077
0.851701
0.847804
0.843935
0.843814
0.844311
0.84716
0.857152
0.880069
0.924912
1.02047
1.16644
1.32393
1.423
1.49437
1.56073
1.63299
1.72211
1.83259
1.9819
2.14896
2.29578
2.39139
2.39609
2.38118
2.34923
2.28738
2.21929
2.16086
2.11937
2.0879
2.06542
2.05027
2.03965
2.02585
2.00655
1.98075
1.95213
1.92132
1.89167
1.86198
1.83343
1.80512
1.77789
1.75153
1.72591
1.70074
1.67582
1.651
1.62609
1.60231
1.57743
1.55801
1.53053
3.14851
2.49619
2.00295
1.64922
1.41041
1.24297
1.13807
1.06725
1.02552
1.00429
1.00462
1.00758
1.01395
1.02743
1.03577
1.03781
1.03629
1.03375
1.02951
1.02359
1.01881
1.01445
1.01041
1.0066
1.00266
0.998439
0.994065
0.989661
0.985271
0.980939
0.9767
0.972562
0.968525
0.964586
0.960747
0.957013
0.953377
0.949828
0.946326
0.942847
0.939314
0.935777
0.932018
0.928388
0.924227
0.920487
0.916027
0.912493
0.90889
0.909051
0.910354
0.915543
0.927692
0.955017
1.00893
1.12497
1.29485
1.4406
1.51769
1.55699
1.58273
1.60489
1.62674
1.65508
1.69993
1.75908
1.83693
1.9425
2.0801
2.23515
2.36352
2.44674
2.44498
2.42299
2.3878
2.32174
2.25224
2.1951
2.14704
2.11395
2.09047
2.07598
2.06373
2.0511
2.03522
2.01427
1.98874
1.9608
1.93121
1.90184
1.87229
1.84403
1.81556
1.78984
1.76329
1.73968
1.71576
1.69237
1.67369
1.64729
3.31757
2.77538
2.31081
1.94368
1.67368
1.46907
1.3202
1.20911
1.1309
1.07638
1.0451
1.03584
1.03654
1.03936
1.04592
1.05551
1.06155
1.0636
1.06274
1.0609
1.05803
1.05305
1.04827
1.04375
1.03947
1.03534
1.03124
1.02711
1.02297
1.01882
1.01474
1.0107
1.00678
1.00291
0.99914
0.99542
0.991708
0.988047
0.984318
0.980646
0.97681
0.973107
0.969088
0.965333
0.961268
0.957412
0.953976
0.951913
0.952405
0.954879
0.962012
0.978575
1.01221
1.08197
1.21518
1.41181
1.53579
1.60355
1.6285
1.64119
1.64447
1.64116
1.63491
1.63739
1.64392
1.65483
1.67918
1.71926
1.77372
1.85178
1.95412
2.09328
2.23663
2.365
2.44612
2.44529
2.42209
2.38752
2.32468
2.2595
2.19633
2.14803
2.11065
2.081
2.05855
2.03902
2.02156
2.00439
1.98453
1.96225
1.93739
1.91249
1.88601
1.8611
1.8362
1.81138
1.7892
1.76413
1.74661
1.721
3.42188
2.97387
2.5603
2.2047
1.92004
1.69491
1.5201
1.38362
1.28093
1.20281
1.1477
1.10658
1.08489
1.07447
1.07467
1.07635
1.07982
1.08775
1.09219
1.09369
1.09237
1.09084
1.08772
1.08203
1.07618
1.07077
1.0659
1.06158
1.05744
1.0534
1.0492
1.04492
1.04053
1.03615
1.0318
1.02751
1.02328
1.01911
1.01495
1.01081
1.00666
1.00245
0.998382
0.994074
0.99022
0.986654
0.985892
0.986664
0.990511
0.999835
1.02122
1.06422
1.15395
1.31439
1.52187
1.62214
1.6757
1.69538
1.69863
1.69484
1.68119
1.6672
1.65033
1.63759
1.62589
1.61942
1.61943
1.62316
1.63543
1.66111
1.7016
1.75788
1.83217
1.94063
2.06924
2.21096
2.33774
2.41855
2.41772
2.39295
2.35771
2.29659
2.2289
2.16323
2.11341
2.071
2.03979
2.01263
1.99085
1.97252
1.95475
1.93813
1.92065
1.90091
1.88111
1.85801
1.83879
1.81387
1.79738
1.7726
3.49143
3.10934
2.74628
2.41851
2.13804
1.90371
1.71427
1.55894
1.4359
1.33582
1.25727
1.19694
1.1521
1.11983
1.10299
1.09644
1.09646
1.09757
1.09982
1.10535
1.10803
1.10792
1.10702
1.1055
1.10236
1.09715
1.09145
1.0864
1.08159
1.07739
1.07304
1.06887
1.06455
1.06018
1.05581
1.05138
1.04702
1.04265
1.03833
1.03404
1.02966
1.02549
1.02117
1.01722
1.01375
1.01403
1.01545
1.02024
1.03228
1.05804
1.11058
1.21945
1.41598
1.61291
1.69828
1.73885
1.75069
1.75328
1.7417
1.72696
1.70723
1.68871
1.66773
1.64837
1.6294
1.61345
1.60002
1.59026
1.58472
1.58597
1.59153
1.60498
1.63146
1.6712
1.72479
1.80135
1.89688
2.02729
2.15914
2.28708
2.37155
2.36908
2.34858
2.31225
2.25741
2.1903
2.12949
2.07233
2.03346
1.99752
1.97193
1.94752
1.92913
1.91083
1.89695
1.87953
1.8654
1.84518
1.83038
1.80885
3.55313
3.21882
2.89273
2.58959
2.32207
2.08901
1.89292
1.72738
1.59038
1.4767
1.38409
1.30778
1.24716
1.20054
1.16519
1.13961
1.12595
1.11879
1.11873
1.11954
1.12118
1.12511
1.12759
1.12744
1.1265
1.12508
1.12216
1.11633
1.11007
1.10399
1.09849
1.09354
1.089
1.08472
1.08045
1.07605
1.07146
1.06675
1.06199
1.05711
1.05244
1.04793
1.04376
1.04056
1.04097
1.04323
1.04951
1.06474
1.09736
1.16115
1.29433
1.52439
1.68786
1.76422
1.79271
1.80188
1.79827
1.78369
1.76471
1.74502
1.72232
1.70063
1.67735
1.65564
1.63359
1.61353
1.59459
1.57839
1.56509
1.55387
1.54791
1.54308
1.54752
1.55389
1.56754
1.59276
1.63034
1.68299
1.74751
1.84497
1.95907
2.09161
2.21723
2.30595
2.3095
2.2915
2.2582
2.20889
2.15171
2.08625
2.03709
1.99017
1.96092
1.92995
1.9091
1.88543
1.86996
1.85112
1.83827
1.82525
3.60173
3.3055
3.01067
2.72993
2.47538
2.24819
2.05094
1.88028
1.73541
1.61121
1.50762
1.41928
1.34685
1.28605
1.23737
1.19835
1.16965
1.14925
1.13848
1.13204
1.13183
1.13165
1.13259
1.13426
1.13494
1.13395
1.13299
1.13104
1.12719
1.1219
1.11629
1.11079
1.10554
1.10057
1.0958
1.09114
1.08651
1.08178
1.07693
1.07203
1.06726
1.06264
1.06009
1.0604
1.06329
1.07093
1.08922
1.12828
1.20517
1.36232
1.61463
1.75328
1.81746
1.83832
1.84116
1.83717
1.81858
1.79896
1.77524
1.7529
1.72853
1.70634
1.68315
1.66189
1.64066
1.62076
1.60156
1.5838
1.56725
1.55205
1.53961
1.52713
1.52054
1.51202
1.50997
1.5122
1.51764
1.52867
1.55097
1.58485
1.62903
1.69661
1.77519
1.8917
2.01399
2.14354
2.23734
2.25475
2.24294
2.20953
2.1697
2.11569
2.06319
2.00419
1.96552
1.92427
1.89995
1.87097
1.85406
1.83165
3.64133
3.37736
3.1099
2.85066
2.60947
2.39007
2.19484
2.02238
1.87247
1.74184
1.6295
1.53252
1.44994
1.37922
1.32045
1.27082
1.23107
1.19891
1.17491
1.15751
1.14764
1.14147
1.14021
1.13987
1.14016
1.14098
1.14171
1.14071
1.13968
1.13749
1.13311
1.12747
1.12155
1.11561
1.10979
1.10434
1.09894
1.09378
1.08873
1.08398
1.0794
1.07845
1.07862
1.08187
1.0914
1.1137
1.16074
1.25325
1.44796
1.70043
1.81375
1.86389
1.87867
1.88048
1.8701
1.8527
1.82948
1.80661
1.7824
1.75941
1.73617
1.71438
1.69217
1.67179
1.65107
1.63187
1.61336
1.59492
1.57802
1.56057
1.54458
1.52919
1.51494
1.50125
1.4918
1.48053
1.47648
1.47018
1.47294
1.47679
1.4861
1.50477
1.53531
1.57809
1.6324
1.71551
1.81097
1.93792
2.06081
2.16359
2.20524
2.19448
2.16538
2.13253
2.08985
2.03549
1.98904
1.93316
1.90648
1.86323
3.68241
3.43767
3.1927
2.95287
2.7253
2.51449
2.32321
2.15141
1.99923
1.86453
1.74665
1.64298
1.55309
1.47432
1.40681
1.34796
1.29863
1.25634
1.22235
1.19453
1.17391
1.15907
1.1502
1.14509
1.14267
1.1422
1.14195
1.14159
1.14103
1.13967
1.13828
1.13551
1.13071
1.12499
1.11915
1.1131
1.10727
1.10174
1.0968
1.09183
1.09172
1.09265
1.09629
1.10762
1.13349
1.18743
1.2962
1.53281
1.76333
1.86591
1.90705
1.91748
1.9154
1.90353
1.88274
1.8603
1.83602
1.81261
1.7887
1.76626
1.74397
1.72267
1.70178
1.68159
1.6616
1.64254
1.62302
1.6046
1.5864
1.56824
1.55192
1.53394
1.51869
1.50234
1.48782
1.47351
1.46165
1.44876
1.44196
1.433
1.42999
1.42893
1.43225
1.4396
1.45544
1.48103
1.51793
1.57071
1.63523
1.73282
1.83744
1.96942
2.0691
2.14314
2.13971
2.1195
2.09246
2.0533
2.02334
1.95046
3.71156
3.48793
3.26225
3.03977
2.82608
2.62503
2.43954
2.27011
2.11754
1.98068
1.85887
1.75064
1.65493
1.57019
1.49574
1.43006
1.37296
1.32317
1.28085
1.24476
1.21544
1.19163
1.17361
1.16032
1.15192
1.14674
1.14365
1.14282
1.14207
1.14135
1.14038
1.13919
1.13746
1.13401
1.12915
1.1235
1.11775
1.11247
1.10718
1.10701
1.10858
1.11337
1.12683
1.1574
1.21785
1.34671
1.62188
1.82502
1.91396
1.94919
1.9563
1.95364
1.9361
1.91456
1.88946
1.86547
1.84093
1.81798
1.7954
1.77358
1.75211
1.73112
1.7105
1.6902
1.67035
1.65053
1.63156
1.61252
1.59409
1.57573
1.558
1.54033
1.52424
1.50684
1.49239
1.47576
1.46203
1.44725
1.43468
1.42112
1.41173
1.40001
1.39543
1.38851
1.3875
1.38955
1.39546
1.40679
1.4283
1.46053
1.50314
1.56594
1.64171
1.74572
1.8571
1.97977
2.05461
2.09009
2.08192
2.05812
3.75865
3.54467
3.32986
3.11975
2.9173
2.72498
2.54543
2.37942
2.22768
2.08992
1.9657
1.85386
1.75382
1.66417
1.58432
1.51311
1.44999
1.39406
1.34505
1.30212
1.26532
1.23386
1.20805
1.18711
1.17107
1.15923
1.15137
1.14654
1.14363
1.14212
1.14125
1.1406
1.13936
1.13799
1.13547
1.13126
1.1272
1.12203
1.12168
1.12349
1.12874
1.14402
1.17883
1.24524
1.39458
1.70155
1.88535
1.96167
1.98948
1.99433
1.98915
1.96983
1.94519
1.91953
1.89367
1.86975
1.84605
1.82381
1.80151
1.78011
1.75905
1.73814
1.71779
1.69726
1.67745
1.65752
1.63815
1.61867
1.60018
1.58137
1.56407
1.54586
1.52942
1.512
1.49667
1.47986
1.46595
1.44952
1.43651
1.42128
1.40873
1.39503
1.38405
1.37139
1.36382
1.35415
1.35112
1.346
1.34838
1.35192
1.35988
1.37593
1.40211
1.4402
1.48638
1.56273
1.63282
1.76729
1.83263
2.04363
3.80514
3.59674
3.39377
3.1951
3.00186
2.81734
2.64331
2.48113
2.3311
2.19347
2.06794
1.95384
1.85054
1.75714
1.67295
1.59705
1.52898
1.46782
1.41336
1.36476
1.32196
1.28436
1.25188
1.22427
1.20132
1.18295
1.16868
1.15812
1.15087
1.14628
1.1433
1.14187
1.14078
1.14001
1.13876
1.13697
1.13636
1.13601
1.13837
1.14556
1.16384
1.20361
1.27907
1.45437
1.78537
1.94611
2.01192
2.03206
2.03457
2.02517
2.00314
1.97712
1.94994
1.92338
1.89788
1.87401
1.85097
1.82896
1.80748
1.78609
1.76518
1.74402
1.72368
1.70293
1.68312
1.66276
1.64353
1.62389
1.6053
1.58635
1.56859
1.55048
1.53406
1.51659
1.50134
1.48441
1.46997
1.45359
1.44012
1.42401
1.41154
1.39601
1.3841
1.36982
1.35862
1.34556
1.33624
1.32437
1.31856
1.31042
1.30836
1.30602
1.30914
1.3148
1.32561
1.3459
1.3735
1.42174
1.46886
1.61623
3.86698
3.66076
3.46294
3.2686
3.08282
2.90423
2.73457
2.57527
2.427
2.28974
2.16361
2.04792
1.94244
1.84622
1.75897
1.67961
1.60785
1.54279
1.48404
1.43106
1.38347
1.3409
1.30319
1.26995
1.24121
1.21665
1.19617
1.1796
1.16671
1.15703
1.15019
1.14563
1.14204
1.14157
1.14134
1.14104
1.14311
1.14765
1.1577
1.18065
1.22786
1.31505
1.52018
1.86218
2.00666
2.06057
2.07378
2.07484
2.06281
2.03742
2.00908
1.98017
1.95254
1.92633
1.90168
1.87846
1.8561
1.83434
1.81282
1.79138
1.77048
1.74923
1.72893
1.70792
1.68812
1.6676
1.64834
1.62839
1.60997
1.59085
1.57347
1.55517
1.53865
1.5211
1.50557
1.48862
1.47416
1.45769
1.44395
1.428
1.4149
1.39935
1.38706
1.3719
1.36037
1.34592
1.33501
1.32161
1.31175
1.29934
1.29152
1.2806
1.27619
1.26956
1.26803
1.26885
1.27229
1.2798
1.29426
1.34088
3.94153
3.72172
3.52666
3.34253
3.16136
2.98797
2.82265
2.66609
2.51933
2.38253
2.25578
2.13905
2.03164
1.93337
1.84322
1.76113
1.68585
1.61756
1.55507
1.49842
1.44694
1.4003
1.35831
1.3206
1.28699
1.2575
1.23171
1.20966
1.19136
1.17616
1.16424
1.15615
1.14816
1.14745
1.14726
1.14916
1.15445
1.1671
1.19376
1.24951
1.35022
1.57772
1.91859
2.06009
2.10918
2.116
2.11359
2.09824
2.07194
2.04082
2.01027
1.98085
1.95423
1.92916
1.90588
1.88314
1.86139
1.83952
1.81836
1.79673
1.77589
1.7544
1.73404
1.71285
1.69313
1.67245
1.65335
1.63337
1.61493
1.59572
1.57814
1.55969
1.54323
1.5255
1.51005
1.49289
1.47828
1.46155
1.44776
1.43147
1.41841
1.40265
1.39016
1.37492
1.363
1.34818
1.3369
1.32258
1.31196
1.29837
1.28855
1.27588
1.26731
1.25569
1.24903
1.23931
1.23608
1.23036
1.23274
1.23783
4.03709
3.802
3.59669
3.411
3.23529
3.0664
2.90553
2.75216
2.60741
2.47143
2.34489
2.2273
2.11865
2.01858
1.92628
1.84167
1.76388
1.69243
1.62703
1.56704
1.51207
1.46196
1.41615
1.37461
1.3368
1.30318
1.27282
1.24596
1.22337
1.20267
1.18627
1.17361
1.16059
1.16045
1.16171
1.1653
1.17864
1.20658
1.26572
1.37789
1.62074
1.95662
2.10016
2.14899
2.15589
2.15219
2.13241
2.10085
2.06906
2.038
2.00891
1.98148
1.9566
1.93306
1.91085
1.88891
1.86743
1.84567
1.82438
1.80262
1.78159
1.76005
1.7396
1.71842
1.69853
1.6777
1.6584
1.63815
1.61968
1.60024
1.58264
1.56402
1.54723
1.5293
1.5134
1.49604
1.48112
1.46432
1.45028
1.43399
1.42071
1.40485
1.39226
1.37683
1.36484
1.34987
1.33841
1.3239
1.31298
1.29896
1.28865
1.27518
1.26557
1.25275
1.24405
1.23203
1.22452
1.21393
1.20779
1.20206
4.13156
3.89163
3.6771
3.48875
3.31397
3.14869
2.98848
2.83695
2.69345
2.55846
2.43146
2.31354
2.20356
2.10181
2.00791
1.92071
1.8407
1.76683
1.69844
1.63597
1.57809
1.52488
1.47605
1.43154
1.39011
1.35302
1.3196
1.28787
1.26194
1.23701
1.21566
1.19913
1.1841
1.18449
1.18825
1.2001
1.22755
1.28713
1.40079
1.66478
1.99165
2.13358
2.18545
2.1896
2.18665
2.16429
2.12716
2.09204
2.06155
2.03395
2.00836
1.98373
1.96058
1.93803
1.91634
1.89461
1.87324
1.85137
1.83003
1.80803
1.78704
1.7652
1.74464
1.72304
1.70305
1.682
1.66265
1.64226
1.62353
1.60378
1.58583
1.56681
1.54978
1.53152
1.51544
1.4979
1.48276
1.46577
1.45149
1.43501
1.42154
1.40561
1.39288
1.37743
1.36533
1.35028
1.33872
1.32408
1.31305
1.29886
1.28841
1.27467
1.26484
1.25153
1.24245
1.22947
1.2214
1.20873
1.20213
1.19039
4.16594
4.0037
3.77178
3.56787
3.38802
3.22301
3.06722
2.91806
2.77689
2.64308
2.51736
2.39865
2.28816
2.18473
2.0889
2.00005
1.91748
1.84129
1.77077
1.70536
1.64503
1.58949
1.53759
1.4901
1.44687
1.40532
1.3695
1.33533
1.30369
1.27746
1.25208
1.22964
1.22417
1.22618
1.23505
1.2626
1.3183
1.44064
1.72025
2.04
2.17369
2.22564
2.22973
2.22003
2.19057
2.15175
2.11557
2.08337
2.05586
2.03109
2.00821
1.98563
1.96357
1.94132
1.91971
1.8979
1.87656
1.85472
1.83345
1.81139
1.79027
1.76835
1.74773
1.72622
1.70613
1.68493
1.66535
1.64463
1.62577
1.60577
1.58771
1.56849
1.5513
1.53285
1.51657
1.49877
1.48339
1.4662
1.45176
1.43518
1.42162
1.40558
1.39272
1.37713
1.36489
1.34974
1.33808
1.32336
1.31226
1.29795
1.28738
1.27345
1.26347
1.24986
1.24061
1.2272
1.219
1.20552
1.19899
1.18537
4.17915
4.08719
3.87809
3.6631
3.47517
3.30495
3.1481
2.99975
2.85913
2.7263
2.60094
2.48277
2.37179
2.26748
2.17021
2.07959
1.99502
1.91677
1.84379
1.77581
1.71345
1.65432
1.60079
1.55056
1.50321
1.46172
1.42024
1.38461
1.35098
1.31975
1.29363
1.27669
1.27822
1.28751
1.31475
1.37295
1.49687
1.79258
2.10922
2.23198
2.27434
2.28244
2.26344
2.21633
2.1753
2.13974
2.10802
2.07851
2.05286
2.02861
2.0064
1.98415
1.96258
1.9405
1.91924
1.8975
1.87667
1.85491
1.83411
1.8121
1.79157
1.76962
1.74939
1.72761
1.70772
1.68639
1.66702
1.64623
1.62739
1.60717
1.58907
1.56956
1.55233
1.53357
1.5172
1.49916
1.48372
1.46633
1.45178
1.43496
1.42123
1.40495
1.39198
1.37624
1.36395
1.34867
1.33697
1.32211
1.31094
1.29648
1.28583
1.27176
1.2617
1.24794
1.23864
1.22505
1.21684
1.20307
1.19661
1.18241
4.14822
4.10202
3.98149
3.75972
3.56098
3.38742
3.22985
3.08264
2.94294
2.81078
2.68467
2.56615
2.45416
2.34926
2.25046
2.15816
2.07182
1.99131
1.91594
1.84676
1.78053
1.72098
1.66398
1.61096
1.56377
1.51608
1.476
1.43588
1.40004
1.36926
1.34385
1.34502
1.35378
1.38107
1.44315
1.57024
1.88902
2.20143
2.32546
2.33871
2.34402
2.32092
2.2655
2.21815
2.17969
2.14525
2.11361
2.08272
2.05432
2.02749
2.00436
1.98143
1.96004
1.93814
1.91728
1.89565
1.87503
1.85338
1.833
1.81124
1.79107
1.76922
1.74938
1.72776
1.70828
1.6869
1.66767
1.6467
1.62798
1.60766
1.58963
1.56996
1.5527
1.53369
1.51724
1.49892
1.4833
1.46562
1.45088
1.43383
1.41996
1.40351
1.39042
1.37449
1.36205
1.34658
1.33472
1.3197
1.30841
1.29379
1.28306
1.26884
1.25871
1.24483
1.2355
1.2218
1.21359
1.19968
1.19326
1.17883
4.12768
4.10467
4.03628
3.8744
3.66195
3.47354
3.30927
3.16067
3.02192
2.89066
2.76639
2.64768
2.53555
2.42976
2.32993
2.23599
2.14849
2.06525
1.98946
1.916
1.85001
1.78696
1.72776
1.67508
1.62173
1.57657
1.53102
1.49051
1.45537
1.42335
1.42413
1.43298
1.46303
1.53018
1.67232
2.01281
2.31403
2.4423
2.44661
2.42592
2.38484
2.33591
2.28301
2.2351
2.19488
2.15958
2.12803
2.0971
2.06715
2.03734
2.01007
1.9842
1.96124
1.93815
1.91657
1.89415
1.87304
1.85081
1.83023
1.80818
1.78825
1.7664
1.74693
1.72521
1.70601
1.68464
1.66582
1.64497
1.62653
1.60616
1.58821
1.56844
1.55117
1.53205
1.51556
1.4971
1.4814
1.46359
1.4487
1.4315
1.41742
1.40077
1.38744
1.37131
1.35868
1.34307
1.33107
1.31592
1.30451
1.28979
1.27896
1.26467
1.25449
1.24058
1.23125
1.21753
1.20937
1.19543
1.18909
1.17458
3.94838
4.07495
4.04788
3.96378
3.77249
3.57827
3.40575
3.25024
3.10744
2.9732
2.84739
2.72887
2.61661
2.51038
2.40962
2.31558
2.22478
2.14219
2.06207
1.98905
1.92024
1.85418
1.79604
1.73675
1.68611
1.63534
1.58966
1.55024
1.51293
1.51341
1.52273
1.55556
1.62733
1.79201
2.16993
2.45204
2.56299
2.57685
2.54308
2.47065
2.41318
2.35965
2.30769
2.25917
2.2174
2.18063
2.14827
2.11626
2.0849
2.05344
2.02357
1.99404
1.96746
1.94159
1.91776
1.89352
1.87088
1.84751
1.82598
1.80343
1.78301
1.76099
1.74147
1.7199
1.70106
1.67988
1.66138
1.64059
1.62242
1.60221
1.58455
1.56495
1.54788
1.52884
1.51241
1.49394
1.4782
1.46029
1.4453
1.42797
1.41375
1.39699
1.38353
1.3673
1.35454
1.3388
1.32668
1.31139
1.29987
1.28503
1.27414
1.25976
1.24957
1.23558
1.22627
1.21246
1.20433
1.19029
1.18402
1.16935
3.49068
3.99435
4.0185
3.97991
3.87859
3.68109
3.5013
3.34335
3.19915
3.06461
2.93695
2.81571
2.70078
2.59192
2.49028
2.39321
2.30363
2.21763
2.13687
2.06256
1.98964
1.92567
1.86079
1.80401
1.74828
1.69712
1.65356
1.61191
1.61187
1.6219
1.65837
1.73682
1.93291
2.36156
2.61426
2.69332
2.71546
2.67627
2.58334
2.50669
2.44613
2.39207
2.34144
2.29302
2.24856
2.20818
2.1713
2.13649
2.10393
2.07167
2.04004
2.00859
1.97904
1.9497
1.92276
1.89633
1.87173
1.8468
1.82395
1.80032
1.77907
1.75651
1.73664
1.71482
1.69583
1.67454
1.6562
1.63552
1.61768
1.5976
1.5802
1.56067
1.54381
1.52482
1.50857
1.4901
1.47448
1.45653
1.44159
1.42417
1.40995
1.39306
1.37957
1.36319
1.35039
1.33449
1.32234
1.3069
1.29539
1.28041
1.26956
1.25504
1.24491
1.23079
1.22151
1.20757
1.19948
1.1853
1.1791
1.16426
2.43929
3.6995
3.98511
3.97282
3.92298
3.8004
3.60803
3.43609
3.28514
3.14774
3.02002
2.89912
2.78428
2.67529
2.5715
2.4729
2.38107
2.29284
2.21303
2.13369
2.06276
1.99305
1.92948
1.86952
1.81258
1.76497
1.72031
1.71954
1.73036
1.77224
1.86041
2.09056
2.57207
2.79127
2.8408