/*--------------------------------*- C++ -*----------------------------------*\
  =========                 |
  \\      /  F ield         | OpenFOAM: The Open Source CFD Toolbox
   \\    /   O peration     | Website:  https://openfoam.org
    \\  /    A nd           | Version:  13
     \\/     M anipulation  |
\*---------------------------------------------------------------------------*/
FoamFile
{
    format      ascii;
    class       volVectorField;
    location    "1.5";
    object      U;
}
// * * * * * * * * * * * * * * * * * * * * * * * * * * * * * * * * * * * * * //

dimensions      [0 1 -1 0 0 0 0];

internalField   nonuniform List<vector> 
5250
(
(3 -7.94168e-09 0)
(2.99999 7.91538e-08 0)
(2.99998 -9.01409e-08 0)
(2.99995 7.83788e-07 0)
(2.99986 -5.88487e-07 0)
(2.99967 4.72135e-06 0)
(2.99917 -2.64324e-06 0)
(2.99798 2.66445e-05 0)
(2.99496 -3.50302e-06 0)
(2.98754 0.000129879 0)
(2.96848 9.55585e-05 0)
(2.91798 0.000580982 0)
(2.77507 0.0011876 0)
(2.34978 0.0036214 0)
(1.25915 0.0107623 0)
(0.497222 0.0220817 0)
(0.549085 0.0272701 0)
(0.569186 0.0262814 0)
(0.52828 0.0274829 0)
(0.451367 0.0309197 0)
(0.35887 0.0341981 0)
(0.277607 0.0375015 0)
(0.202395 0.040197 0)
(0.123087 0.0426291 0)
(0.0585181 0.0467152 0)
(3 1.03981e-08 0)
(2.99999 1.0569e-07 0)
(2.99998 2.78484e-07 0)
(2.99995 1.01751e-06 0)
(2.99987 2.13145e-06 0)
(2.99967 6.77081e-06 0)
(2.99919 1.29768e-05 0)
(2.99798 4.31073e-05 0)
(2.99505 7.94092e-05 0)
(2.98762 0.000259238 0)
(2.96887 0.000534668 0)
(2.91886 0.00153516 0)
(2.77767 0.00391216 0)
(2.3575 0.0111462 0)
(1.27341 0.0332071 0)
(0.508016 0.0667325 0)
(0.548871 0.077074 0)
(0.565218 0.0720748 0)
(0.527618 0.0731488 0)
(0.451668 0.0795069 0)
(0.358662 0.0851927 0)
(0.277253 0.0903709 0)
(0.201615 0.0939318 0)
(0.121214 0.096063 0)
(0.0559887 0.0988687 0)
(3 3.7364e-08 0)
(2.99999 1.4097e-07 0)
(2.99998 7.01852e-07 0)
(2.99995 1.33679e-06 0)
(2.99987 5.14525e-06 0)
(2.99968 8.40078e-06 0)
(2.99921 3.29124e-05 0)
(2.99804 5.02983e-05 0)
(2.99514 0.000195329 0)
(2.98792 0.000336318 0)
(2.96954 0.00108677 0)
(2.9208 0.0024083 0)
(2.78303 0.00683837 0)
(2.37427 0.0188513 0)
(1.30519 0.0565481 0)
(0.532338 0.11664 0)
(0.54993 0.125196 0)
(0.561363 0.121933 0)
(0.530138 0.125192 0)
(0.456613 0.135156 0)
(0.36326 0.14587 0)
(0.281511 0.155005 0)
(0.205139 0.161606 0)
(0.123363 0.165751 0)
(0.056249 0.169631 0)
(3 3.05576e-08 0)
(2.99999 2.79957e-07 0)
(2.99998 6.89292e-07 0)
(2.99995 2.73459e-06 0)
(2.99987 5.0859e-06 0)
(2.99969 1.71996e-05 0)
(2.99923 3.33621e-05 0)
(2.99812 0.000100803 0)
(2.99529 0.000214 0)
(2.98837 0.000587391 0)
(2.97059 0.00136662 0)
(2.92365 0.00361941 0)
(2.79137 0.00946322 0)
(2.39905 0.0266498 0)
(1.35605 0.0789085 0)
(0.567156 0.167632 0)
(0.551168 0.170734 0)
(0.562128 0.171494 0)
(0.535387 0.178116 0)
(0.465478 0.191025 0)
(0.372723 0.207013 0)
(0.29027 0.220378 0)
(0.212963 0.230686 0)
(0.128958 0.237798 0)
(0.0584611 0.243711 0)
(3 3.76247e-08 0)
(2.99999 3.23083e-07 0)
(2.99998 9.17651e-07 0)
(2.99995 3.15576e-06 0)
(2.99988 6.84325e-06 0)
(2.9997 2.08901e-05 0)
(2.99927 4.27932e-05 0)
(2.99819 0.000128997 0)
(2.99555 0.000265073 0)
(2.98888 0.000765389 0)
(2.97208 0.0017099 0)
(2.92751 0.004642 0)
(2.80231 0.0119899 0)
(2.43227 0.0339039 0)
(1.42742 0.0991078 0)
(0.614669 0.218648 0)
(0.551999 0.218473 0)
(0.564908 0.21984 0)
(0.54283 0.230817 0)
(0.477372 0.246623 0)
(0.386433 0.267071 0)
(0.303394 0.285219 0)
(0.225154 0.300284 0)
(0.138295 0.311634 0)
(0.0629287 0.320589 0)
(3 6.54806e-08 0)
(2.99999 3.15178e-07 0)
(2.99998 1.32249e-06 0)
(2.99995 3.05355e-06 0)
(2.99989 9.8082e-06 0)
(2.99972 2.03749e-05 0)
(2.99932 6.19997e-05 0)
(2.9983 0.000127131 0)
(2.99582 0.000375199 0)
(2.98957 0.000799896 0)
(2.97383 0.00222394 0)
(2.93221 0.0053059 0)
(2.81575 0.0144783 0)
(2.47215 0.0402086 0)
(1.5168 0.117619 0)
(0.673501 0.271767 0)
(0.550608 0.26728 0)
(0.569225 0.267023 0)
(0.553825 0.282697 0)
(0.492608 0.301934 0)
(0.405039 0.326826 0)
(0.322406 0.35097 0)
(0.243225 0.37256 0)
(0.152404 0.390572 0)
(0.0699295 0.405295 0)
(3 7.08351e-08 0)
(2.99999 3.6824e-07 0)
(2.99998 1.5073e-06 0)
(2.99996 3.62176e-06 0)
(2.9999 1.11567e-05 0)
(2.99975 2.48484e-05 0)
(2.99936 6.86312e-05 0)
(2.99845 0.000157866 0)
(2.99611 0.000410544 0)
(2.99042 0.000985276 0)
(2.97583 0.00249901 0)
(2.93773 0.00627514 0)
(2.83138 0.0166317 0)
(2.51861 0.0464763 0)
(1.62794 0.135315 0)
(0.746281 0.328055 0)
(0.547981 0.31645 0)
(0.576102 0.313531 0)
(0.569668 0.333236 0)
(0.512814 0.356432 0)
(0.429959 0.386608 0)
(0.348987 0.418053 0)
(0.269355 0.448476 0)
(0.174251 0.477002 0)
(0.0818893 0.502973 0)
(3 7.03056e-08 0)
(2.99999 4.5967e-07 0)
(2.99999 1.54694e-06 0)
(2.99996 4.53581e-06 0)
(2.99991 1.14793e-05 0)
(2.99977 3.0473e-05 0)
(2.99943 7.25523e-05 0)
(2.99859 0.000187988 0)
(2.99651 0.000449148 0)
(2.99131 0.00114262 0)
(2.97822 0.00279459 0)
(2.94402 0.00714412 0)
(2.84914 0.018729 0)
(2.57165 0.0522518 0)
(1.76244 0.151748 0)
(0.835874 0.385879 0)
(0.547224 0.365936 0)
(0.588279 0.359412 0)
(0.59265 0.382313 0)
(0.540383 0.409472 0)
(0.463563 0.445856 0)
(0.385736 0.486608 0)
(0.307039 0.529028 0)
(0.20865 0.574292 0)
(0.102424 0.62294 0)
(3 7.3951e-08 0)
(3 5.02532e-07 0)
(2.99999 1.63585e-06 0)
(2.99997 4.91345e-06 0)
(2.99992 1.22759e-05 0)
(2.9998 3.26669e-05 0)
(2.9995 7.83904e-05 0)
(2.99876 0.000202837 0)
(2.9969 0.000485936 0)
(2.99238 0.00124466 0)
(2.98083 0.003029 0)
(2.951 0.00780284 0)
(2.86901 0.0202956 0)
(2.62999 0.0566502 0)
(1.92176 0.164375 0)
(0.945553 0.439406 0)
(0.556005 0.416327 0)
(0.610306 0.406417 0)
(0.626021 0.429872 0)
(0.578605 0.461068 0)
(0.5093 0.503755 0)
(0.436502 0.555203 0)
(0.361904 0.612928 0)
(0.265856 0.685075 0)
(0.140881 0.780351 0)
(3 7.57388e-08 0)
(3 4.85617e-07 0)
(2.99999 1.66306e-06 0)
(2.99997 4.76174e-06 0)
(2.99993 1.24975e-05 0)
(2.99983 3.18395e-05 0)
(2.99957 7.98839e-05 0)
(2.99893 0.000199796 0)
(2.99738 0.000496087 0)
(2.99343 0.00124592 0)
(2.98369 0.00311166 0)
(2.95841 0.00790877 0)
(2.88993 0.0207744 0)
(2.69255 0.0576435 0)
(2.10143 0.168805 0)
(1.08433 0.47773 0)
(0.593367 0.466892 0)
(0.651224 0.459276 0)
(0.675451 0.477018 0)
(0.632351 0.511577 0)
(0.570537 0.559222 0)
(0.505071 0.621007 0)
(0.441905 0.700342 0)
(0.363834 0.81847 0)
(0.214004 1.03852 0)
(3 6.90895e-08 0)
(3 4.34409e-07 0)
(2.99999 1.49272e-06 0)
(2.99998 4.26023e-06 0)
(2.99994 1.11063e-05 0)
(2.99985 2.84596e-05 0)
(2.99964 7.08055e-05 0)
(2.99911 0.000177365 0)
(2.99778 0.000439847 0)
(2.99456 0.00109563 0)
(2.98639 0.00273551 0)
(2.96574 0.00690442 0)
(2.9106 0.0179015 0)
(2.75475 0.0489731 0)
(2.29611 0.14216 0)
(1.26568 0.425023 0)
(0.676346 0.495811 0)
(0.710358 0.516767 0)
(0.734112 0.524 0)
(0.697924 0.559577 0)
(0.644679 0.61071 0)
(0.594466 0.681145 0)
(0.560959 0.779553 0)
(0.563051 0.928323 0)
(0.613933 1.18671 0)
(3 5.9659e-08 0)
(3 3.69894e-07 0)
(2.99999 1.3007e-06 0)
(2.99998 3.60316e-06 0)
(2.99995 9.64938e-06 0)
(2.99987 2.40813e-05 0)
(2.99969 6.05776e-05 0)
(2.99924 0.000150097 0)
(2.99814 0.000368303 0)
(2.99535 0.000917392 0)
(2.98853 0.00225292 0)
(2.97105 0.00562364 0)
(2.92502 0.0143426 0)
(2.79597 0.0380903 0)
(2.41704 0.107361 0)
(1.43616 0.322391 0)
(0.748861 0.537371 0)
(0.742616 0.575071 0)
(0.767818 0.5782 0)
(0.756809 0.608207 0)
(0.721167 0.659416 0)
(0.693005 0.732577 0)
(0.692493 0.835716 0)
(0.752735 0.979731 0)
(0.912781 1.17431 0)
(3 5.2936e-08 0)
(3 3.42031e-07 0)
(2.99999 1.14843e-06 0)
(2.99998 3.33569e-06 0)
(2.99996 8.56722e-06 0)
(2.9999 2.20553e-05 0)
(2.99974 5.45955e-05 0)
(2.99937 0.000135302 0)
(2.99842 0.000336177 0)
(2.99613 0.000823401 0)
(2.99031 0.00204692 0)
(2.97581 0.00507621 0)
(2.93757 0.0128793 0)
(2.83138 0.0339864 0)
(2.52119 0.0947454 0)
(1.6539 0.278366 0)
(0.869728 0.595972 0)
(0.759548 0.622286 0)
(0.787039 0.628992 0)
(0.800551 0.651245 0)
(0.789084 0.700595 0)
(0.785681 0.77093 0)
(0.812804 0.865255 0)
(0.89823 0.983455 0)
(1.07681 1.10369 0)
(3 4.88463e-08 0)
(3 3.13786e-07 0)
(2.99999 1.06913e-06 0)
(2.99999 3.07513e-06 0)
(2.99997 7.97098e-06 0)
(2.99991 2.04884e-05 0)
(2.99979 5.0447e-05 0)
(2.99947 0.000127052 0)
(2.99871 0.000309891 0)
(2.99677 0.000777192 0)
(2.99208 0.00190642 0)
(2.98007 0.00477829 0)
(2.9491 0.0120492 0)
(2.86389 0.0316268 0)
(2.6164 0.0877639 0)
(1.89426 0.2555 0)
(1.02924 0.633815 0)
(0.783497 0.653741 0)
(0.807649 0.66396 0)
(0.837915 0.681162 0)
(0.850151 0.728089 0)
(0.866603 0.793843 0)
(0.91188 0.874031 0)
(1.00531 0.964214 0)
(1.17283 1.03954 0)
(3 4.5544e-08 0)
(3 2.81624e-07 0)
(3 9.82714e-07 0)
(2.99999 2.76275e-06 0)
(2.99997 7.34008e-06 0)
(2.99993 1.8415e-05 0)
(2.99983 4.6885e-05 0)
(2.99958 0.000114449 0)
(2.99896 0.000290905 0)
(2.99746 0.000705351 0)
(2.99364 0.00179504 0)
(2.98426 0.00441158 0)
(2.95993 0.0112643 0)
(2.89442 0.0293138 0)
(2.70656 0.0809559 0)
(2.14663 0.235725 0)
(1.22961 0.646779 0)
(0.840457 0.685784 0)
(0.846824 0.697984 0)
(0.881262 0.707662 0)
(0.909858 0.746064 0)
(0.938153 0.804263 0)
(0.991743 0.870943 0)
(1.08508 0.938977 0)
(1.23487 0.989924 0)
(3 3.70054e-08 0)
(3 2.40491e-07 0)
(3 8.16998e-07 0)
(2.99999 2.34931e-06 0)
(2.99998 6.09862e-06 0)
(2.99995 1.56939e-05 0)
(2.99987 3.85206e-05 0)
(2.99967 9.81061e-05 0)
(2.99921 0.000236244 0)
(2.99803 0.000605255 0)
(2.99517 0.0014519 0)
(2.98796 0.00372119 0)
(2.96987 0.00914246 0)
(2.92204 0.0238585 0)
(2.78891 0.0641772 0)
(2.39923 0.185297 0)
(1.48975 0.548491 0)
(0.953218 0.699383 0)
(0.910291 0.729312 0)
(0.932159 0.741415 0)
(0.969537 0.765109 0)
(1.00462 0.810979 0)
(1.05911 0.864738 0)
(1.14701 0.916161 0)
(1.27865 0.952336 0)
(3 3.13481e-08 0)
(3 1.90946e-07 0)
(3 6.74002e-07 0)
(2.99999 1.86407e-06 0)
(2.99998 5.00522e-06 0)
(2.99996 1.23494e-05 0)
(2.9999 3.15862e-05 0)
(2.99975 7.59933e-05 0)
(2.99938 0.000192763 0)
(2.99847 0.000461272 0)
(2.99624 0.00116772 0)
(2.99067 0.00281118 0)
(2.9767 0.00709649 0)
(2.94024 0.0177201 0)
(2.83972 0.0467572 0)
(2.54882 0.129709 0)
(1.75081 0.389795 0)
(1.07278 0.71948 0)
(0.959967 0.759351 0)
(0.973439 0.77788 0)
(1.0156 0.788445 0)
(1.06063 0.819548 0)
(1.1158 0.860452 0)
(1.19691 0.899004 0)
(1.31196 0.924884 0)
(3 2.52296e-08 0)
(3 1.61295e-07 0)
(3 5.47974e-07 0)
(2.99999 1.57832e-06 0)
(2.99999 4.08697e-06 0)
(2.99997 1.04574e-05 0)
(2.99992 2.58937e-05 0)
(2.99981 6.447e-05 0)
(2.99953 0.000159266 0)
(2.99884 0.000391705 0)
(2.99712 0.000974205 0)
(2.9929 0.00239004 0)
(2.98228 0.00597823 0)
(2.95494 0.0149936 0)
(2.88071 0.0391273 0)
(2.6672 0.107526 0)
(2.04146 0.315484 0)
(1.25194 0.751017 0)
(1.00724 0.795426 0)
(1.00912 0.810928 0)
(1.05114 0.812939 0)
(1.106 0.827445 0)
(1.16332 0.856952 0)
(1.23823 0.886134 0)
(1.33892 0.904887 0)
(3 2.06923e-08 0)
(3 1.27129e-07 0)
(3 4.46365e-07 0)
(3 1.24455e-06 0)
(2.99999 3.31733e-06 0)
(2.99998 8.2893e-06 0)
(2.99994 2.09769e-05 0)
(2.99986 5.13906e-05 0)
(2.99965 0.000128425 0)
(2.99915 0.000315111 0)
(2.9979 0.000783937 0)
(2.99484 0.00193178 0)
(2.9872 0.00482455 0)
(2.96783 0.0120586 0)
(2.91649 0.0312616 0)
(2.77288 0.0846524 0)
(2.34727 0.245757 0)
(1.51779 0.679743 0)
(1.10707 0.80635 0)
(1.06647 0.830966 0)
(1.09097 0.836905 0)
(1.14694 0.83893 0)
(1.20756 0.856773 0)
(1.27631 0.877626 0)
(1.36403 0.890943 0)
(3 1.49236e-08 0)
(3 1.00473e-07 0)
(3 3.27545e-07 0)
(3 9.80351e-07 0)
(2.99999 2.44121e-06 0)
(2.99998 6.46357e-06 0)
(2.99996 1.5474e-05 0)
(2.9999 3.95405e-05 0)
(2.99975 9.50056e-05 0)
(2.99938 0.000238487 0)
(2.99847 0.000580511 0)
(2.99627 0.00143839 0)
(2.99072 0.00355669 0)
(2.97696 0.00881687 0)
(2.94102 0.0224276 0)
(2.8429 0.0591857 0)
(2.55982 0.166668 0)
(1.81449 0.498853 0)
(1.23462 0.803307 0)
(1.12577 0.843439 0)
(1.13306 0.860207 0)
(1.18272 0.858063 0)
(1.24567 0.862502 0)
(1.31061 0.874207 0)
(1.38813 0.882288 0)
(3 1.18488e-08 0)
(3 7.43625e-08 0)
(3 2.58304e-07 0)
(3 7.26745e-07 0)
(3 1.91998e-06 0)
(2.99999 4.84426e-06 0)
(2.99997 1.2057e-05 0)
(2.99993 3.0023e-05 0)
(2.99982 7.34011e-05 0)
(2.99956 0.000183194 0)
(2.9989 0.000445085 0)
(2.99732 0.00111607 0)
(2.99335 0.00271822 0)
(2.98354 0.00682139 0)
(2.95829 0.0170323 0)
(2.89046 0.0444109 0)
(2.69786 0.12126 0)
(2.13384 0.35941 0)
(1.4193 0.810935 0)
(1.18392 0.871133 0)
(1.17381 0.885247 0)
(1.21144 0.881566 0)
(1.27503 0.873907 0)
(1.34035 0.875899 0)
(1.41108 0.878809 0)
(3 8.87774e-09 0)
(3 5.5664e-08 0)
(3 1.93366e-07 0)
(3 5.43088e-07 0)
(3 1.43791e-06 0)
(2.99999 3.60452e-06 0)
(2.99998 9.04496e-06 0)
(2.99995 2.23164e-05 0)
(2.99987 5.49801e-05 0)
(2.99969 0.000136182 0)
(2.99925 0.000332725 0)
(2.99816 0.000829087 0)
(2.99547 0.00202191 0)
(2.98889 0.00506473 0)
(2.97226 0.0125439 0)
(2.92903 0.0322933 0)
(2.81095 0.0864091 0)
(2.46425 0.249937 0)
(1.71209 0.683531 0)
(1.29723 0.864852 0)
(1.23457 0.894921 0)
(1.24956 0.901981 0)
(1.30367 0.890479 0)
(1.36838 0.883631 0)
(1.43431 0.880936 0)
(3 6.58169e-09 0)
(3 3.96481e-08 0)
(3 1.41898e-07 0)
(3 3.86713e-07 0)
(3 1.04907e-06 0)
(2.99999 2.57028e-06 0)
(2.99999 6.54534e-06 0)
(2.99996 1.58327e-05 0)
(2.99991 3.94254e-05 0)
(2.99979 9.61859e-05 0)
(2.99948 0.000235291 0)
(2.99873 0.000581743 0)
(2.99688 0.00140532 0)
(2.9923 0.00351378 0)
(2.98093 0.00852918 0)
(2.95169 0.0216065 0)
(2.87309 0.0556785 0)
(2.64905 0.153435 0)
(2.0313 0.451664 0)
(1.44103 0.844498 0)
(1.29186 0.905424 0)
(1.28784 0.92208 0)
(1.32862 0.912507 0)
(1.39208 0.895778 0)
(1.45555 0.88697 0)
(3 4.70755e-09 0)
(3 2.86163e-08 0)
(3 1.00924e-07 0)
(3 2.78341e-07 0)
(3 7.46695e-07 0)
(3 1.83585e-06 0)
(2.99999 4.68236e-06 0)
(2.99998 1.12548e-05 0)
(2.99994 2.83755e-05 0)
(2.99986 6.8023e-05 0)
(2.99965 0.000170748 0)
(2.99914 0.000410556 0)
(2.99791 0.00102686 0)
(2.99482 0.00248903 0)
(2.9873 0.00621836 0)
(2.96812 0.0153516 0)
(2.9178 0.0395631 0)
(2.77831 0.105954 0)
(2.36658 0.308671 0)
(1.6868 0.76335 0)
(1.38033 0.90505 0)
(1.33724 0.932195 0)
(1.35589 0.933188 0)
(1.41171 0.913406 0)
(1.476 0.897031 0)
(3 3.16327e-09 0)
(3 2.02695e-08 0)
(3 6.85964e-08 0)
(3 1.97409e-07 0)
(3 5.07128e-07 0)
(3 1.29911e-06 0)
(2.99999 3.18481e-06 0)
(2.99998 7.92903e-06 0)
(2.99996 1.93538e-05 0)
(2.99991 4.76762e-05 0)
(2.99977 0.000116752 0)
(2.99944 0.000285925 0)
(2.99861 0.000705344 0)
(2.99663 0.00171953 0)
(2.99164 0.00426538 0)
(2.97942 0.0105198 0)
(2.94781 0.0265791 0)
(2.86303 0.0697416 0)
(2.61999 0.195512 0)
(2.00341 0.560132 0)
(1.5165 0.880358 0)
(1.39759 0.934712 0)
(1.39257 0.948843 0)
(1.43188 0.935632 0)
(1.49301 0.909828 0)
(3 2.20274e-09 0)
(3 1.36206e-08 0)
(3 4.76818e-08 0)
(3 1.33019e-07 0)
(3 3.52072e-07 0)
(3 8.80912e-07 0)
(3 2.19769e-06 0)
(2.99999 5.39704e-06 0)
(2.99997 1.32433e-05 0)
(2.99994 3.2584e-05 0)
(2.99985 7.92338e-05 0)
(2.99963 0.000195798 0)
(2.99911 0.000474466 0)
(2.99779 0.00117646 0)
(2.99463 0.00285882 0)
(2.98668 0.00709915 0)
(2.96683 0.0175903 0)
(2.9145 0.0450989 0)
(2.76958 0.121323 0)
(2.34837 0.354475 0)
(1.73623 0.798793 0)
(1.47692 0.928047 0)
(1.43808 0.954846 0)
(1.45396 0.954704 0)
(1.50573 0.929796 0)
(3 1.45354e-09 0)
(3 9.31654e-09 0)
(3 3.14929e-08 0)
(3 9.07135e-08 0)
(3 2.33384e-07 0)
(3 5.95268e-07 0)
(3 1.46373e-06 0)
(2.99999 3.6212e-06 0)
(2.99998 8.87981e-06 0)
(2.99996 2.16452e-05 0)
(2.9999 5.35153e-05 0)
(2.99977 0.000129069 0)
(2.99943 0.000321502 0)
(2.99862 0.000772348 0)
(2.99658 0.00193067 0)
(2.99168 0.00466495 0)
(2.97935 0.0116803 0)
(2.94801 0.0291916 0)
(2.86416 0.0766962 0)
(2.62335 0.215553 0)
(2.04224 0.594793 0)
(1.60647 0.897625 0)
(1.49795 0.953701 0)
(1.48906 0.966984 0)
(1.52141 0.953656 0)
(3 9.47799e-10 0)
(3 6.07555e-09 0)
(3 2.08102e-08 0)
(3 5.90356e-08 0)
(3 1.53783e-07 0)
(3 3.89904e-07 0)
(3 9.561e-07 0)
(3 2.39171e-06 0)
(2.99999 5.73267e-06 0)
(2.99998 1.44086e-05 0)
(2.99994 3.41497e-05 0)
(2.99985 8.62775e-05 0)
(2.99964 0.000203511 0)
(2.99913 0.000514859 0)
(2.99788 0.00121721 0)
(2.9948 0.0030726 0)
(2.98723 0.00736743 0)
(2.9682 0.0185856 0)
(2.9186 0.0469385 0)
(2.78194 0.12628 0)
(2.38936 0.36464 0)
(1.82353 0.800377 0)
(1.57589 0.939221 0)
(1.53333 0.968224 0)
(1.54322 0.970581 0)
(3 6.38192e-10 0)
(3 3.82355e-09 0)
(3 1.36429e-08 0)
(3 3.72306e-08 0)
(3 1.0057e-07 0)
(3 2.45317e-07 0)
(3 6.28437e-07 0)
(3 1.49532e-06 0)
(2.99999 3.78127e-06 0)
(2.99998 8.97818e-06 0)
(2.99996 2.2528e-05 0)
(2.99991 5.38222e-05 0)
(2.99978 0.000133875 0)
(2.99946 0.000322474 0)
(2.99871 0.000795841 0)
(2.99681 0.0019375 0)
(2.99226 0.00475316 0)
(2.98083 0.0117386 0)
(2.95196 0.02935 0)
(2.87528 0.076477 0)
(2.65629 0.213246 0)
(2.12711 0.58079 0)
(1.70642 0.901201 0)
(1.59236 0.964805 0)
(1.57793 0.979271 0)
(3 3.94079e-10 0)
(3 2.47114e-09 0)
(3 8.4547e-09 0)
(3 2.40111e-08 0)
(3 6.24422e-08 0)
(3 1.57036e-07 0)
(3 3.90762e-07 0)
(3 9.50503e-07 0)
(3 2.36273e-06 0)
(2.99999 5.65091e-06 0)
(2.99998 1.41513e-05 0)
(2.99995 3.35319e-05 0)
(2.99987 8.42972e-05 0)
(2.99968 0.000199365 0)
(2.99922 0.000500927 0)
(2.9981 0.00118834 0)
(2.99539 0.00297698 0)
(2.98866 0.0071618 0)
(2.97202 0.0179216 0)
(2.92894 0.0451369 0)
(2.81183 0.120297 0)
(2.47556 0.344393 0)
(1.93937 0.771135 0)
(1.6759 0.938041 0)
(1.62369 0.973183 0)
(3 2.34555e-10 0)
(3 1.55477e-09 0)
(3 5.13754e-09 0)
(3 1.50844e-08 0)
(3 3.7918e-08 0)
(3 9.87234e-08 0)
(3 2.35751e-07 0)
(3 5.98052e-07 0)
(3 1.4182e-06 0)
(2.99999 3.55374e-06 0)
(2.99999 8.46479e-06 0)
(2.99997 2.10055e-05 0)
(2.99992 5.04853e-05 0)
(2.99981 0.000123926 0)
(2.99953 0.000300929 0)
(2.99887 0.000731986 0)
(2.99723 0.00179686 0)
(2.99326 0.00435124 0)
(2.98345 0.0107963 0)
(2.95869 0.0266682 0)
(2.8937 0.0689943 0)
(2.71056 0.18923 0)
(2.24694 0.519951 0)
(1.81718 0.882507 0)
(1.68178 0.962699 0)
(3 1.46887e-10 0)
(3 9.35133e-10 0)
(3 3.21205e-09 0)
(3 9.07254e-09 0)
(3 2.36383e-08 0)
(3 5.97114e-08 0)
(3 1.45921e-07 0)
(3 3.63644e-07 0)
(3 8.69245e-07 0)
(3 2.17246e-06 0)
(2.99999 5.14692e-06 0)
(2.99998 1.28942e-05 0)
(2.99995 3.05026e-05 0)
(2.99989 7.61994e-05 0)
(2.99973 0.000181156 0)
(2.99935 0.000449898 0)
(2.99841 0.00107836 0)
(2.99615 0.00266007 0)
(2.99059 0.0064597 0)
(2.97697 0.0159713 0)
(2.94225 0.0400997 0)
(2.85003 0.105382 0)
(2.5864 0.298327 0)
(2.0758 0.708396 0)
(1.77746 0.920942 0)
(3 9.16076e-11 0)
(3 5.54542e-10 0)
(3 1.95757e-09 0)
(3 5.38416e-09 0)
(3 1.43818e-08 0)
(3 3.52056e-08 0)
(3 8.92482e-08 0)
(3 2.12302e-07 0)
(3 5.32544e-07 0)
(3 1.26062e-06 0)
(3 3.14427e-06 0)
(2.99999 7.45326e-06 0)
(2.99997 1.84865e-05 0)
(2.99993 4.40788e-05 0)
(2.99984 0.000108328 0)
(2.99962 0.000260418 0)
(2.99908 0.000634532 0)
(2.99774 0.00153867 0)
(2.99453 0.00372833 0)
(2.9866 0.00913011 0)
(2.96686 0.0223935 0)
(2.91562 0.0567797 0)
(2.77473 0.151648 0)
(2.39448 0.418988 0)
(1.94563 0.820174 0)
(3 5.26671e-11 0)
(3 3.36584e-10 0)
(3 1.14026e-09 0)
(3 3.26365e-09 0)
(3 8.41076e-09 0)
(3 2.12613e-08 0)
(3 5.22828e-08 0)
(3 1.28016e-07 0)
(3 3.12861e-07 0)
(3 7.56801e-07 0)
(3 1.85756e-06 0)
(2.99999 4.45815e-06 0)
(2.99998 1.09801e-05 0)
(2.99996 2.62956e-05 0)
(2.99991 6.47151e-05 0)
(2.99978 0.000155309 0)
(2.99947 0.000380794 0)
(2.99873 0.000918826 0)
(2.99691 0.00224572 0)
(2.9925 0.00546337 0)
(2.98161 0.0134221 0)
(2.95426 0.033411 0)
(2.88246 0.0863476 0)
(2.67876 0.238538 0)
(2.22453 0.612639 0)
(3 3.08422e-11 0)
(3 1.94641e-10 0)
(3 6.7093e-10 0)
(3 1.88476e-09 0)
(3 4.92987e-09 0)
(3 1.2334e-08 0)
(3 3.04122e-08 0)
(3 7.46761e-08 0)
(3 1.80453e-07 0)
(3 4.43598e-07 0)
(3 1.06195e-06 0)
(3 2.61976e-06 0)
(2.99999 6.2406e-06 0)
(2.99998 1.54198e-05 0)
(2.99995 3.66963e-05 0)
(2.99988 9.05486e-05 0)
(2.99971 0.000215761 0)
(2.9993 0.000531526 0)
(2.99832 0.00127065 0)
(2.9959 0.00312384 0)
(2.99008 0.00753648 0)
(2.97567 0.0186356 0)
(2.93918 0.0465266 0)
(2.84134 0.122683 0)
(2.56653 0.342959 0)
(3 1.78262e-11 0)
(3 1.11873e-10 0)
(3 3.82722e-10 0)
(3 1.08379e-09 0)
(3 2.8058e-09 0)
(3 7.05363e-09 0)
(3 1.73675e-08 0)
(3 4.2275e-08 0)
(3 1.03673e-07 0)
(3 2.48164e-07 0)
(3 6.12294e-07 0)
(3 1.45059e-06 0)
(3 3.59733e-06 0)
(2.99999 8.47697e-06 0)
(2.99997 2.10419e-05 0)
(2.99993 4.95731e-05 0)
(2.99984 0.000122618 0)
(2.99961 0.00029004 0)
(2.99907 0.000713768 0)
(2.99772 0.0016995 0)
(2.99452 0.0041645 0)
(2.98655 0.010046 0)
(2.96696 0.0248182 0)
(2.91631 0.0625354 0)
(2.77685 0.168416 0)
(3 9.78633e-12 0)
(3 6.37366e-11 0)
(3 2.13932e-10 0)
(3 6.17005e-10 0)
(3 1.57083e-09 0)
(3 4.02407e-09 0)
(3 9.67397e-09 0)
(3 2.42169e-08 0)
(3 5.74054e-08 0)
(3 1.42625e-07 0)
(3 3.38176e-07 0)
(3 8.3468e-07 0)
(3 1.98989e-06 0)
(2.99999 4.86463e-06 0)
(2.99998 1.17087e-05 0)
(2.99996 2.83197e-05 0)
(2.99991 6.88448e-05 0)
(2.99979 0.000164836 0)
(2.99949 0.000404486 0)
(2.99878 0.000962215 0)
(2.99703 0.00237702 0)
(2.99284 0.00567208 0)
(2.9825 0.0140798 0)
(2.95676 0.034557 0)
(2.8896 0.0893187 0)
(3 5.63379e-12 0)
(3 3.46457e-11 0)
(3 1.21598e-10 0)
(3 3.34996e-10 0)
(3 8.90778e-10 0)
(3 2.18671e-09 0)
(3 5.47255e-09 0)
(3 1.31974e-08 0)
(3 3.22738e-08 0)
(3 7.81338e-08 0)
(3 1.88428e-07 0)
(3 4.60154e-07 0)
(3 1.09747e-06 0)
(3 2.70088e-06 0)
(2.99999 6.39135e-06 0)
(2.99998 1.58046e-05 0)
(2.99995 3.72716e-05 0)
(2.99989 9.20881e-05 0)
(2.99973 0.00021772 0)
(2.99936 0.000535593 0)
(2.99844 0.00127337 0)
(2.99629 0.00312043 0)
(2.99096 0.00749567 0)
(2.97814 0.0184434 0)
(2.94578 0.0457415 0)
(3 3.08614e-12 0)
(3 1.90042e-11 0)
(3 6.58964e-11 0)
(3 1.83893e-10 0)
(3 4.83158e-10 0)
(3 1.19341e-09 0)
(3 2.98446e-09 0)
(3 7.133e-09 0)
(3 1.76805e-08 0)
(3 4.18802e-08 0)
(3 1.03526e-07 0)
(3 2.44896e-07 0)
(3 6.02308e-07 0)
(3 1.43199e-06 0)
(3 3.49443e-06 0)
(2.99999 8.35715e-06 0)
(2.99998 2.02039e-05 0)
(2.99994 4.87367e-05 0)
(2.99986 0.000116605 0)
(2.99966 0.00028327 0)
(2.99918 0.000671734 0)
(2.99802 0.0016445 0)
(2.99524 0.00388413 0)
(2.98843 0.00954584 0)
(2.97175 0.022952 0)
(3 1.6059e-12 0)
(3 1.04078e-11 0)
(3 3.48405e-11 0)
(3 1.0086e-10 0)
(3 2.55263e-10 0)
(3 6.53502e-10 0)
(3 1.57361e-09 0)
(3 3.89496e-09 0)
(3 9.32454e-09 0)
(3 2.27337e-08 0)
(3 5.4746e-08 0)
(3 1.31898e-07 0)
(3 3.20231e-07 0)
(3 7.63938e-07 0)
(3 1.87153e-06 0)
(2.99999 4.4227e-06 0)
(2.99999 1.08948e-05 0)
(2.99997 2.56638e-05 0)
(2.99993 6.32137e-05 0)
(2.99982 0.000149061 0)
(2.99958 0.000365703 0)
(2.99897 0.000867863 0)
(2.99754 0.00211707 0)
(2.994 0.00507533 0)
(2.98553 0.0123868 0)
(3 8.5349e-13 0)
(3 5.58827e-12 0)
(3 1.86817e-11 0)
(3 5.3735e-11 0)
(3 1.36495e-10 0)
(3 3.48197e-10 0)
(3 8.36933e-10 0)
(3 2.07671e-09 0)
(3 4.9343e-09 0)
(3 1.21396e-08 0)
(3 2.88148e-08 0)
(3 7.04935e-08 0)
(3 1.68109e-07 0)
(3 4.08127e-07 0)
(3 9.79671e-07 0)
(3 2.35954e-06 0)
(2.99999 5.7137e-06 0)
(2.99998 1.36327e-05 0)
(2.99996 3.32552e-05 0)
(2.99991 7.89072e-05 0)
(2.99978 0.000193418 0)
(2.99948 0.000457217 0)
(2.99875 0.00112443 0)
(2.99698 0.00266285 0)
(2.99275 0.00655539 0)
(3 4.53263e-13 0)
(3 2.8541e-12 0)
(3 9.90632e-12 0)
(3 2.75742e-11 0)
(3 7.26276e-11 0)
(3 1.79079e-10 0)
(3 4.44485e-10 0)
(3 1.07108e-09 0)
(3 2.60723e-09 0)
(3 6.27659e-09 0)
(3 1.51245e-08 0)
(3 3.66165e-08 0)
(3 8.74482e-08 0)
(3 2.12969e-07 0)
(3 5.05717e-07 0)
(3 1.2365e-06 0)
(3 2.92569e-06 0)
(2.99999 7.15676e-06 0)
(2.99998 1.69481e-05 0)
(2.99995 4.13601e-05 0)
(2.99989 9.81027e-05 0)
(2.99974 0.000238518 0)
(2.99938 0.000568622 0)
(2.99852 0.00137407 0)
(2.99642 0.00329815 0)
(3 2.22107e-13 0)
(3 1.46945e-12 0)
(3 5.03977e-12 0)
(3 1.43833e-11 0)
(3 3.73874e-11 0)
(3 9.31338e-11 0)
(3 2.29032e-10 0)
(3 5.53839e-10 0)
(3 1.34863e-09 0)
(3 3.22033e-09 0)
(3 7.84903e-09 0)
(3 1.86342e-08 0)
(3 4.54731e-08 0)
(3 1.07721e-07 0)
(3 2.62417e-07 0)
(3 6.2297e-07 0)
(3 1.51111e-06 0)
(3 3.59743e-06 0)
(2.99999 8.68092e-06 0)
(2.99998 2.07524e-05 0)
(2.99995 4.97757e-05 0)
(2.99987 0.000119427 0)
(2.99969 0.000284707 0)
(2.99926 0.000686673 0)
(2.99825 0.00162735 0)
(3 9.3797e-14 0)
(3 7.89408e-13 0)
(3 2.63211e-12 0)
(3 7.42592e-12 0)
(3 1.91686e-11 0)
(3 4.7739e-11 0)
(3 1.16235e-10 0)
(3 2.84259e-10 0)
(3 6.78277e-10 0)
(3 1.65542e-09 0)
(3 3.92562e-09 0)
(3 9.56711e-09 0)
(3 2.26651e-08 0)
(3 5.50402e-08 0)
(3 1.30808e-07 0)
(3 3.15821e-07 0)
(3 7.54022e-07 0)
(3 1.80891e-06 0)
(3 4.3413e-06 0)
(2.99999 1.03445e-05 0)
(2.99997 2.49601e-05 0)
(2.99994 5.91545e-05 0)
(2.99985 0.000143138 0)
(2.99964 0.00033847 0)
(2.99913 0.000820408 0)
(3 6.93351e-14 0)
(3 3.92716e-13 0)
(3 1.32314e-12 0)
(3 3.68869e-12 0)
(3 9.50001e-12 0)
(3 2.38993e-11 0)
(3 5.82914e-11 0)
(3 1.41974e-10 0)
(3 3.42765e-10 0)
(3 8.21135e-10 0)
(3 1.99004e-09 0)
(3 4.71541e-09 0)
(3 1.14853e-08 0)
(3 2.70806e-08 0)
(3 6.60538e-08 0)
(3 1.55447e-07 0)
(3 3.78873e-07 0)
(3 8.92966e-07 0)
(3 2.16862e-06 0)
(2.99999 5.13095e-06 0)
(2.99999 1.23867e-05 0)
(2.99997 2.94997e-05 0)
(2.99993 7.06816e-05 0)
(2.99982 0.000169625 0)
(2.99958 0.000403222 0)
(3 4.47944e-14 0)
(3 1.68924e-13 0)
(3 6.20173e-13 0)
(3 1.78714e-12 0)
(3 4.60257e-12 0)
(3 1.18898e-11 0)
(3 2.85565e-11 0)
(3 7.07647e-11 0)
(3 1.67415e-10 0)
(3 4.10752e-10 0)
(3 9.65747e-10 0)
(3 2.36321e-09 0)
(3 5.55443e-09 0)
(3 1.35481e-08 0)
(3 3.19039e-08 0)
(3 7.74904e-08 0)
(3 1.83461e-07 0)
(3 4.42227e-07 0)
(3 1.05404e-06 0)
(3 2.52322e-06 0)
(2.99999 6.06173e-06 0)
(2.99999 1.43799e-05 0)
(2.99996 3.48388e-05 0)
(2.99992 8.20852e-05 0)
(2.9998 0.000200018 0)
(3 -3.80331e-15 0)
(3 5.68814e-14 0)
(3 2.75647e-13 0)
(3 8.35412e-13 0)
(3 2.27132e-12 0)
(3 5.69409e-12 0)
(3 1.42004e-11 0)
(3 3.38094e-11 0)
(3 8.27901e-11 0)
(3 1.96033e-10 0)
(3 4.75922e-10 0)
(3 1.13145e-09 0)
(3 2.71934e-09 0)
(3 6.50491e-09 0)
(3 1.55266e-08 0)
(3 3.74054e-08 0)
(3 8.84294e-08 0)
(3 2.14804e-07 0)
(3 5.04722e-07 0)
(3 1.23078e-06 0)
(3 2.88229e-06 0)
(2.99999 7.0365e-06 0)
(2.99998 1.65086e-05 0)
(2.99996 4.01207e-05 0)
(2.9999 9.45574e-05 0)
(3 4.43659e-15 0)
(3 2.23895e-14 0)
(3 1.2926e-13 0)
(3 3.87264e-13 0)
(3 1.05527e-12 0)
(3 2.62505e-12 0)
(3 6.62933e-12 0)
(3 1.58827e-11 0)
(3 3.89884e-11 0)
(3 9.24135e-11 0)
(3 2.2554e-10 0)
(3 5.30742e-10 0)
(3 1.29555e-09 0)
(3 3.03551e-09 0)
(3 7.41746e-09 0)
(3 1.73815e-08 0)
(3 4.23327e-08 0)
(3 9.95301e-08 0)
(3 2.41351e-07 0)
(3 5.7043e-07 0)
(3 1.37224e-06 0)
(3 3.26768e-06 0)
(2.99999 7.7997e-06 0)
(2.99998 1.8711e-05 0)
(2.99996 4.42279e-05 0)
(3 3.5824e-14 0)
(3 8.02774e-14 0)
(3 1.4819e-13 0)
(3 2.87257e-13 0)
(3 5.9984e-13 0)
(3 1.32396e-12 0)
(3 2.98829e-12 0)
(3 7.20632e-12 0)
(3 1.68681e-11 0)
(3 4.12019e-11 0)
(3 9.70303e-11 0)
(3 2.35219e-10 0)
(3 5.58318e-10 0)
(3 1.33952e-09 0)
(3 3.20702e-09 0)
(3 7.61863e-09 0)
(3 1.84047e-08 0)
(3 4.33074e-08 0)
(3 1.05367e-07 0)
(3 2.46357e-07 0)
(3 6.01369e-07 0)
(3 1.40302e-06 0)
(3 3.41782e-06 0)
(2.99999 7.99436e-06 0)
(2.99998 1.93643e-05 0)
(3 2.93392e-14 0)
(3 6.31874e-14 0)
(3 9.46124e-14 0)
(3 1.51081e-13 0)
(3 2.52273e-13 0)
(3 4.94855e-13 0)
(3 9.72897e-13 0)
(3 2.20649e-12 0)
(3 4.8046e-12 0)
(3 1.1883e-11 0)
(3 2.66832e-11 0)
(3 6.69322e-11 0)
(3 1.52838e-10 0)
(3 3.80675e-10 0)
(3 8.78447e-10 0)
(3 2.16281e-09 0)
(3 5.04472e-09 0)
(3 1.22417e-08 0)
(3 2.89989e-08 0)
(3 6.91218e-08 0)
(3 1.66344e-07 0)
(3 3.89793e-07 0)
(3 9.50928e-07 0)
(2.99999 2.1967e-06 0)
(2.99999 5.41382e-06 0)
(1.29589 1.08813 0)
(1.71108 0.883844 0)
(1.90026 0.618147 0)
(1.93562 0.352726 0)
(1.89521 0.134715 0)
(1.81669 -0.00947038 0)
(1.73383 -0.0475183 0)
(1.69206 -0.0218833 0)
(1.68772 0.0166997 0)
(1.6938 0.0404525 0)
(1.70286 0.0437286 0)
(1.71019 0.0344237 0)
(1.71213 0.0239167 0)
(1.71304 0.0149571 0)
(1.71384 0.0099724 0)
(1.71555 0.00924981 0)
(1.71846 0.0102382 0)
(1.722 0.0117212 0)
(1.72702 0.0127249 0)
(1.73369 0.0123497 0)
(1.74097 0.0107507 0)
(1.74829 0.00876874 0)
(1.75588 0.00702478 0)
(1.76398 0.00573772 0)
(1.77269 0.00483221 0)
(1.78201 0.00414186 0)
(1.79189 0.0035364 0)
(1.80226 0.00295995 0)
(1.81305 0.00240743 0)
(1.82423 0.001893 0)
(1.83573 0.0014298 0)
(1.84753 0.00102284 0)
(1.85959 0.000669816 0)
(1.87186 0.000364828 0)
(1.88432 0.00010115 0)
(1.89692 -0.000127438 0)
(1.90965 -0.00032612 0)
(1.92247 -0.000499634 0)
(1.93536 -0.000653019 0)
(1.94828 -0.00079277 0)
(1.96122 -0.00091194 0)
(1.97419 -0.00101558 0)
(1.98718 -0.00113008 0)
(2.0001 -0.00124849 0)
(2.01297 -0.00133972 0)
(2.02583 -0.00141994 0)
(2.03866 -0.00150119 0)
(2.05144 -0.00159953 0)
(2.06412 -0.00171965 0)
(2.07658 -0.00202918 0)
(2.08856 -0.00251899 0)
(2.09888 -0.00426678 0)
(2.10748 -0.0062055 0)
(2.11476 -0.00920408 0)
(2.11851 -0.0149554 0)
(2.1144 -0.0266957 0)
(2.09428 -0.0510276 0)
(2.04382 -0.101497 0)
(1.94434 -0.184916 0)
(1.80789 -0.259935 0)
(1.67458 -0.276676 0)
(1.57756 -0.223134 0)
(1.53182 -0.128164 0)
(1.53862 -0.0360745 0)
(1.57156 0.0130336 0)
(1.60652 0.0265822 0)
(1.64804 0.0136556 0)
(1.68948 -0.0103316 0)
(1.72207 -0.0371429 0)
(1.75042 -0.0550177 0)
(1.7781 -0.0559161 0)
(1.80531 -0.0459386 0)
(1.83279 -0.0295967 0)
(1.86119 -0.0117397 0)
(1.8909 0.00385254 0)
(1.92266 0.0135889 0)
(1.9543 0.0153468 0)
(1.98422 0.0113673 0)
(2.01264 0.00317165 0)
(2.03932 -0.00614604 0)
(2.06431 -0.0142658 0)
(2.08794 -0.0197541 0)
(2.11062 -0.022226 0)
(2.13273 -0.0216367 0)
(2.15467 -0.0186497 0)
(2.1766 -0.0142694 0)
(2.19875 -0.00949206 0)
(2.22094 -0.00527531 0)
(2.24288 -0.00210748 0)
(2.26432 -8.89986e-05 0)
(2.28514 0.00101563 0)
(2.30537 0.00146752 0)
(2.32506 0.00145944 0)
(2.34417 0.00113243 0)
(2.36273 0.000655416 0)
(2.38065 0.000158745 0)
(2.39786 -0.00029758 0)
(2.41359 -0.000482469 0)
(2.42735 -0.000813515 0)
(2.43741 7.79263e-05 0)
(1.38781 0.994741 0)
(1.7051 0.710081 0)
(1.8835 0.397414 0)
(1.97395 0.129386 0)
(2.03061 -0.0617797 0)
(2.06864 -0.163828 0)
(2.08491 -0.174424 0)
(2.08752 -0.135742 0)
(2.08067 -0.0882109 0)
(2.06545 -0.0490262 0)
(2.05202 -0.024455 0)
(2.0495 -0.0168846 0)
(2.05225 -0.0181567 0)
(2.05667 -0.0217419 0)
(2.06218 -0.0244368 0)
(2.0671 -0.0255308 0)
(2.07083 -0.025102 0)
(2.07387 -0.0231241 0)
(2.07694 -0.0207201 0)
(2.08064 -0.0190352 0)
(2.08512 -0.0183623 0)
(2.0902 -0.0182345 0)
(2.0957 -0.0182557 0)
(2.10142 -0.0182213 0)
(2.10727 -0.0180792 0)
(2.11325 -0.0178593 0)
(2.1194 -0.0176014 0)
(2.12577 -0.0173251 0)
(2.13239 -0.0170411 0)
(2.13926 -0.0167556 0)
(2.14638 -0.0164738 0)
(2.15372 -0.0161993 0)
(2.16129 -0.0159336 0)
(2.16908 -0.0156759 0)
(2.17707 -0.0154243 0)