/*--------------------------------*- C++ -*----------------------------------*\
  =========                 |
  \\      /  F ield         | OpenFOAM: The Open Source CFD Toolbox
   \\    /   O peration     | Website:  https://openfoam.org
    \\  /    A nd           | Version:  13
     \\/     M anipulation  |
\*---------------------------------------------------------------------------*/
FoamFile
{
    format      ascii;
    class       volScalarField;
    location    "4.14";
    object      T;
}
// * * * * * * * * * * * * * * * * * * * * * * * * * * * * * * * * * * * * * //

dimensions      [0 0 0 1 0 0 0];

internalField   nonuniform List<scalar> 
1000
(
7.45692e-54
9.51539e-54
1.41913e-53
2.2752e-53
3.75105e-53
6.24406e-53
1.04228e-52
1.74036e-52
2.9043e-52
4.8424e-52
8.06582e-52
1.34211e-51
2.23086e-51
3.70423e-51
6.14422e-51
1.01807e-50
1.68511e-50
2.78625e-50
4.60205e-50
7.59318e-50
1.25151e-49
2.06057e-49
3.38906e-49
5.56815e-49
9.13862e-49
1.49827e-48
2.45379e-48
4.01442e-48
6.56065e-48
1.07105e-47
1.74666e-47
2.84542e-47
4.63042e-47
7.52717e-47
1.22231e-46
1.98274e-46
3.21282e-46
5.20048e-46
8.40885e-46
1.35821e-45
2.19144e-45
3.53207e-45
5.68675e-45
9.14604e-45
1.46939e-44
2.35817e-44
3.78048e-44
6.05415e-44
9.68486e-44
1.54763e-43
2.47043e-43
3.93924e-43
6.27458e-43
9.98364e-43
1.58681e-42
2.51939e-42
3.99573e-42
6.33037e-42
1.00183e-41
1.58376e-41
2.50101e-41
3.94523e-41
6.21669e-41
9.78538e-41
1.5386e-40
2.4166e-40
3.79151e-40
5.94222e-40
9.30284e-40
1.45483e-39
2.27267e-39
3.54641e-39
5.52803e-39
8.60756e-39
1.33881e-38
2.08009e-38
3.22832e-38
5.00491e-38
7.75075e-38
1.199e-37
1.85276e-37
2.85988e-37
4.40962e-37
6.79174e-37
1.04493e-36
1.6059e-36
2.46533e-36
3.78058e-36
5.79116e-36
8.8613e-36
1.35442e-35
2.06793e-35
3.15385e-35
4.80474e-35
7.31179e-35
1.11148e-34
1.68772e-34
2.55991e-34
3.87856e-34
5.87002e-34
8.87425e-34
1.34013e-33
2.02154e-33
3.04607e-33
4.5848e-33
6.89322e-33
1.03525e-32
1.55307e-32
2.32731e-32
3.4837e-32
5.20892e-32
7.77992e-32
1.16071e-31
1.72978e-31
2.575e-31
3.82898e-31
5.68735e-31
8.4383e-31
1.2506e-30
1.85141e-30
2.73782e-30
4.04413e-30
5.96711e-30
8.7947e-30
1.29478e-29
1.90409e-29
2.79704e-29
4.10417e-29
6.01547e-29
8.80706e-29
1.28798e-28
1.8815e-28
2.74546e-28
4.00168e-28
5.8262e-28
8.47315e-28
1.23089e-27
1.78612e-27
2.5889e-27
3.74832e-27
5.42092e-27
7.83111e-27
1.13003e-26
1.6288e-26
2.3451e-26
3.37264e-26
4.84497e-26
6.95228e-26
9.96497e-26
1.42672e-25
2.04039e-25
2.91476e-25
4.15914e-25
5.92814e-25
8.44005e-25
1.20028e-24
1.70504e-24
2.41935e-24
3.42904e-24
4.85467e-24
6.86527e-24
9.69767e-24
1.36832e-23
1.9285e-23
2.71495e-23
3.81782e-23
5.36265e-23
7.52408e-23
1.05448e-22
1.47615e-22
2.06413e-22
2.88304e-22
4.02229e-22
5.6054e-22
7.80277e-22
1.08493e-21
1.50682e-21
2.0904e-21
2.89673e-21
4.00953e-21
5.54355e-21
7.65581e-21
1.05609e-20
1.45519e-20
2.00284e-20
2.75348e-20
3.78114e-20
5.18647e-20
7.10605e-20
9.72504e-20
1.32942e-19
1.81526e-19
2.47584e-19
3.37297e-19
4.58996e-19
6.23895e-19
8.47071e-19
1.14877e-18
1.55616e-18
2.10563e-18
2.84586e-18
3.84194e-18
5.18075e-18
6.97815e-18
9.38843e-18
1.26168e-17
1.69361e-17
2.27081e-17
3.04125e-17
4.06844e-17
5.43636e-17
7.25593e-17
9.67346e-17
1.28817e-16
1.71345e-16
2.27652e-16
3.02117e-16
4.00482e-16
5.30266e-16
7.01306e-16
9.26456e-16
1.22249e-15
1.61127e-15
2.12126e-15
2.78948e-15
3.664e-15
4.80717e-15
6.29979e-15
8.24642e-15
1.07822e-14
1.40815e-14
1.83694e-14
2.39356e-14
3.11525e-14
4.0499e-14
5.25893e-14
6.82107e-14
8.83708e-14
1.14358e-13
1.47817e-13
1.90847e-13
2.4612e-13
3.17037e-13
4.0792e-13
5.24251e-13
6.72985e-13
8.62923e-13
1.1052e-12
1.41387e-12
1.80666e-12
2.30593e-12
2.93979e-12
3.74358e-12
4.76166e-12
6.04965e-12
7.67718e-12
9.73137e-12
1.2321e-11
1.55818e-11
1.9683e-11
2.4835e-11
3.12994e-11
3.94012e-11
4.95429e-11
6.22235e-11
7.80597e-11
9.78135e-11
1.22425e-10
1.53053e-10
1.91124e-10
2.38389e-10
2.97e-10
3.69596e-10
4.59407e-10
5.70385e-10
7.07355e-10
8.76207e-10
1.08412e-09
1.33981e-09
1.65391e-09
2.0393e-09
2.51159e-09
3.08969e-09
3.79649e-09
4.6596e-09
5.71234e-09
6.99488e-09
8.5555e-09
1.04523e-08
1.27549e-08
1.55468e-08
1.8928e-08
2.30181e-08
2.79597e-08
3.39232e-08
4.11113e-08
4.97651e-08
6.01712e-08
7.26696e-08
8.76632e-08
1.05629e-07
1.2713e-07
1.52831e-07
1.83517e-07
2.20112e-07
2.637e-07
3.15556e-07
3.77177e-07
4.50312e-07
5.37011e-07
6.39667e-07
7.61072e-07
9.04479e-07
1.07367e-06
1.27306e-06
1.50774e-06
1.78363e-06
2.10759e-06
2.48753e-06
2.9326e-06
3.45335e-06
4.0619e-06
4.77223e-06
5.60037e-06
6.56468e-06
7.68625e-06
8.98914e-06
1.05009e-05
1.22528e-05
1.42807e-05
1.66253e-05
1.93326e-05
2.24552e-05
2.60525e-05
3.01915e-05
3.49483e-05
4.04085e-05
4.66686e-05
5.38372e-05
6.20363e-05
7.14029e-05
8.20904e-05
9.42705e-05
0.000108135
0.000123898
0.000141798
0.0001621
0.000185099
0.000211123
0.000240533
0.000273731
0.000311159
0.000353306
0.00040071
0.000453963
0.000513714
0.000580676
0.00065563
0.000739428
0.000833002
0.000937366
0.00105363
0.00118298
0.00132674
0.0014863
0.0016632
0.00185908
0.00207571
0.00231502
0.00257906
0.00287002
0.00319028
0.00354235
0.00392894
0.00435291
0.00481732
0.00532542
0.00588065
0.00648665
0.00714727
0.00786655
0.00864878
0.00949844
0.0104202
0.0114191
0.0125001
0.0136686
0.0149303
0.0162908
0.0177562
0.0193326
0.0210265
0.0228443
0.0247929
0.026879
0.0291097
0.0314921
0.0340336
0.0367414
0.039623
0.0426858
0.0459372
0.0493848
0.053036
0.0568981
0.0609784
0.065284
0.0698219
0.0745988
0.0796213
0.0848956
0.0904277
0.0962231
0.102287
0.108624
0.115239
0.122136
0.129317
0.136786
0.144545
0.152595
0.160936
0.16957
0.178496
0.187712
0.197216
0.207005
0.217077
0.227425
0.238046
0.248933
0.26008
0.271477
0.283118
0.294994
0.307093
0.319405
0.331919
0.344623
0.357503
0.370547
0.383741
0.397069
0.410517
0.424069
0.43771
0.451422
0.465191
0.478998
0.492826
0.506659
0.52048
0.534271
0.548015
0.561694
0.575293
0.588794
0.602181
0.615438
0.628548
0.641497
0.65427
0.666851
0.679228
0.691386
0.703313
0.714996
0.726424
0.737586
0.748471
0.759069
0.769372
0.77937
0.789057
0.798423
0.807464
0.816173
0.824544
0.832573
0.840255
0.847586
0.854562
0.861182
0.867442
0.87334
0.878874
0.884043
0.888846
0.893281
0.897348
0.901045
0.904374
0.907333
0.909923
0.912142
0.913992
0.915472
0.916581
0.917321
0.917691
0.917691
0.917321
0.916581
0.915472
0.913992
0.912142
0.909923
0.907333
0.904374
0.901045
0.897348
0.893281
0.888846
0.884043
0.878874
0.87334
0.867442
0.861182
0.854562
0.847586
0.840255
0.832573
0.824544
0.816173
0.807464
0.798423
0.789057
0.77937
0.769372
0.759069
0.748471
0.737586
0.726424
0.714996
0.703313
0.691386
0.679228
0.666851
0.65427
0.641497
0.628548
0.615438
0.602181
0.588794
0.575293
0.561694
0.548015
0.534271
0.52048
0.506659
0.492826
0.478998
0.465191
0.451422
0.43771
0.424069
0.410517
0.397069
0.383741
0.370547
0.357503
0.344623
0.331919
0.319405
0.307093
0.294994
0.283118
0.271477
0.26008
0.248933
0.238046
0.227425
0.217077
0.207005
0.197216
0.187712
0.178496
0.16957
0.160936
0.152595
0.144545
0.136786
0.129317
0.122136
0.115239
0.108624
0.102287
0.0962231
0.0904277
0.0848956
0.0796213
0.0745988
0.0698219
0.065284
0.0609784
0.0568981
0.053036
0.0493848
0.0459372
0.0426858
0.039623
0.0367414
0.0340336
0.0314921
0.0291097
0.026879
0.0247929
0.0228443
0.0210265
0.0193326
0.0177562
0.0162908
0.0149303
0.0136686
0.0125001
0.0114191
0.0104202
0.00949844
0.00864878
0.00786655
0.00714727
0.00648665
0.00588065
0.00532542
0.00481732
0.00435291
0.00392894
0.00354235
0.00319028
0.00287002
0.00257906
0.00231502
0.00207571
0.00185908
0.0016632
0.0014863
0.00132674
0.00118298
0.00105363
0.000937366
0.000833002
0.000739428
0.00065563
0.000580676
0.000513714
0.000453963
0.00040071
0.000353306
0.000311159
0.000273731
0.000240533
0.000211123
0.000185099
0.0001621
0.000141798
0.000123898
0.000108135
9.42705e-05
8.20904e-05
7.14029e-05
6.20363e-05
5.38372e-05
4.66686e-05
4.04085e-05
3.49483e-05
3.01915e-05
2.60525e-05
2.24552e-05
1.93326e-05
1.66253e-05
1.42807e-05
1.22528e-05
1.05009e-05
8.98914e-06
7.68625e-06
6.56468e-06
5.60037e-06
4.77223e-06
4.0619e-06
3.45335e-06
2.9326e-06
2.48753e-06
2.10759e-06
1.78363e-06
1.50774e-06
1.27306e-06
1.07367e-06
9.04479e-07
7.61072e-07
6.39667e-07
5.37011e-07
4.50312e-07
3.77177e-07
3.15556e-07
2.637e-07
2.20112e-07
1.83517e-07
1.52831e-07
1.2713e-07
1.05629e-07
8.76632e-08
7.26696e-08
6.01712e-08
4.97651e-08
4.11113e-08
3.39232e-08
2.79597e-08
2.30181e-08
1.8928e-08
1.55468e-08
1.27549e-08
1.04523e-08
8.5555e-09
6.99488e-09
5.71234e-09
4.6596e-09
3.79649e-09
3.08969e-09
2.51159e-09
2.0393e-09
1.65391e-09
1.33981e-09
1.08412e-09
8.76207e-10
7.07355e-10
5.70385e-10
4.59407e-10
3.69596e-10
2.97e-10
2.38389e-10
1.91124e-10
1.53053e-10
1.22425e-10
9.78135e-11
7.80597e-11
6.22235e-11
4.95429e-11
3.94012e-11
3.12994e-11
2.4835e-11
1.9683e-11
1.55818e-11
1.2321e-11
9.73137e-12
7.67718e-12
6.04965e-12
4.76166e-12
3.74358e-12
2.93979e-12
2.30593e-12
1.80666e-12
1.41387e-12
1.1052e-12
8.62923e-13
6.72985e-13
5.24251e-13
4.0792e-13
3.17037e-13
2.4612e-13
1.90847e-13
1.47817e-13
1.14358e-13
8.83708e-14
6.82107e-14
5.25893e-14
4.0499e-14
3.11525e-14
2.39356e-14
1.83694e-14
1.40815e-14
1.07822e-14
8.24642e-15
6.29979e-15
4.80717e-15
3.664e-15
2.78948e-15
2.12126e-15
1.61127e-15
1.22249e-15
9.26456e-16
7.01306e-16
5.30266e-16
4.00482e-16
3.02117e-16
2.27652e-16
1.71345e-16
1.28817e-16
9.67346e-17
7.25593e-17
5.43636e-17
4.06844e-17
3.04125e-17
2.27081e-17
1.69361e-17
1.26168e-17
9.38843e-18
6.97815e-18
5.18075e-18
3.84194e-18
2.84586e-18
2.10563e-18
1.55616e-18
1.14877e-18
8.47071e-19
6.23895e-19
4.58996e-19
3.37297e-19
2.47584e-19
1.81526e-19
1.32942e-19
9.72504e-20
7.10605e-20
5.18647e-20
3.78114e-20
2.75348e-20
2.00284e-20
1.45519e-20
1.05609e-20
7.65581e-21
5.54355e-21
4.00953e-21
2.89673e-21
2.0904e-21
1.50682e-21
1.08493e-21
7.80277e-22
5.6054e-22
4.02229e-22
2.88304e-22
2.06413e-22
1.47615e-22
1.05448e-22
7.52408e-23
5.36265e-23
3.81782e-23
2.71495e-23
1.9285e-23
1.36832e-23
9.69767e-24
6.86527e-24
4.85467e-24
3.42904e-24
2.41935e-24
1.70504e-24
1.20028e-24
8.44005e-25
5.92814e-25
4.15914e-25
2.91476e-25
2.04039e-25
1.42672e-25
9.96497e-26
6.95228e-26
4.84497e-26
3.37264e-26
2.3451e-26
1.6288e-26
1.13003e-26
7.83111e-27
5.42092e-27
3.74832e-27
2.5889e-27
1.78612e-27
1.23089e-27
8.47315e-28
5.8262e-28
4.00168e-28
2.74546e-28
1.8815e-28
1.28798e-28
8.80706e-29
6.01547e-29
4.10417e-29
2.79704e-29
1.90409e-29
1.29478e-29
8.7947e-30
5.96711e-30
4.04413e-30
2.73782e-30
1.85141e-30
1.2506e-30
8.4383e-31
5.68735e-31
3.82898e-31
2.575e-31
1.72978e-31
1.16071e-31
7.77992e-32
5.20892e-32
3.4837e-32
2.32731e-32
1.55307e-32
1.03525e-32
6.89322e-33
4.5848e-33
3.04607e-33
2.02154e-33
1.34013e-33
8.87425e-34
5.87002e-34
3.87856e-34
2.55991e-34
1.68772e-34
1.11148e-34
7.31179e-35
4.80474e-35
3.15385e-35
2.06793e-35
1.35442e-35
8.8613e-36
5.79116e-36
3.78058e-36
2.46533e-36
1.6059e-36
1.04493e-36
6.79174e-37
4.40962e-37
2.85988e-37
1.85276e-37
1.199e-37
7.75075e-38
5.00491e-38
3.22832e-38
2.08009e-38
1.33881e-38
8.60756e-39
5.52803e-39
3.54641e-39
2.27267e-39
1.45483e-39
9.30284e-40
5.94222e-40
3.79151e-40
2.4166e-40
1.5386e-40
9.78538e-41
6.21669e-41
3.94523e-41
2.50101e-41
1.58376e-41
1.00183e-41
6.33037e-42
3.99573e-42
2.51939e-42
1.58681e-42
9.98364e-43
6.27458e-43
3.93924e-43
2.47043e-43
1.54763e-43
9.68486e-44
6.05415e-44
3.78048e-44
2.35817e-44
1.46939e-44
9.14604e-45
5.68675e-45
3.53207e-45
2.19144e-45
1.35821e-45
8.40885e-46
5.20048e-46
3.21282e-46
1.98274e-46
1.22231e-46
7.52717e-47
4.63042e-47
2.84542e-47
1.74666e-47
1.07105e-47
6.56065e-48
4.01442e-48
2.45379e-48
1.49827e-48
9.13862e-49
5.56815e-49
3.38906e-49
2.06057e-49
1.25151e-49
7.59318e-50
4.60205e-50
2.78625e-50
1.68511e-50
1.01807e-50
6.14422e-51
3.70423e-51
2.23086e-51
1.34211e-51
8.06582e-52
4.8424e-52
2.9043e-52
1.74036e-52
1.04228e-52
6.24406e-53
3.75105e-53
2.2752e-53
1.41913e-53
9.51539e-54
7.45692e-54
)
;

boundaryField
{
    sides
    {
        type            zeroGradient;
    }
    empty
    {
        type            empty;
    }
}


// ************************************************************************* //
