/*--------------------------------*- C++ -*----------------------------------*\
  =========                 |
  \\      /  F ield         | OpenFOAM: The Open Source CFD Toolbox
   \\    /   O peration     | Website:  https://openfoam.org
    \\  /    A nd           | Version:  13
     \\/     M anipulation  |
\*---------------------------------------------------------------------------*/
FoamFile
{
    format      ascii;
    class       volVectorField;
    location    "43";
    object      U;
}
// * * * * * * * * * * * * * * * * * * * * * * * * * * * * * * * * * * * * * //

dimensions      [0 1 -1 0 0 0 0];

internalField   nonuniform List<vector> 
918
(
(0.985163 -0.000503065 0)
(0.005013 2.96625 0)
(0.00737738 0.837506 0)
(0.979703 0.00214803 0)
(-0.0140464 2.03944 3.18565e-20)
(-0.00704417 2.94879 -2.54295e-18)
(0.820431 1.159 4.2694e-19)
(0.257471 0.123667 -1.60976e-20)
(0.999908 -0.000283115 0)
(0.0606051 0.804471 0)
(0.0143407 0.615639 0)
(0.734833 -0.0163155 0)
(0.0110943 2.9304 0)
(0.00233331 2.79503 0)
(-0.017601 3.15514 7.63681e-19)
(-0.0187855 1.89213 -1.34518e-21)
(0.322858 0.0329234 1.05536e-18)
(0.189693 1.17095 2.9738e-19)
(0.962769 0.00501967 0)
(-0.0110685 0.573266 0)
(0.0518739 0.1661 -7.62636e-19)
(1.00198 -0.00498006 0)
(1.00022 -0.00979089 0)
(0.975727 -0.00643982 0)
(0.584454 -0.0382799 0)
(0.0157007 2.63982 0)
(-0.0149663 2.91005 9.40771e-19)
(0.00696461 0.907905 0)
(0.00622536 1.14258 0)
(0.00331227 0.882967 0)
(-0.0169835 2.61027 0)
(-0.00280502 2.09407 -2.54303e-20)
(-0.00894641 1.86277 0)
(-0.0206127 2.9876 -9.16282e-23)
(-0.0166902 3.00529 1.97639e-18)
(0.00209922 3.00018 0)
(0.870809 -0.00949767 0)
(0.404608 0.938287 1.88778e-19)
(0.798817 1.17676 -4.70614e-19)
(0.944348 1.01489 5.15629e-19)
(0.670478 1.26951 -9.82074e-20)
(0.670383 1.25509 5.67656e-19)
(0.296331 0.199336 1.57046e-20)
(0.271778 0.095568 0)
(1.1285 0.54786 0)
(0.262692 0.191473 7.17716e-20)
(0.228046 0.123965 -7.44771e-20)
(0.919793 -0.00745047 0)
(1.00027 0.000153893 0)
(0.999909 0.000336257 0)
(1.00363 -0.00776845 0)
(1.00096 -0.000926314 0)
(1.00017 3.04486e-05 0)
(0.0771043 1.81431 -8.2164e-19)
(0.0289826 0.985346 0)
(0.0968155 0.869091 0)
(0.0132604 0.935946 0)
(0.0349752 0.741975 0)
(0.0171752 2.00086 0)
(0.0100352 0.83368 0)
(0.00968024 0.635487 0)
(0.0148856 0.818869 0)
(0.0153852 0.5917 0)
(0.838845 -0.0157781 0)
(0.846137 0.0293776 0)
(0.767729 -0.00486508 0)
(0.816117 0.0390806 0)
(0.703629 -0.0188815 0)
(0.0146878 3.00041 9.43665e-19)
(0.011496 3.008 0)
(0.00611609 3.00277 0)
(0.0135315 2.99734 1.07215e-23)
(0.00797677 2.95848 -1.40252e-18)
(0.0144961 2.98208 0)
(0.010852 2.90358 0)
(0.024475 2.93088 2.17003e-24)
(0.00458419 2.82497 0)
(0.0303675 2.91632 0)
(-0.0051586 2.74484 0)
(0.308081 3.5516 0)
(-0.131845 3.63297 0)
(0.139476 3.24561 -7.10689e-19)
(-0.0127444 2.9814 0)
(-0.017837 2.00683 0)
(-0.00799111 2.16051 1.32673e-21)
(-0.011388 1.89932 -1.72039e-20)
(0.423717 0.142711 -3.65223e-19)
(0.32618 0.0178442 -3.52543e-19)
(0.402934 0.156279 -1.09975e-18)
(0.306972 0.0474365 -7.24919e-19)
(0.223267 0.963814 0)
(0.271535 1.31693 -3.5731e-19)
(0.368281 1.25311 5.97335e-19)
(0.987472 0.00855376 0)
(0.941918 0.00583749 0)
(1.0003 0.000578245 0)
(1.00286 0.00930572 0)
(1.00302 0.00846122 -2.81702e-18)
(0.991913 0.00970002 2.12733e-18)
(-0.0128695 0.800359 0)
(-0.00263374 0.565478 0)
(-0.0165523 0.960145 0)
(-0.00168 0.81455 0)
(-0.00874264 0.564636 0)
(0.0839384 0.168604 2.35691e-19)
(0.142308 0.144665 0)
(0.993541 -0.00837965 0)
(0.954427 -0.00652021 0)
(0.763179 0.0463988 0)
(0.698855 0.0569671 0)
(0.664074 -0.031075 0)
(0.96306 -0.0083532 0)
(0.615573 0.0762675 0)
(0.444813 -0.0108899 1.56541e-18)
(-0.0371313 2.86248 7.09001e-19)
(0.0416847 2.90925 0)
(0.0541013 2.88548 0)
(-0.0046963 2.69964 0)
(-0.0131581 2.98529 8.92574e-19)
(-0.0179158 2.8952 0)
(-0.0153446 2.98809 -2.76375e-18)
(-0.0133509 2.92521 9.45406e-19)
(0.0196338 1.34869 0)
(0.0371276 1.3891 0)
(-0.00754495 2.11696 2.25264e-22)
(-0.00654134 2.07353 0)
(-0.0196994 1.87894 0)
(0.938088 -0.00760467 0)
(0.856565 -0.00975155 0)
(0.86336 0.00617145 0)
(0.949275 -0.00802189 0)
(0.88372 -0.00810443 0)
(0.5168 1.13195 -2.37992e-19)
(0.566195 1.18342 0)
(0.368441 0.882575 3.48918e-20)
(0.310593 0.741532 0)
(0.904236 1.05404 -1.407e-19)
(1.01396 0.856702 2.80054e-19)
(0.361507 1.36607 0)
(0.52613 1.33159 0)
(0.542937 1.28412 0)
(0.116432 0.180995 -3.0504e-19)
(0.329349 0.191821 0)
(0.295486 0.0886074 2.0507e-19)
(0.985489 0.912615 0)
(1.05311 0.763791 0)
(1.07655 0.7039 -2.1218e-19)
(1.1098 0.608192 0)
(1.16139 0.394363 5.50919e-20)
(0.95757 -0.00883496 0)
(0.962407 -0.0100905 0)
(0.901548 -0.00795897 0)
(0.984176 -0.0091682 0)
(0.974657 -0.00936907 0)
(0.937071 -0.00636485 0)
(1.00019 0.00233677 0)
(1.0009 0.00140623 0)
(0.99991 0.000853183 0)
(0.0351352 2.06589 4.53359e-19)
(0.120418 1.75637 0)
(0.0165348 2.18155 7.07566e-19)
(0.0508707 1.86863 -5.97725e-19)
(0.105436 1.17879 -2.43056e-19)
(0.0451703 1.06466 0)
(0.143147 1.02077 0)
(0.00464786 0.895042 0)
(0.0170334 0.691331 0)
(-0.00359338 2.23651 -1.20872e-21)
(0.0257652 2.00726 0)
(-0.00305343 2.24005 -5.38052e-20)
(0.0169036 2.00871 9.45861e-20)
(0.00521012 0.870027 0)
(0.00775415 0.848537 0)
(0.0066647 0.659359 0)
(-0.00197943 0.8019 0)
(0.00195058 0.579534 0)
(0.936028 0.00911454 0)
(0.84663 -0.0152793 0)
(0.925873 -8.26815e-05 0)
(0.840653 -0.0128289 0)
(0.81201 0.000801572 0)
(0.901219 0.0201454 0)
(0.877085 0.024557 0)
(0.788752 -0.00137944 0)
(0.00574699 3.06485 -8.84115e-21)
(0.0166891 3.05783 0)
(0.0147223 2.96905 0)
(0.0086517 2.8762 0)
(0.925219 3.96776 0)
(1.23984 3.30053 9.29811e-19)
(0.0700514 3.07343 0)
(-0.0283208 2.90488 0)
(0.0151785 1.41209 0)
(-0.0219161 1.71999 0)
(0.00864228 1.56984 0)
(-0.0304763 2.56848 -8.88258e-21)
(-0.0141473 2.25976 0)
(-0.0201879 2.40461 0)
(0.0136632 1.93168 1.67955e-21)
(-0.0056461 2.23533 1.29999e-20)
(-0.00453361 2.19256 1.73278e-20)
(0.00217101 1.91022 0)
(0.455054 0.122207 5.50639e-19)
(0.359595 0.00711789 -5.40702e-19)
(0.259862 1.57682 0)
(0.271665 0.73847 -3.19551e-19)
(0.177354 1.66242 -1.07123e-18)
(0.227463 1.20472 1.07383e-18)
(0.902196 0.00647711 0)
(0.967482 0.0110669 0)
(0.974608 0.0107879 0)
(0.923418 0.00648095 0)
(-0.000956922 0.787509 0)
(-0.0162216 0.789744 0)
(-0.00313608 0.566981 0)
(0.225806 0.185542 6.61785e-19)
(0.188959 0.172385 -7.8376e-19)
(0.191276 0.132611 0)
(1.08701 0.0828684 2.93173e-20)
(1.06974 0.0375652 0)
(1.00508 0.038613 0)
(0.901002 -0.00696579 0)
(0.49035 0.103863 0)
(0.537667 0.0867192 -2.50291e-18)
(0.397183 0.00442909 9.37109e-19)
(0.00902452 2.98121 7.55515e-19)
(-0.0324768 2.86609 4.74298e-20)
(0.00363795 3.05021 -1.86867e-20)
(0.0201868 3.04341 6.64634e-19)
(-0.0150267 2.99658 3.10158e-20)
(-0.0129442 2.94947 -1.24785e-22)
(-0.0172528 3.01195 -5.72995e-19)
(0.0148259 3.0239 4.14374e-19)
(0.00733926 3.03674 -6.57176e-19)
(0.932874 -0.00169677 0)
(0.938713 -0.00355108 0)
(0.844637 -0.00928074 0)
(0.956688 0.0117864 0)
(0.942962 0.0130383 0)
(0.881742 0.00602756 0)
(0.917852 0.0165546 0)
(0.926395 0.0147741 0)
(0.838566 0.00343656 0)
(0.720138 1.41057 3.1616e-20)
(0.753669 1.51965 0)
(0.186859 0.325266 7.28527e-20)
(0.219963 0.660037 5.88948e-19)
(0.260361 0.72027 -3.42829e-19)
(0.265483 0.533909 6.81607e-19)
(0.337824 0.792289 1.60395e-18)
(0.135084 0.22222 3.77287e-19)
(0.376827 0.175195 7.69065e-19)
(0.356276 0.186668 2.00474e-19)
(0.303162 0.0680153 3.82461e-19)
(1.15187 0.452423 3.20462e-20)
(1.17149 0.249785 2.69108e-20)
(0.00801719 2.23003 2.78044e-19)
(0.0464762 1.93738 0)
(0.965556 0.0284247 0)
(0.939649 0.0132179 0)
(0.864287 -0.018548 0)
(0.0111303 3.07423 0)
(0.01966 2.94407 1.22209e-18)
(0.0164522 2.95627 0)
(0.00638393 2.85064 -1.21214e-18)
(0.00631282 3.09122 2.97051e-19)
(0.00727678 3.08272 0)
(0.786792 1.82221 -1.57939e-19)
(1.24769 2.49992 4.01503e-19)
(0.768945 1.96188 -1.23216e-18)
(0.0200255 2.98103 -6.55794e-19)
(0.0359039 3.00115 0)
(-0.0338673 2.87799 0)
(-0.00551024 2.21718 -1.3595e-20)
(-0.00708585 2.23912 -3.33515e-20)
(0.013485 1.96809 -8.39098e-21)
(0.276428 1.38473 1.0394e-18)
(0.230453 0.526495 -7.12901e-19)
(0.0637883 1.9902 7.88709e-19)
(0.136182 1.87801 -9.35022e-19)
(0.179854 1.49714 9.21232e-20)
(0.00295413 3.11817 -1.86093e-18)
(0.0171144 3.1179 1.99291e-18)
(-0.00907372 2.98092 8.23892e-19)
(-0.00321077 2.97735 -7.81831e-19)
(-0.0213054 2.88151 -8.3911e-19)
(0.00866894 3.09903 -2.21089e-18)
(0.00207427 3.10676 2.15634e-18)
(0.274198 0.683601 0)
(0.239287 0.673905 -1.21334e-18)
(0.0959952 0.22346 5.38007e-19)
(0.352176 0.918231 1.12067e-18)
(0.19045 0.267166 -1.72781e-18)
(1.16874 0.170026 7.39146e-20)
(1.17243 0.303457 0)
(1.15734 0.119038 -1.98826e-20)
(-0.00228638 2.24826 -1.88114e-21)
(0.00222898 2.23941 0)
(0.0326985 1.97295 0)
(0.340006 1.29286 -3.74049e-19)
(0.370228 1.13049 -8.0842e-19)
(0.204187 0.366447 1.43966e-18)
(1.00587 -0.0108575 0)
(1.00766 -0.0076508 5.19916e-19)
(0.0177615 1.32188 0)
(-0.00589837 1.29297 0)
(1.00222 0.00350291 1.80249e-21)
(1.00366 0.00944805 1.06111e-18)
(-0.0217703 2.55221 1.12529e-20)
(-0.0275541 2.59374 0)
(0.0359731 3.17843 4.40311e-19)
(0.394798 3.49051 0)
(1.1595 0.646666 -7.12786e-20)
(1.01293 0.0130698 -2.15367e-21)
(1.02126 -0.0103885 0)
(1.0017 0.000114359 7.62372e-23)
(0.102487 1.35932 0)
(0.145704 2.57376 0)
(0.0182909 1.29896 0)
(0.00170498 2.62762 5.39986e-20)
(-0.0201834 2.58739 2.29459e-20)
(1.00121 0.0287948 2.44925e-21)
(1.0618 0.00357148 0)
(1.09476 0.0232513 0)
(-0.0212231 1.75012 0)
(-0.022855 2.59441 0)
(-0.00259297 1.28716 0)
(0.294927 1.47146 -1.49713e-19)
(1.01127 -0.00964873 0)
(1.00939 -0.0149331 0)
(1.00238 0.000734332 6.64464e-19)
(1.00547 -0.0048233 -7.80861e-19)
(1.00118 -0.000998435 0)
(-0.00303524 1.4678 0)
(0.00970376 1.37025 0)
(0.0156348 1.43155 0)
(-0.00310934 1.27457 0)
(0.000321484 1.25204 0)
(-0.00330997 1.22571 0)
(1.03463 -0.00636975 0)
(1.02039 0.0157072 -9.14646e-22)
(0.800285 1.26545 2.39087e-19)
(1.00222 0.000300959 -6.61475e-19)
(1.00407 0.00524645 7.74647e-19)
(1.00117 0.00206575 0)
(1.01278 0.0102971 6.58701e-19)
(1.00802 0.00829553 -7.97801e-19)
(1.00858 0.0146916 0)
(-0.0272747 2.62188 0)
(-0.0283702 2.6011 -8.2607e-21)
(-0.0271433 2.61445 6.37839e-21)
(1.22843 0.259209 6.34152e-19)
(1.15662 0.0840776 0)
(0.0434127 3.0774 -9.67015e-19)
(0.0654752 2.85425 -7.03315e-20)
(0.141846 3.19286 1.47652e-18)
(0.136963 3.22167 -2.18524e-19)
(0.13523 3.2338 0)
(0.0199958 3.13743 2.50626e-19)
(0.0764362 3.16051 9.54212e-19)
(0.0692398 3.18621 -4.72086e-19)
(0.022448 3.12983 0)
(0.632214 0.285204 0)
(0.56085 0.335164 0)
(1.12551 0.683296 1.73796e-19)
(1.12037 0.808666 -1.71247e-19)
(1.18649 0.569312 0)
(1.21718 0.505171 0)
(1.01614 0.0132937 -1.22808e-18)
(1.01498 0.0142432 1.54152e-18)
(1.02524 -0.00991264 0)
(1.02331 -0.0118903 0)
(1.00644 0.0025647 0)
(1.01041 0.00369544 0)
(1.00459 0.00182254 0)
(1.00979 0.00618981 0)
(1.00786 0.00597473 0)
(1.0045 0.00466131 0)
(0.0907112 1.35622 0)
(0.0849525 1.32712 0)
(0.122707 1.39297 0)
(0.136993 1.40376 0)
(0.145827 2.59812 0)
(0.185908 2.66564 -4.44405e-19)
(0.101454 2.65452 0)
(0.0870273 2.65794 2.18859e-19)
(0.0413414 2.68061 -1.86993e-19)
(0.0219563 1.30932 0)
(0.0233652 1.24016 0)
(0.0259257 1.32404 0)
(0.0274779 1.26556 0)
(0.00478142 1.98063 -1.95719e-20)
(-0.018906 2.61504 5.30885e-21)
(-0.00662878 2.66997 4.29791e-20)
(-0.0169946 2.69016 0)
(-0.0229895 2.62217 -5.16726e-20)
(-0.023092 2.6171 -1.55735e-20)
(0.0145231 1.97988 1.75165e-20)
(-0.00523747 2.40151 -7.12433e-21)
(-0.01121 2.42248 -4.87433e-20)
(1.01115 0.0365564 1.25188e-18)
(1.00666 0.0161788 -1.54616e-18)
(1.00242 0.0434367 -1.2525e-18)
(0.980307 0.0224831 1.59641e-18)
(1.06308 0.0074294 0)
(1.04853 -0.00863936 0)
(1.09226 0.0330726 0)
(1.07273 0.0116845 0)
(1.07054 -0.00027799 0)
(1.13731 0.0798141 0)
(1.10889 0.0423342 0)
(1.11195 0.0304039 0)
(-0.0238948 2.44476 -7.55904e-22)
(-0.0167069 2.01556 0)
(-0.0136148 2.22584 0)
(-0.0237764 2.61466 -2.44132e-21)
(-0.0222982 2.62334 -2.41541e-22)
(0.00456966 1.57051 -1.16396e-20)
(0.0043803 1.49855 1.1797e-20)
(-0.00696332 1.38297 0)
(-0.00686148 1.39073 0)
(-0.0075201 1.38726 0)
(0.000480353 1.28913 0)
(0.00785798 1.23234 0)
(0.377672 1.48681 2.3976e-19)
(0.417759 1.49059 1.33442e-19)
(0.59701 2.44767 -2.42862e-19)
(0.401162 2.54187 7.16713e-19)
(0.350272 2.06601 7.7151e-20)
(1.02097 -0.00819327 0)
(1.01546 -0.00979161 0)
(1.01489 -0.0155275 0)
(1.00745 -0.00117189 0)
(1.00494 -0.000944572 0)
(1.00776 -0.00475669 0)
(1.00924 -0.00370457 0)
(1.01417 -0.00447244 0)
(1.02112 0.0161169 1.2025e-18)
(1.01797 0.0157149 -1.54094e-18)
(1.02155 0.0180726 -1.21108e-18)
(1.01941 0.0167481 1.51541e-18)
(0.766128 1.31477 0)
(0.702321 1.36639 2.2177e-19)
(0.876413 1.21184 7.5867e-20)
(0.919565 1.16251 -1.00896e-19)
(1.15769 2.60831 3.06719e-19)
(0.800406 0.113933 6.10739e-19)
(1.15987 0.104894 0)
(1.20589 0.188875 -5.09603e-19)
(1.19002 0.151033 -2.15408e-20)
(1.00438 0.148643 0)
(0.135182 2.96025 5.68105e-19)
(0.112344 2.86603 -1.2262e-18)
(0.0224242 2.37355 8.26178e-19)
(0.0905599 -0.0383836 -3.68736e-19)
(0.339679 3.41977 -2.00453e-19)
(0.194123 3.31249 0)
(0.236981 3.35435 2.61058e-19)
(0.244505 3.03359 -1.86897e-18)
(0.339193 3.19282 0)
(0.00573758 3.1211 4.84801e-20)
(0.0160328 3.12978 -5.70536e-19)
(0.0141284 3.12582 8.39711e-19)
(0.0352326 3.14009 0)
(0.0337586 3.15049 0)
(1.21609 2.60725 0)
(0.543124 0.832147 -5.43411e-19)
(1.04334 0.985382 1.19574e-20)
(0.978486 1.0654 0)
(0.83292 0.969201 -1.20209e-19)
(1.06903 0.878354 2.85783e-20)
(0.361631 0.383272 -9.49238e-19)
(0.680725 0.313449 -2.10673e-20)
(0.638078 0.224684 4.36038e-19)
(0.58195 0.368477 3.2224e-20)
(0.494411 0.334381 -1.29747e-18)
(0.652737 0.32828 0)
(0.702717 0.417178 7.4083e-19)
(0.710615 0.418348 0)
(0.61687 0.356497 0)
(0.577008 0.27913 0)
(0.806973 0.613307 4.38274e-19)
(1.22869 0.281321 -5.35172e-19)
(1.22702 0.416356 0)
(1.23584 0.357225 0)
(0.731132 0.186255 6.46854e-19)
(0.854012 0.535619 -4.0259e-19)
(0.74921 0.50658 7.13723e-19)
(0.951962 0.426334 -7.84402e-19)
(1.01963 0.0147593 8.265e-19)
(1.0178 0.0142296 -8.31273e-19)
(1.01594 0.0155107 0)
(1.03607 -0.0059164 0)
(1.02966 -0.00856902 -7.78988e-19)
(1.02768 -0.012102 7.71273e-19)
(1.025 0.00998481 0)
(1.02363 0.0135852 0)
(1.01142 0.00407558 0)
(1.01427 0.00902094 0)
(1.01514 0.0039825 0)
(1.01424 0.00277518 0)
(0.0612212 1.34091 0)
(0.0622407 1.29731 0)
(0.143584 1.36723 -1.66792e-20)
(0.269852 1.46841 7.60512e-20)
(0.163827 1.44022 1.57643e-19)
(0.195343 1.44722 -2.58618e-19)
(0.165077 1.39083 0)
(0.129823 1.59435 -9.68861e-20)
(0.114629 1.5671 0)
(0.347835 2.01828 -1.1215e-19)
(0.344759 2.34996 6.4307e-19)
(0.18622 1.45127 8.44895e-20)
(0.261846 1.38125 1.39768e-20)
(0.196479 1.37088 -1.13122e-20)
(0.271653 1.32302 -1.22352e-19)
(0.239168 1.57699 0)
(0.260354 1.61642 1.27803e-19)
(0.0331617 2.26397 -4.17381e-20)
(0.0441012 2.66925 0)
(0.0665785 2.40095 1.62287e-19)
(0.0623894 2.42158 0)
(0.0708312 2.67087 -2.42369e-19)
(0.051202 2.69953 0)
(0.0306051 1.40941 -7.14033e-23)
(0.0372608 1.46234 0)
(0.0302937 1.37978 0)
(0.025069 1.38136 8.05616e-23)
(0.00210142 2.65513 -1.72596e-20)
(0.0309105 2.69831 2.14298e-19)
(0.0126957 2.72454 1.49987e-21)
(0.00705169 1.8276 1.72192e-20)
(-0.000677294 1.67506 7.24578e-21)
(0.018635 1.29254 0)
(0.0240678 1.22464 0)
(0.0483884 1.57346 1.20125e-20)
(0.0296733 1.44638 6.83197e-21)
(0.0385554 1.51166 -8.33296e-21)
(0.0406962 1.59824 0)
(-0.0304729 2.27831 5.59351e-20)
(-0.0298009 2.56137 -2.1914e-20)
(-0.0184802 2.45675 -1.07927e-21)
(-0.00133488 1.84454 -2.08617e-20)
(-0.0248637 2.50698 -6.12149e-21)
(-0.0201242 2.44806 3.47573e-20)
(1.01949 0.0208424 -8.21502e-19)
(1.01561 0.0265054 8.25398e-19)
(1.01475 0.0162668 0)
(1.01209 0.0697173 1.15938e-18)
(0.990383 0.0585701 -1.30203e-18)
(0.949372 0.0429816 1.45813e-18)
(1.01376 0.106813 -1.54616e-19)
(1.04234 -0.00596643 0)
(1.05047 -0.00178068 7.44299e-19)
(1.03865 -0.01004 -7.45784e-19)
(1.06967 0.0413087 -4.43594e-20)
(1.06355 0.0224446 3.81793e-19)
(1.06241 0.0541369 0)
(1.05294 0.0481388 -1.37324e-19)
(1.03246 0.0410702 0)
(1.02597 0.03733 0)
(1.02783 0.0129482 0)
(1.02421 0.0157408 0)
(1.03992 0.0312738 2.82662e-19)
(1.03913 0.0261349 -6.24159e-19)
(1.05047 0.0325905 -2.99784e-19)
(1.04844 0.0324131 -3.29895e-19)
(1.07011 0.0629819 6.45737e-19)
(1.09476 0.0504839 0)
(1.10282 0.0942786 0)
(-0.0240985 2.2844 3.37471e-20)
(-0.016127 2.03045 -1.4328e-21)
(-0.0172355 2.03297 0)
(-0.0310589 2.45492 -3.36003e-20)
(-0.0252121 2.41105 2.16967e-21)
(-0.0306811 2.48382 1.99632e-21)
(-0.0217315 2.63109 1.35769e-20)
(-0.0228942 2.57346 -1.43664e-21)
(-0.0214342 2.52354 4.21238e-21)
(-0.0182265 2.62616 -1.50175e-21)
(-0.0230809 2.62714 3.25471e-21)
(-0.00265026 1.48348 -6.38076e-22)
(0.00654677 1.61921 -8.58963e-21)
(0.364377 1.42987 -9.77417e-20)
(0.364016 1.36883 5.3311e-20)
(0.647038 1.41513 -2.14486e-19)
(0.51571 1.48132 -1.30391e-19)
(0.570372 1.4503 0)
(0.592643 2.42393 2.14084e-19)
(0.660584 2.41704 3.42358e-19)
(0.410182 2.51585 8.46119e-20)
(0.402755 2.54375 -6.42179e-19)
(0.511125 2.48878 6.28574e-19)
(0.551994 2.46149 0)
(0.488551 2.51635 -5.71166e-19)
(0.24794 2.59046 1.19124e-18)
(0.353322 2.56417 -8.13432e-20)
(0.283892 2.65195 -1.63559e-18)
(0.944614 2.38107 7.35497e-19)
(0.836777 2.38377 0)
(1.01101 0.000442982 2.69573e-20)
(1.01525 -0.00548668 -2.18834e-20)
(1.01764 -0.00362445 -3.99778e-19)
(1.01494 -0.000951361 4.01672e-19)
(1.01236 0.00106766 0)
(0.635117 1.2843 0)
(0.656604 1.1817 0)
(0.76367 1.09271 0)
(0.649477 1.14491 0)
(1.18705 2.62271 5.85043e-20)
(1.0754 2.36826 0)
(0.839282 2.18634 3.91745e-21)
(0.825744 2.44797 0)
(0.922965 2.53931 -4.34024e-19)
(0.958472 2.49507 2.88882e-19)
(0.815004 0.170273 0)
(0.776559 0.14182 1.66371e-19)
(0.921957 0.143114 9.68585e-19)
(0.837917 0.145585 -3.61861e-19)
(0.806048 0.0833466 -1.11618e-18)
(1.07764 0.231545 -9.35508e-19)
(0.992143 0.289092 -1.57846e-20)
(0.926084 0.289512 8.95344e-19)
(1.00188 0.220107 7.48612e-19)
(0.952711 0.186803 -1.28805e-18)
(0.917273 0.188275 1.60995e-19)
(0.953773 0.252228 -3.44125e-19)
(0.93149 0.214748 0)
(0.992062 0.182254 6.35887e-19)
(1.04323 0.184666 0)
(1.03988 0.210655 0)
(1.10559 0.116946 3.00714e-19)
(1.0667 0.173566 -1.42148e-20)
(1.07237 0.232614 -1.64462e-19)
(1.10405 0.20051 0)
(1.02268 0.0450332 6.37545e-19)
(1.0407 0.0575985 7.95235e-19)
(1.03403 0.0438629 -6.32344e-19)
(1.04321 0.0642499 -5.32855e-19)
(1.01925 0.0721453 -8.15401e-19)
(0.987804 0.15549 0)
(0.999018 0.103126 0)
(0.966418 0.0653728 -5.19443e-19)
(0.914737 0.0884527 2.04002e-19)
(1.0384 0.10251 7.36832e-19)
(1.06785 0.119966 -8.68257e-19)
(1.07311 0.152559 7.75693e-19)
(1.02929 0.141282 0)
(1.07398 0.106885 0)
(1.05478 0.0894483 -3.54805e-19)
(1.04466 0.0939135 -6.03309e-19)
(0.581218 1.07622 1.44118e-19)
(0.612948 1.40761 -4.57798e-20)
(1.15757 2.73946 -2.33802e-19)
(1.22405 3.08051 2.79799e-21)
(1.24963 2.72175 -1.46399e-19)
(1.27952 2.70549 -2.35132e-20)
(1.20763 2.34586 -1.02738e-20)
(1.21133 2.98459 -9.83419e-20)
(1.23074 2.94989 2.42513e-19)
(1.21501 3.23394 -1.4159e-19)
(1.37569 2.96583 1.95801e-19)
(1.3661 2.88399 0)
(0.549651 0.840195 -5.0886e-20)
(0.133687 1.25025 5.84239e-19)
(0.535496 0.435213 6.1344e-19)
(0.374143 0.185653 6.76375e-19)
(0.522128 0.368813 7.33028e-19)
(0.546853 0.46836 -1.17894e-18)
(0.548291 0.469371 9.62689e-19)
(0.493986 0.38574 -3.70544e-19)
(0.410788 0.317655 8.39552e-19)
(0.736241 0.249293 -3.70385e-19)
(0.698975 0.276405 0)
(0.675473 0.197799 8.85752e-21)
(0.732981 0.506193 3.8983e-19)
(0.705369 0.475899 -1.42154e-18)
(0.61646 0.466552 1.47758e-20)
(0.625102 0.45315 0)
(0.680676 0.728549 4.11077e-19)
(0.836045 0.773041 4.19908e-19)
(0.758835 0.85571 -4.90611e-19)
(0.880269 0.808587 -1.67246e-19)
(0.909376 0.851657 -4.19838e-20)
(0.917125 0.852062 4.2997e-20)
(0.851189 0.644965 -7.27247e-19)
(0.931373 0.702374 1.55383e-19)
(0.986624 0.716112 0)
(0.978025 0.691935 -2.12767e-19)
(1.02188 0.326409 2.26302e-19)
(1.14331 0.296145 3.11649e-19)
(1.06455 0.266407 3.82668e-19)
(1.01021 0.358264 -4.54916e-19)
(1.05838 0.422202 0)
(1.11238 0.407949 0)
(0.916405 0.358839 6.16884e-21)
(0.840583 0.29102 0)
(0.878311 0.28677 4.2142e-19)
(0.907387 0.295774 -4.67922e-21)
(0.945676 0.428732 2.18725e-18)
(0.904331 0.487436 5.65954e-19)
(0.907389 0.451541 -6.00666e-19)
(0.82425 0.435279 6.43351e-19)
(0.807514 0.429177 3.85947e-19)
(0.777315 0.411717 -3.79329e-19)
(1.02717 -0.000509932 6.66003e-19)
(1.02 -0.000129228 0)
(1.01848 0.000799988 4.34091e-19)
(1.0216 -0.00176575 -9.83414e-19)
(1.0223 0.00424813 4.77737e-19)
(1.02041 0.0111619 -1.00046e-18)
(1.02136 0.010559 0)
(1.02066 0.0108397 -2.08448e-19)
(1.01599 0.00766223 5.22913e-19)
(1.01671 0.0104213 -2.60902e-19)
(1.01742 0.00976971 1.92159e-19)
(0.0280141 1.31555 0)
(0.0328782 1.35356 0)
(0.0425866 1.31835 0)
(0.0417636 1.27534 0)
(0.0706372 1.38002 8.79939e-21)
(0.0772291 1.35177 4.47324e-21)
(0.110829 1.51087 -2.81237e-20)
(0.0939307 1.36162 7.78164e-21)
(0.0341164 1.45155 -2.98688e-20)
(0.037944 1.44459 2.33444e-20)
(0.0617324 1.36412 -7.90416e-21)
(0.0540193 1.36586 5.42519e-21)
(0.0460608 1.34122 6.28154e-22)
(0.0379747 1.36339 -2.51718e-21)
(0.107515 2.37169 -1.79509e-19)
(0.0964786 2.41884 0)
(0.170637 2.04759 1.18437e-19)
(0.109479 1.71033 5.17605e-20)
(0.229568 2.04448 -9.69769e-20)
(0.204513 2.43711 0)
(0.264846 2.38856 -6.24984e-19)
(0.302611 2.38664 4.43369e-19)
(0.229747 2.00436 -2.69949e-19)
(0.153644 2.16487 1.78231e-19)
(0.143856 2.27635 0)
(0.0202564 1.87328 -3.79907e-20)
(0.000227665 2.39702 -8.66581e-20)
(0.00616096 2.15008 0)
(0.013047 2.45853 -1.39789e-20)
(0.0285475 2.30285 3.07085e-20)
(0.0238881 1.39243 -1.53315e-21)
(0.0218758 1.3795 2.92074e-20)
(0.0204943 1.38319 -1.28924e-20)
(0.0250353 1.38217 -4.33388e-21)
(0.0298278 1.41343 0)
(0.0175628 1.36418 0)
(0.00594881 1.28669 -1.66402e-20)
(0.0124849 1.3541 4.02557e-21)
(0.0141171 1.3557 0)
(0.0162865 1.28267 -1.23267e-20)
(0.0222401 1.21498 2.60513e-20)
(1.04039 0.0113001 0)
(1.04644 0.00757032 -6.9828e-20)
(1.03855 0.0209338 -5.03264e-19)
(1.04802 0.0198192 0)
(1.05186 0.0196606 0)
(1.03628 0.0113381 -6.672e-21)
(1.03093 0.0111981 8.07976e-19)
(1.03178 0.0161426 9.79885e-19)
(1.0258 0.020064 0)
(1.02299 0.0204518 0)
(1.03514 0.0246273 5.01998e-19)
(1.02611 0.0259877 0)
(1.02436 0.0260485 0)
(-0.0165468 2.0241 0)
(0.00632422 1.6511 -5.3603e-21)
(-0.00507043 1.7591 -2.18813e-20)
(0.00539175 1.36438 0)
(-0.00970636 1.54548 -2.34524e-21)
(0.00579968 1.44763 3.00548e-21)
(0.00356449 1.37295 0)
(0.389978 1.66741 0)
(0.366414 1.2974 -9.92274e-20)
(0.301231 1.34146 0)
(0.420144 1.29622 4.37413e-20)
(0.466369 1.45699 0)
(0.447192 1.40168 7.61433e-21)
(1.03598 2.68711 -1.56588e-20)
(0.965868 2.41146 -9.2457e-19)
(0.916377 2.19305 1.05391e-18)
(0.850315 2.37614 2.45254e-19)
(0.84773 2.49787 0)
(0.917613 2.49413 0)
(0.927946 2.3745 0)
(0.906844 2.36126 -9.53273e-19)
(0.688998 2.46549 -4.06959e-19)
(0.80134 2.45564 -1.00041e-19)
(0.811942 2.42943 7.62286e-20)
(0.694986 2.39198 0)
(0.799893 2.38803 0)
(0.758495 2.40029 -3.72438e-19)
(0.769216 2.48751 0)
(0.61713 1.09925 0)
(0.486055 0.926112 -5.13534e-19)
(0.556779 0.960817 -3.26487e-20)
(0.522926 1.05558 0)
(0.524005 1.00474 7.71003e-19)
(0.781606 0.880526 -1.38168e-19)
(0.788826 1.01757 0)
(0.763415 0.978572 2.01251e-19)
(0.649523 1.03563 0)
(0.654277 0.942971 0)
(1.16543 2.76152 -2.38827e-19)
(1.14321 2.82493 -1.02269e-19)
(0.932776 2.3446 1.08301e-19)
(0.900356 2.32293 -8.59244e-20)
(1.13037 2.73489 0)
(1.08367 2.705 1.03438e-19)
(1.09034 2.48765 -3.23799e-19)
(0.984389 2.23653 -3.06629e-20)
(0.497171 1.35247 0)
(0.511182 1.0758 -1.27104e-19)
(0.565889 1.16764 0)
(0.857961 0.227242 0)
(0.784867 0.180913 0)
(0.725158 0.142211 0)
(0.85365 0.232381 -6.63315e-19)
(0.756714 0.217213 3.88653e-19)
(0.930334 0.0749437 -4.21363e-19)
(0.945912 0.121082 0)
(0.925385 0.134816 1.80623e-19)
(0.86442 0.109953 7.25062e-19)
(0.83376 0.0674766 -4.53666e-19)
(1.16181 3.35918 -7.16982e-19)
(1.20981 3.27849 0)
(1.15994 3.38734 -1.47898e-18)
(0.64733 3.54816 1.2563e-18)
(0.871986 3.11559 6.51721e-20)
(0.519887 0.845173 6.13995e-19)
(0.434172 0.841404 0)
(0.334308 0.472392 -1.55291e-19)
(0.456277 0.675555 8.81605e-19)
(0.538481 0.44009 -2.12323e-19)
(0.510489 0.500108 2.43462e-19)
(0.664239 0.524623 5.25875e-19)
(0.694935 0.548621 0)
(0.648356 0.605021 0)
(0.605249 0.545883 0)
(0.993599 0.60087 1.03457e-19)
(0.908938 0.536713 -5.50682e-19)
(0.935086 0.571235 4.19511e-19)
(0.969014 0.507167 -4.25572e-19)
(1.07362 0.479674 0)
(1.08068 0.569593 -1.06651e-19)
(0.847323 0.388043 -8.80159e-19)
(0.850201 0.376579 -1.08778e-18)
(0.795284 0.378502 6.86396e-19)
(0.793126 0.349342 -7.0178e-19)
(0.842502 0.310268 -5.48573e-19)
(0.793666 0.308147 6.7328e-19)
(1.02669 0.00570401 -5.10071e-19)
(1.02641 0.00593235 1.03936e-18)
(1.02933 -0.000117216 6.45726e-19)
(1.03339 0.000766617 -7.77752e-19)
(1.03356 0.00864411 0)
(1.03007 0.00924979 -1.26476e-18)
(0.064848 1.64468 2.81645e-20)
(0.0459021 1.57558 0)
(0.0865822 1.6957 1.74493e-19)
(0.0959969 1.677 -1.54983e-19)
(0.088382 1.52851 5.2756e-20)
(0.087065 1.51151 0)
(0.0163682 1.6745 0)
(0.00410553 1.47723 -1.58957e-21)
(0.00517676 1.42083 1.43034e-21)
(-0.00225815 1.53876 4.97318e-21)
(0.00365422 1.88182 -3.0042e-21)
(-0.00864947 1.93475 4.95479e-21)
(0.496413 1.37103 -2.90711e-19)
(0.489811 1.37446 3.18807e-19)
(0.444861 1.29337 -4.77577e-20)
(0.434353 1.29203 8.77884e-21)
(0.626997 1.29919 0)
(0.544125 1.38739 8.44708e-20)
(0.559636 1.39558 -8.22283e-20)
(0.455543 1.27947 4.64412e-20)
(0.510518 1.23441 0)
(0.563097 1.20131 0)
(0.655517 2.42431 5.97962e-19)
(0.669819 2.46151 1.29229e-18)
(0.715851 2.47337 -8.90248e-19)
(0.61465 2.4484 -2.08749e-19)
(0.560254 2.54092 2.91047e-19)
(0.509575 2.51424 -7.75668e-19)
(0.976676 2.38089 -5.89892e-19)
(1.01283 2.39439 0)
(0.922992 2.17122 -6.83125e-19)
(1.05384 2.68433 0)
(1.05607 2.67112 0)
(0.611622 2.27203 -1.22282e-19)
(1.04277 3.16218 1.30763e-19)
(0.913754 3.03215 -3.41042e-20)
(0.279577 0.902523 0)
(0.317605 0.760168 -3.24094e-19)
(0.479593 0.717491 -3.26767e-19)
(0.388795 2.01855 0)
(0.466807 2.78455 -4.53673e-20)
(0.42277 2.54822 0)
(0.696761 0.675948 -8.71531e-19)
(0.779873 0.677743 1.18709e-18)
(0.800165 0.620382 -1.17521e-18)
(0.676488 0.638543 -1.12728e-19)
(0.732017 0.591329 -4.66635e-19)
(1.00519 2.76487 -9.94337e-20)
(1.04279 2.82218 -1.71654e-19)
(0.640052 2.14682 6.77693e-19)
(0.596832 1.71337 -4.82492e-19)
(0.700434 1.9066 -4.13283e-19)
(0.99089 2.44837 -1.14614e-19)
(0.995932 2.44165 3.05071e-19)
(0.66093 1.84461 2.86201e-20)
(0.452749 1.33409 1.4866e-19)
)
;

boundaryField
{
    wall-4
    {
        type            noSlip;
    }
    velocity-inlet-5
    {
        type            fixedValue;
        value           uniform (1 0 0);
    }
    velocity-inlet-6
    {
        type            fixedValue;
        value           uniform (0 3 0);
    }
    pressure-outlet-7
    {
        type            zeroGradient;
    }
    wall-8
    {
        type            noSlip;
    }
    frontAndBackPlanes
    {
        type            empty;
    }
}


// ************************************************************************* //
