/*--------------------------------*- C++ -*----------------------------------*\
  =========                 |
  \\      /  F ield         | OpenFOAM: The Open Source CFD Toolbox
   \\    /   O peration     | Website:  https://openfoam.org
    \\  /    A nd           | Version:  13
     \\/     M anipulation  |
\*---------------------------------------------------------------------------*/
FoamFile
{
    format      ascii;
    class       surfaceScalarField;
    location    "69";
    object      phi;
}
// * * * * * * * * * * * * * * * * * * * * * * * * * * * * * * * * * * * * * //

dimensions      [0 3 -1 0 0 0 0];

internalField   nonuniform List<scalar> 
1300
(
3.75095
5.62643
-3.32498
3.75095
-7.73078
5.62643
-4.38966
4.38966
-0.37356
0.37356
1.87639
1.87457
-2.68541
2.68541
-2.10198
2.10198
-2.52354
2.52354
-5.24647
5.24647
-5.06902
5.06902
4.65478
-4.65478
-6.31177
6.31177
-0.940841
0.940841
-3.68388
3.68388
3.16961
-3.16961
-2.07216
2.07216
0.0312267
-0.0312267
-0.553474
4.30443
3.19748
3.19748
-2.01476
2.01476
-4.86887
4.86887
6.21812
-6.21812
5.30628
-5.30628
-1.98131
-2.45032
1.7873
-11.5079
-5.94348
-5.94348
-8.44038
8.44038
-2.81395
2.81248
2.94624
-2.94624
-1.77324
1.77324
-4.35067
-0.0389897
-4.35067
4.36047
0.0291935
4.36047
-0.459694
0.0861344
-0.459694
3.99301
-3.99301
0.286703
0.0868568
0.286703
3.06535
-3.06535
-1.87711
3.7535
1.87384
-1.8719
6.17632
-1.87906
3.75362
-6.01505
6.01505
-2.93152
0.246112
-2.93152
2.47237
0.213038
2.47237
-6.85078
6.85078
-2.13117
0.0291934
-2.13117
2.07368
0.0282982
2.07368
2.88116
-2.88116
-2.63186
0.108322
-2.63186
2.39312
0.130424
2.39312
0.353521
5.27291
-5.97995
8.79243
-5.27291
0.0264353
5.20838
0.0380936
5.20838
-5.10594
0.0369243
-5.10595
5.01221
0.0568061
5.01221
4.73999
-0.0852127
4.73999
-4.77306
0.118284
-4.77306
-3.386
-4.05297
-6.46363
0.151859
-6.46363
-1.03431
0.0934651
-1.03431
0.824514
0.116327
0.824514
-3.68513
3.68513
-4.104
0.420117
-4.104
3.12397
0.0456358
3.12397
1.86849
1.88246
5.61944
-5.61944
2.44983
-2.04295
-0.0292089
-2.04295
-2.13546
-3.17082
2.13546
-0.0633061
-0.196545
0.227772
-0.196545
3.15944
0.0380441
3.15944
2.23529
0.157829
-2.23529
0.22053
3.27556
-3.27556
1.33961
0.675149
1.33961
-5.56403
5.56403
4.95597
0.0562478
-4.95597
0.0870979
6.1565
0.061612
6.1565
-6.19952
-0.0186003
-6.19952
2.53113
-4.98145
-2.619
6.12824
0.183529
-6.12824
0.184764
2.91816
0.0280896
2.91816
-2.91979
2.91979
-2.98472
0.0384761
-2.98472
-2.17202
0.39878
-2.17202
1.4747
0.298537
1.4747
-4.25139
-0.0992828
-4.25139
-4.25073
0.146727
4.25073
0.109739
1.12906
-1.12906
-0.58939
0.129695
-0.58939
-4.11646
-0.134932
4.11646
-0.123446
-3.88301
-0.110005
-3.88301
-3.02454
0.0398149
3.02454
0.0408161
3.11288
0.0465519
-3.11288
0.0475317
-1.87082
3.75328
-1.88014
3.75398
-5.6349
-0.380156
-5.6349
6.32614
-0.31109
6.32614
3.3252
0.358689
-3.3252
0.393672
2.30675
0.165628
2.30675
-6.81272
-0.0380636
-6.81272
6.83596
0.0148206
6.83596
2.19452
0.112223
-2.19452
0.0633508
2.05376
0.0199207
2.05376
2.90105
-0.0198825
2.90105
-2.87537
-0.00579255
-2.87537
2.79379
-2.79379
2.71954
0.0742444
-2.71954
0.0876789
-11.1331
11.1145
-0.0353055
-11.0978
5.17307
5.17307
4.16692
0.573071
4.16692
-4.99063
0.21757
-4.99063
2.67994
-5.29894
3.06506
-6.45106
4.6662
-16.1741
4.30504
-8.35801
6.70338
-6.70338
6.59284
0.110542
-6.59284
0.129206
-1.1538
0.119498
-1.1538
-3.08291
-0.602216
-3.08291
4.32744
-0.642314
4.32744
-3.02812
3.02812
-3.07743
0.0493114
3.07743
0.0465426
2.03846
0.0152965
-2.03846
-0.00448605
0.233764
0.0529393
-0.233764
0.0372187
3.48811
-0.212554
3.48811
-3.07762
-0.197934
-3.07762
-1.25102
0.0972199
1.25102
0.0885875
-5.81461
0.250584
-5.81461
-11.1907
0.0929214
-11.1527
-6.10659
-6.10659
2.33379
11.1262
-2.89342
0.0180451
2.89342
0.02474
2.97516
0.0529574
-2.97516
0.0553685
-2.86027
0.0664849
2.86027
0.0595209
-2.54688
0.374864
-2.54688
-1.07274
1.07274
-1.23854
0.165796
1.23854
0.236158
1.40092
-0.271865
1.40092
0.711801
0.112713
-0.711801
0.122412
-3.78406
-0.0989448
-3.78406
6.56136
-0.235217
6.56136
-2.96293
-0.114695
2.96293
-0.0618841
-0.0333142
11.1478
-5.13976
0.0338151
5.13976
-11.2095
11.2433
-3.21739
0.670513
3.21739
0.949526
5.28379
0.280232
-5.28379
0.293163
6.78667
0.0492944
-6.78667
0.0832854
-2.59036
-0.49255
-2.59036
-5.05292
-0.581977
5.05292
-0.725479
-11.4752
-0.203702
11.6789
-11.4184
6.01831
0.138191
-6.01831
11.3815
-1.03021
-0.0988482
1.03021
0.0425334
1.72848
-0.327557
1.72848
3.68341
-0.195298
-3.68341
-0.100652
-6.71569
-0.0970306
6.71569
-0.154328
-2.14552
-0.444841
2.14552
-0.417039
-4.26712
4.30516
1.90921
-2.38554
-2.59591
-5.55635
1.85185
1.90143
4.30168
-10.1511
-6.02307
-9.96629
7.26165
-6.96848
-9.24315
9.15794
7.88223
-7.99223
-5.78484
5.83138
6.48288
-6.44206
1.87881
1.87469
8.02236
-7.77625
-15.5965
15.2163
7.52673
-7.49753
15.7472
-15.7853
-17.8302
17.8795
-5.70354
5.81187
-6.73984
6.73405
-6.9749
6.91301
-2.83802
-3.61304
13.1075
-12.9556
8.56702
-8.59623
-8.6151
9.03522
3.38259
0.922568
3.42915
-1.88215
3.76096
-1.87147
3.78068
2.71394
-5.55196
2.585
-5.18091
4.34772
4.2193
-4.28442
-1.27194
-5.92469
5.95278
-5.8134
5.87292
9.12835
-9.16734
-1.88517
3.75986
-1.86881
3.77024
-3.42502
-2.35983
3.37938
0.922304
8.06732
5.04019
-8.25085
-1.71545
-8.03702
7.84172
-8.22921
8.03128
-0.434518
5.81909
-5.38458
4.43435
-1.56201
7.3811
5.69963
5.9172
5.86587
-5.58563
1.10262
-6.48719
-6.40009
-2.28313
2.41282
2.18968
-2.10283
6.13422
1.74801
6.01077
-5.75744
-2.23479
-5.85638
3.82064
2.01074
3.86995
4.07841
2.40447
4.11822
3.03046
-3.03595
0.00549179
-3.05662
6.08708
0.723908
-5.41645
-4.49414
4.97551
3.04685
5.18854
-5.55629
-2.21996
-5.16262
-9.53368
-6.06278
-10.1157
10.0769
5.13937
9.76585
-11.9472
11.7928
4.7963
2.73042
4.8246
-4.93294
-2.56459
-4.86959
11.639
-2.63875
-9.00024
-10.3073
-7.52289
10.2925
5.45472
10.9512
6.92831
11.0345
4.42224
7.21676
-9.87696
2.35407
-3.86759
-1.83596
-3.77991
3.66958
2.14228
3.80001
-4.21741
-2.52243
-4.19937
-4.29558
-2.67932
4.31546
2.41859
-4.41677
-3.81244
4.53146
2.38155
4.03635
-10.0594
4.32166
-7.93471
-9.18928
-3.76636
-9.06008
3.51318
2.60973
-6.12291
-2.03878
8.49163
-4.27233
7.21969
-5.17988
-3.41635
-5.18436
-6.8791
-1.736
-6.73238
-8.87587
8.38332
-9.17127
8.52896
12.5147
-5.6432
-6.87152
-3.96844
-2.47362
3.92091
-0.491762
-3.7105
3.71599
0.0504645
3.83114
4.75371
4.26195
-3.88413
-1.92927
-3.82876
3.82395
2.04897
3.89044
6.83442
2.29393
6.86361
-6.60413
-2.56321
-6.70342
9.03897
-8.64019
2.836
-2.73878
5.39561
2.63567
-5.18306
-2.85396
6.21184
-3.21828
-2.99356
-12.1975
10.5287
1.66884
-4.81643
-0.382076
-0.413302
-5.48896
-3.75419
5.37068
0.546526
11.0752
7.32103
-5.51151
5.76209
6.16739
6.22363
-0.176459
5.80687
-5.13636
5.25699
-2.59221
-2.66478
5.46611
-5.60105
-1.2373
-5.51428
4.27697
0.409725
1.49737
-1.2696
-1.7974
-0.48573
-1.67499
1.29277
0.896915
1.34571
0.945501
1.46732
-2.96044
0.549369
2.41107
-2.01494
-1.55346
-3.81317
-1.14511
4.95828
5.73475
2.10697
-5.6341
-0.222285
2.53678
-2.42046
-0.771252
-3.04192
2.25096
-3.02221
-3.6734
-2.07069
5.74409
-3.3697
-0.459063
3.31674
0.55321
-3.82717
-2.09753
3.78869
0.329533
-3.12818
6.19097
-3.06279
-5.05744
2.52761
3.55947
4.53835
-4.78951
2.44761
2.3419
-1.23004
4.24676
0.941784
4.41239
-6.93464
4.71469
5.80247
3.23275
-6.16115
0.998537
-5.93611
8.54667
-7.37078
-1.17589
4.16603
4.38064
7.06235
5.45238
-5.67311
12.7355
-1.20131
-6.16948
7.13741
-3.90466
4.84536
-8.75001
-10.2977
4.12826
-9.13039
10.9039
-1.77348
-3.62043
-8.32675
12.7508
-1.20388
-11.5469
8.56197
-4.27502
-4.37263
8.64765
-6.91377
6.93722
-1.99367
-4.94355
-10.0946
-5.69072
10.1916
1.60126
-9.91652
12.2706
-2.69976
4.11284
0.711765
4.13276
3.3011
-5.48693
2.18583
3.61267
-5.60635
2.07924
-7.56616
-6.72561
12.0597
-5.33404
-10.492
-9.50871
-0.983262
2.53592
9.73467
-9.46424
7.42379
2.04045
3.30036
0.590074
-3.37461
-0.405299
0.239518
4.52064
-4.76015
4.03953
4.19736
3.27365
1.24698
3.84538
2.1074
-3.87012
-0.329245
-4.16373
1.48441
-1.74514
-3.69405
5.17845
-4.06757
0.373525
-2.74631
-3.49799
6.24429
-4.58226
3.03559
3.15538
5.08456
-4.91336
1.41537
-2.39271
-2.52065
2.6522
-4.39734
1.99227
3.18618
4.37382
0.561379
5.87228
6.18737
-8.48201
0.547302
11.2276
-9.51211
2.46223
8.57223
-9.88602
0.377305
-8.68277
0.996038
-5.26837
-5.12687
5.1891
-6.9251
-3.56091
6.21083
0.652783
-6.32057
-0.41181
-6.03283
-2.84304
-6.47767
-3.04204
-6.12923
-8.71515
-1.65187
-7.06328
6.73144
-6.67794
-3.43772
7.40342
1.12554
-7.40879
7.30994
-7.48695
7.15939
0.095389
3.6206
4.35734
1.88372
-2.39056
4.27428
-5.11935
7.41328
-8.71204
3.59269
4.19479
-6.758
-4.51725
5.02185
4.01712
5.32038
8.88302
-10.3506
1.46762
-10.6532
11.9859
-1.33272
-16.4129
5.75971
-7.52991
2.43907
0.39693
2.55857
0.544715
2.49821
-3.04293
-2.19407
-2.10548
-2.43696
-3.46613
5.90308
1.09577
-3.52795
2.43218
-3.56777
4.66354
-0.211933
-3.31602
5.27359
-2.77538
5.67052
-3.77971
1.89081
3.43646
5.75298
-2.31651
4.39515
-1.75948
1.92494
-4.24145
-1.54118
-2.96129
5.10357
-3.28301
3.65653
-0.343415
3.99995
-4.04889
0.830614
-0.775243
3.42211
3.64264
4.31539
-3.06841
2.91962
-4.6791
-1.32183
-4.11772
-0.931539
-0.259735
-3.70402
3.96375
5.98095
-6.24068
-5.23379
9.52639
-4.2926
7.69224
-5.38087
-2.31137
-4.25234
-4.38785
3.87748
1.9294
9.62164
0.209426
-5.59029
-4.92694
-3.97741
3.1073
2.14969
-1.75781
3.42665
2.17111
-0.673744
0.430093
0.915614
1.78368
-1.35358
0.316765
1.46691
-0.952833
1.72973
0.80705
-1.84245
0.167461
-1.30943
3.56039
1.10164
-1.99855
0.64497
0.977706
-3.56991
5.04748
-2.67915
-2.36833
6.02518
1.13849
-3.81764
4.37579
-3.96606
2.38562
-3.53073
-1.43202
-5.39808
-3.65007
-2.52379
4.95597
-3.3793
5.48627
1.28257
-5.26399
6.54655
-3.72671
1.65602
-3.05922
3.86627
-0.936833
-2.12239
2.90306
2.84103
-3.06993
0.0280071
-0.16687
2.40928
-2.57615
-0.612935
-2.62787
-4.57346
4.90299
-2.10529
4.5529
2.16899
-1.91695
6.46985
1.80888
-3.72583
-3.24857
-3.70763
-1.38394
3.15442
-0.588798
-4.28079
-5.53235
4.16857
0.243817
-7.06167
7.87386
-0.812188
-4.01482
-0.699868
4.8659
-6.07975
0.473405
-4.00052
3.87334
4.81512
5.05894
-11.3285
-0.218449
-6.18912
1.12374
-7.31286
5.50438
-3.53905
7.66731
-10.3219
6.88422
-9.1964
6.49142
-0.821442
6.24448
-4.05865
2.75577
-8.44648
-6.84522
5.52193
-2.79151
6.23369
-3.15639
9.39008
-5.85615
5.30826
4.08183
-1.02475
-4.15961
-5.2967
4.27195
0.0115585
4.14432
4.98038
-2.87298
4.65113
2.26864
-4.66135
-2.1287
-6.49493
1.83358
-3.33955
-1.92099
3.75457
3.16357
3.75365
1.23392
-3.34835
7.18948
-8.17274
-1.85544
-3.27143
5.27822
-1.00627
3.4065
-6.67793
-1.86187
4.79544
-0.783626
-4.01182
0.847759
-4.40867
1.67522
-6.08389
5.24988
-5.66169
2.2218
-9.75171
-5.18699
-5.14445
-2.25861
-5.22835
-7.56944
5.31083
-1.80973
5.50021
-8.50488
7.72126
-3.48106
8.79189
-5.42751
-1.05016
5.84454
1.31485
10.1067
0.21778
-4.73503
-1.91644
3.8523
-1.93586
1.19087
-3.48624
0.366062
2.48981
3.53537
-6.76678
0.00878808
-4.72624
-3.91669
7.93381
5.6097
11.5906
1.24001
9.11492
-1.1811
10.3549
4.13928
4.37544
-2.99023
4.45785
0.97352
4.56621
-0.924825
2.81564
1.63374
1.72721
0.693248
2.30413
1.33851
3.13474
0.0918161
-2.01366
4.62099
-8.59839
-0.969307
-8.02532
1.13261
5.70817
-4.57556
2.95318
-0.803489
1.01731
-0.0979496
-1.25584
1.35379
-2.76273
-1.92958
-0.46267
-1.69219
2.33716
1.86821
-1.87449
-0.888246
0.358548
-4.00862
3.17218
-3.14417
-0.303139
6.24342
-2.82277
0.246622
-1.16675
-2.38125
-2.86698
2.69952
6.176
0.293858
3.1132
5.19685
3.09933
0.226349
3.88256
-5.65604
-3.68361
-5.87449
-0.37011
4.49579
1.75679
7.97788
5.83861
4.83234
-1.84559
-10.0183
6.5174
-2.05956
5.18468
-1.17287
-4.91102
5.04588
2.3674
-5.69866
0.0369662
-4.87406
-6.93361
-0.513375
8.23463
-9.59336
8.5432
5.70016
1.36311
-4.4049
-0.739551
4.23911
0.136333
10.4913
-1.12836
-6.72242
7.85078
-4.57981
3.6105
0.749573
2.67708
2.10336
1.29987
-5.42255
-9.99811
-2.05261
-1.5173
-4.42094
0.53734
-2.40555
6.22253
-2.61203
3.91116
5.23875
6.25607
-2.13174
-4.10894
6.42435
-2.51319
3.74288
)
;

boundaryField
{
    wall-4
    {
        type            calculated;
        value           uniform 0;
    }
    velocity-inlet-5
    {
        type            calculated;
        value           uniform -3.75095;
    }
    velocity-inlet-6
    {
        type            calculated;
        value           uniform -5.62643;
    }
    pressure-outlet-7
    {
        type            calculated;
        value           nonuniform List<scalar> 8(3.32498 7.73078 4.43162 9.72062 7.43897 5.15013 5.745 8.97124);
    }
    wall-8
    {
        type            calculated;
        value           uniform 0;
    }
    frontAndBackPlanes
    {
        type            empty;
    }
}


// ************************************************************************* //
