/*--------------------------------*- C++ -*----------------------------------*\
  =========                 |
  \\      /  F ield         | OpenFOAM: The Open Source CFD Toolbox
   \\    /   O peration     | Website:  https://openfoam.org
    \\  /    A nd           | Version:  13
     \\/     M anipulation  |
\*---------------------------------------------------------------------------*/
FoamFile
{
    format      ascii;
    class       volVectorField;
    location    "69";
    object      U;
}
// * * * * * * * * * * * * * * * * * * * * * * * * * * * * * * * * * * * * * //

dimensions      [0 1 -1 0 0 0 0];

internalField   nonuniform List<vector> 
918
(
(0.98516 -0.00050744 0)
(0.00501515 2.96625 0)
(0.00583247 0.886512 0)
(0.979704 0.00214555 0)
(-0.0146792 2.06066 3.30619e-20)
(-0.00704693 2.9488 -2.45791e-18)
(0.819904 1.1637 4.49645e-19)
(0.109023 0.0681081 -1.46895e-20)
(0.999909 -0.000276506 0)
(0.0667828 0.732931 0)
(0.00979549 0.502169 0)
(0.732625 -0.0016733 0)
(0.0110901 2.93039 0)
(0.00268538 2.795 0)
(-0.0178266 3.14902 7.80312e-19)
(-0.018689 1.91853 9.61484e-21)
(0.282985 0.051688 1.01798e-18)
(0.188768 1.14307 3.16523e-19)
(0.962722 0.00501634 0)
(0.0074853 0.474028 0)
(-0.0170693 0.0800279 -6.91262e-19)
(1.00197 -0.00497507 0)
(1.00023 -0.0097844 0)
(0.975739 -0.00643883 0)
(0.598596 0.0278776 0)
(0.0143292 2.64191 0)
(-0.0148592 2.90999 9.03764e-19)
(0.0100737 0.934325 0)
(-0.0169968 1.18113 0)
(0.0106935 0.916959 0)
(-0.0173846 2.59192 0)
(-0.00349931 2.11179 -2.64043e-20)
(-0.0103281 1.89689 0)
(-0.0206107 2.9876 -8.83143e-23)
(-0.0166863 3.00529 1.91025e-18)
(0.00209983 3.00018 0)
(0.871407 -0.00965732 0)
(0.402626 0.933019 1.80451e-19)
(0.805251 1.17787 -5.13428e-19)
(0.956725 1.02353 5.58051e-19)
(0.673687 1.26968 -1.04168e-19)
(0.674552 1.24382 5.99563e-19)
(0.146165 0.122527 1.43306e-20)
(0.136293 0.053773 0)
(1.16093 0.563399 0)
(0.120509 0.0993733 6.50973e-20)
(0.0821547 0.0552518 -6.75493e-20)
(0.919913 -0.00745843 0)
(1.00027 0.000161289 0)
(0.999909 0.000338542 0)
(1.00363 -0.00775915 0)
(1.00096 -0.000918825 0)
(1.00017 3.72268e-05 0)
(0.0731574 1.82612 -7.72102e-19)
(0.0325241 0.946704 0)
(0.0995063 0.813251 0)
(0.0137635 0.895231 0)
(0.0401656 0.650492 0)
(0.00704212 2.015 0)
(-0.00382359 0.793415 0)
(0.0110539 0.512571 0)
(-0.00430318 0.786436 0)
(0.00943034 0.491898 0)
(0.841845 -0.0156782 0)
(0.841387 0.0289708 0)
(0.761429 -0.00424446 0)
(0.801158 0.030513 0)
(0.70202 0.0106203 0)
(0.014686 3.00041 9.10958e-19)
(0.0114947 3.00802 0)
(0.00611417 3.00276 0)
(0.013534 2.99735 1.03326e-23)
(0.00797122 2.95848 -1.35391e-18)
(0.0144932 2.98205 0)
(0.0108553 2.90359 0)
(0.0244668 2.93092 2.06783e-24)
(0.00468342 2.82481 0)
(0.0300979 2.91651 0)
(-0.00507677 2.74537 0)
(0.304905 3.54163 0)
(-0.131601 3.62223 0)
(0.137655 3.23899 -7.26151e-19)
(-0.0135023 2.9773 0)
(-0.0226205 1.98387 0)
(-0.00787437 2.16829 -9.48304e-21)
(-0.0127033 1.92658 3.43667e-21)
(0.34376 0.142044 -3.53554e-19)
(0.313933 0.0297971 -3.4365e-19)
(0.298286 0.14737 -1.05822e-18)
(0.245211 0.0592656 -6.87623e-19)
(0.2293 0.983533 0)
(0.272173 1.29352 -3.67969e-19)
(0.365713 1.2275 6.13713e-19)
(0.987433 0.00857383 0)
(0.941853 0.00582512 0)
(1.0003 0.0005811 0)
(1.00286 0.00930962 0)
(1.00301 0.00847205 -2.74457e-18)
(0.991907 0.00969551 2.07259e-18)
(-0.0100277 0.782945 0)
(0.00930083 0.482712 0)
(-0.0459923 1.00648 0)
(-0.0258003 0.826281 0)
(0.0054476 0.475255 0)
(-0.0377988 0.105164 2.14131e-19)
(0.0610119 0.0667642 0)
(0.993554 -0.00837011 0)
(0.954468 -0.00653226 0)
(0.743981 0.0292549 0)
(0.680582 0.0241509 0)
(0.661601 0.0201516 0)
(0.971482 -0.00728535 0)
(0.592145 0.0727947 0)
(0.452108 -0.00889436 1.541e-18)
(-0.0373968 2.86173 6.66318e-19)
(0.0413451 2.90973 0)
(0.0534556 2.88618 0)
(-0.00445961 2.70056 0)
(-0.013322 2.9852 8.55243e-19)
(-0.0178345 2.89505 0)
(-0.0153777 2.98809 -2.65287e-18)
(-0.013332 2.92518 9.0818e-19)
(-0.026369 1.34452 0)
(-0.00270199 1.37325 0)
(-0.00829368 2.13258 5.14844e-22)
(-0.00745185 2.09394 0)
(-0.0209995 1.90574 0)
(0.93865 -0.00737321 0)
(0.85758 -0.00997936 0)
(0.86331 0.00539523 0)
(0.949631 -0.00780189 0)
(0.884097 -0.00819496 0)
(0.514032 1.12593 -2.27848e-19)
(0.563202 1.17695 0)
(0.367261 0.878026 3.36558e-20)
(0.309939 0.736716 0)
(0.918016 1.06067 -1.53996e-19)
(1.03644 0.870129 3.13472e-19)
(0.358524 1.35472 0)
(0.526192 1.32539 0)
(0.549034 1.26411 0)
(0.121049 0.184887 -3.02377e-19)
(0.172115 0.126353 0)
(0.176849 0.0775626 1.9092e-19)
(1.00734 0.92465 0)
(1.08146 0.778548 0)
(1.10664 0.720142 -2.49549e-19)
(1.14034 0.622847 0)
(1.19094 0.40662 5.73838e-20)
(0.957781 -0.00869233 0)
(0.962526 -0.0100278 0)
(0.901778 -0.00798765 0)
(0.984207 -0.0091436 0)
(0.974719 -0.0093279 0)
(0.937144 -0.00637412 0)
(1.00019 0.00234022 0)
(1.0009 0.0014154 0)
(0.999909 0.00085545 0)
(0.0356406 2.07297 4.2791e-19)
(0.118742 1.76897 0)
(0.0181853 2.18681 6.57626e-19)
(0.0461685 1.88044 -5.48201e-19)
(0.106348 1.14883 -2.59181e-19)
(0.0492103 1.02817 0)
(0.142928 0.97959 0)
(0.00565417 0.850455 0)
(0.0174582 0.585596 0)
(-0.00101888 2.24223 -8.16145e-22)
(0.0160996 2.01917 0)
(-0.00195322 2.24479 -2.87439e-20)
(0.00861342 2.02457 4.43045e-20)
(-0.000301591 0.825185 0)
(-0.00361407 0.807266 0)
(0.0118029 0.538349 0)
(-0.00885144 0.783323 0)
(0.00597523 0.482939 0)
(0.93859 0.00983098 0)
(0.850465 -0.0145999 0)
(0.927737 0.000460621 0)
(0.842706 -0.0128711 0)
(0.811727 -0.0028757 0)
(0.897834 0.0235099 0)
(0.873617 0.0272158 0)
(0.787129 -0.00569532 0)
(0.00577384 3.06494 -8.48609e-21)
(0.0167124 3.05768 0)
(0.0147121 2.96902 0)
(0.00872406 2.8762 0)
(0.920362 3.95379 0)
(1.23369 3.2874 9.26059e-19)
(0.069184 3.06953 0)
(-0.0291371 2.90217 0)
(-0.00963994 1.39593 0)
(-0.0262863 1.69582 0)
(-0.0151053 1.53113 0)
(-0.0293245 2.55288 -1.21361e-20)
(-0.0135939 2.24567 0)
(-0.019303 2.39181 0)
(0.000310317 1.95211 8.31163e-22)
(-0.00413769 2.24099 -7.96338e-21)
(-0.00615932 2.20286 -3.64993e-21)
(-0.00692997 1.93845 0)
(0.396935 0.124283 5.40207e-19)
(0.362684 0.0187928 -5.301e-19)
(0.258757 1.58512 0)
(0.277588 0.756625 -3.15697e-19)
(0.177002 1.67237 -1.04812e-18)
(0.225939 1.22007 1.05041e-18)
(0.901985 0.00635463 0)
(0.967382 0.0111391 0)
(0.974533 0.0108166 0)
(0.923279 0.00640612 0)
(-0.008773 0.780475 0)
(-0.00947997 0.778284 0)
(0.00494427 0.478649 0)
(0.110386 0.0831746 6.02629e-19)
(0.0999444 0.0699659 -7.13475e-19)
(0.065698 0.0525465 0)
(1.0998 0.0865077 2.70323e-20)
(1.08188 0.0396581 0)
(1.01374 0.0401315 0)
(0.907655 -0.00536218 0)
(0.45013 0.104561 0)
(0.509889 0.0872925 -2.46238e-18)
(0.407219 0.0122195 9.20824e-19)
(0.00873742 2.98112 7.16541e-19)
(-0.0322693 2.86558 4.76952e-20)
(0.00358453 3.05027 -1.79707e-20)
(0.0202186 3.04334 6.39004e-19)
(-0.0150109 2.99658 2.98285e-20)
(-0.0129258 2.94946 -1.2005e-22)
(-0.0172542 3.01194 -5.52269e-19)
(0.01485 3.02384 3.99784e-19)
(0.00737317 3.03681 -6.3284e-19)
(0.934115 -0.00117494 0)
(0.93955 -0.00317002 0)
(0.84611 -0.0094565 0)
(0.956502 0.0119364 0)
(0.942573 0.013341 0)
(0.881571 0.0057866 0)
(0.916087 0.0184965 0)
(0.925557 0.0154131 0)
(0.838474 0.00125249 0)
(0.716462 1.40303 3.9609e-20)
(0.74976 1.51166 0)
(0.181311 0.315123 7.06078e-20)
(0.228719 0.668996 5.68347e-19)
(0.262392 0.720409 -3.32122e-19)
(0.262941 0.52094 6.60901e-19)
(0.346186 0.811274 1.59132e-18)
(0.140642 0.230198 3.75686e-19)
(0.254245 0.149235 7.27491e-19)
(0.211687 0.143898 1.88601e-19)
(0.212097 0.0695261 3.57167e-19)
(1.17996 0.464637 6.4668e-20)
(1.19541 0.257325 5.99122e-20)
(0.0103024 2.23542 2.53096e-19)
(0.0404325 1.94864 0)
(0.97099 0.0294412 0)
(0.943563 0.0139929 0)
(0.869363 -0.017848 0)
(0.0112379 3.07413 0)
(0.0196331 2.94414 1.16929e-18)
(0.0164167 2.95624 0)
(0.00646474 2.85054 -1.15972e-18)
(0.00639943 3.09151 2.83604e-19)
(0.00715838 3.08259 0)
(0.782558 1.81304 -1.5867e-19)
(1.24157 2.4884 4.03062e-19)
(0.764513 1.95233 -1.22838e-18)
(0.0195379 2.98026 -6.16871e-19)
(0.0351387 2.99894 0)
(-0.0346701 2.87618 0)
(-0.00410181 2.22431 -1.30752e-20)
(-0.00351713 2.2454 1.2142e-20)
(0.00234967 1.9867 -7.24477e-21)
(0.278203 1.39445 1.02469e-18)
(0.238989 0.551142 -7.02614e-19)
(0.0638233 1.99776 7.62296e-19)
(0.135249 1.88406 -9.09971e-19)
(0.180137 1.51161 9.49902e-20)
(0.00414104 3.11793 -1.68503e-18)
(0.0159186 3.11818 1.80717e-18)
(-0.00925199 2.98064 7.86977e-19)
(-0.00353795 2.97715 -7.44157e-19)
(-0.0213357 2.88114 -8.01516e-19)
(0.00862049 3.09867 -2.10666e-18)
(0.00183137 3.10688 2.06411e-18)
(0.28228 0.695431 0)
(0.248498 0.684353 -1.1814e-18)
(0.0959713 0.225194 5.24486e-19)
(0.35784 0.938387 1.11275e-18)
(0.195769 0.276229 -1.71561e-18)
(1.18675 0.175365 6.26248e-20)
(1.19582 0.312023 0)
(1.17515 0.122997 -5.88049e-21)
(0.00151391 2.25393 -1.46634e-21)
(0.00498863 2.24534 0)
(0.0247571 1.98445 0)
(0.340052 1.30332 -3.67918e-19)
(0.374855 1.15023 -7.9993e-19)
(0.210433 0.378223 1.42629e-18)
(1.00588 -0.0108272 0)
(1.00767 -0.00763321 5.06299e-19)
(-0.0236694 1.32541 0)
(-0.0388068 1.32502 0)
(1.00221 0.00351475 1.81174e-21)
(1.00366 0.00947087 1.03378e-18)
(-0.0203544 2.53719 1.53849e-20)
(-0.0246969 2.57933 0)
(0.0343478 3.17686 4.06928e-19)
(0.390244 3.48367 0)
(1.17586 0.664337 -5.6864e-20)
(1.01285 0.0131463 -2.13416e-21)
(1.02135 -0.0102807 0)
(1.0017 0.000130821 7.8288e-23)
(0.11354 1.37073 0)
(0.1435 2.56796 0)
(0.0273626 1.31217 0)
(0.000199529 2.61936 2.77329e-20)
(-0.0209061 2.57659 3.21059e-21)
(0.998543 0.0301643 2.2962e-21)
(1.06319 0.00471302 0)
(1.09776 0.0252189 0)
(-0.0280925 1.73844 0)
(-0.0182895 2.5787 0)
(-0.00542193 1.31289 0)
(0.311327 1.48208 -1.68085e-19)
(1.01131 -0.00961348 0)
(1.0094 -0.0149142 0)
(1.00237 0.000754293 6.47036e-19)
(1.00547 -0.00479878 -7.60499e-19)
(1.00118 -0.000967903 0)
(-0.0140072 1.46382 0)
(-0.00702505 1.37535 0)
(-0.00660018 1.42094 0)
(-0.00936122 1.30049 0)
(-0.0190117 1.2875 0)
(-0.0100677 1.27062 0)
(1.03507 -0.00601416 0)
(1.01954 0.0154941 -8.6216e-22)
(0.821812 1.27381 2.60868e-19)
(1.00224 0.000320808 -6.44608e-19)
(1.00406 0.00526297 7.54631e-19)
(1.00118 0.00207613 0)
(1.01272 0.0103659 6.41493e-19)
(1.00798 0.00831546 -7.77269e-19)
(1.00856 0.0146979 0)
(-0.023587 2.60663 0)
(-0.0257954 2.58659 -2.03777e-20)
(-0.0231671 2.60033 1.43738e-20)
(1.23817 0.268397 5.7965e-19)
(1.16278 0.0872809 0)
(0.0402346 3.07824 -9.09616e-19)
(0.0649242 2.85678 -6.61738e-20)
(0.138675 3.19214 1.39295e-18)
(0.134011 3.21975 -1.9654e-19)
(0.133279 3.2307 0)
(0.0190285 3.13716 2.34819e-19)
(0.0742618 3.16016 8.97038e-19)
(0.067289 3.18503 -4.42699e-19)
(0.0215187 3.13013 0)
(0.578532 0.282713 0)
(0.514317 0.302604 0)
(1.14742 0.700425 1.28942e-19)
(1.14098 0.821852 -1.12319e-19)
(1.20378 0.58727 0)
(1.23143 0.521657 0)
(1.01603 0.0133819 -1.19576e-18)
(1.01498 0.0142795 1.50106e-18)
(1.0254 -0.00979533 0)
(1.02346 -0.0118432 0)
(1.00642 0.00264242 0)
(1.01041 0.00374963 0)
(1.00458 0.00186836 0)
(1.00978 0.00625678 0)
(1.00781 0.0059677 0)
(1.00451 0.00472288 0)
(0.102418 1.36914 0)
(0.100306 1.33181 0)
(0.131815 1.40522 0)
(0.150617 1.41065 0)
(0.145315 2.5931 0)
(0.185052 2.66339 -4.23231e-19)
(0.101469 2.64824 0)
(0.0853339 2.65123 1.98029e-19)
(0.0389006 2.67399 -1.48315e-19)
(0.0145175 1.32351 0)
(0.0214849 1.24584 0)
(0.0189718 1.3337 0)
(0.0386057 1.27071 0)
(0.00423712 1.98297 3.94614e-21)
(-0.0198519 2.60431 -1.97565e-20)
(-0.00808309 2.66062 1.29416e-20)
(-0.0177347 2.67996 0)
(-0.0226649 2.6101 -3.3627e-21)
(-0.0225122 2.60508 1.36422e-20)
(0.0131408 1.98132 2.0767e-22)
(-0.00708394 2.39192 2.65049e-20)
(-0.0129094 2.41434 -1.46778e-20)
(1.01174 0.0393983 1.21106e-18)
(1.00496 0.0190709 -1.50741e-18)
(1.00417 0.0464558 -1.234e-18)
(0.97713 0.0376499 1.55282e-18)
(1.06441 0.00853732 0)
(1.04951 -0.00819367 0)
(1.09471 0.0354155 0)
(1.07457 0.0131029 0)
(1.0724 0.000623504 0)
(1.14066 0.0837619 0)
(1.11221 0.0449494 0)
(1.11612 0.0327695 0)
(-0.025082 2.43 1.57407e-21)
(-0.0130889 2.01328 0)
(-0.0153089 2.21533 0)
(-0.0202367 2.59924 -1.14733e-20)
(-0.0172884 2.60897 1.98157e-22)
(0.00325554 1.57554 -3.70231e-20)
(-0.00575343 1.50357 3.77266e-20)
(-0.0155474 1.39264 0)
(-0.0189726 1.39921 0)
(-0.0240103 1.39372 0)
(-0.00383215 1.31414 0)
(0.00865622 1.23807 0)
(0.386532 1.49946 2.73541e-19)
(0.429792 1.50021 1.45074e-19)
(0.597468 2.44387 -2.40322e-19)
(0.398095 2.54083 7.07175e-19)
(0.349044 2.05233 7.14612e-20)
(1.02108 -0.00809845 0)
(1.01551 -0.00973854 0)
(1.01492 -0.0155004 0)
(1.0074 -0.00106511 0)
(1.00493 -0.000906017 0)
(1.00778 -0.00467897 0)
(1.00928 -0.00359964 0)
(1.01423 -0.00436056 0)
(1.02028 0.0163819 1.17191e-18)
(1.01761 0.0154388 -1.49587e-18)
(1.02058 0.0185076 -1.18172e-18)
(1.01822 0.0169645 1.47738e-18)
(0.785129 1.32493 0)
(0.721268 1.37532 2.46874e-19)
(0.89748 1.2247 9.83391e-20)
(0.943439 1.16995 -1.30863e-19)
(1.15439 2.59911 2.7996e-19)
(0.766386 0.122596 5.9985e-19)
(1.16394 0.109679 0)
(1.21317 0.195391 -4.66537e-19)
(1.20038 0.155928 -1.98694e-20)
(1.00637 0.15779 0)
(0.12868 2.95826 5.30327e-19)
(0.104788 2.86433 -1.15329e-18)
(0.0117607 2.37489 7.69692e-19)
(0.0985 -0.159841 -3.24802e-19)
(0.335319 3.41399 -2.15521e-19)
(0.191002 3.30867 0)
(0.234626 3.34922 2.80687e-19)
(0.239219 3.03088 -1.77401e-18)
(0.332458 3.18905 0)
(0.00548276 3.12115 4.58645e-20)
(0.0160288 3.12968 -5.40158e-19)
(0.0140043 3.12577 7.94998e-19)
(0.0342123 3.13997 0)
(0.0325911 3.15017 0)
(1.21 2.59653 0)
(0.546913 0.802803 -5.27863e-19)
(1.06721 0.994607 -9.41638e-21)
(1.00208 1.07908 0)
(0.855304 0.974293 -1.09432e-19)
(1.09326 0.895709 2.78708e-20)
(0.307346 0.329965 -8.45721e-19)
(0.654915 0.325102 -1.68079e-20)
(0.548762 0.221775 4.05757e-19)
(0.53963 0.336191 2.96097e-20)
(0.432389 0.273259 -1.18951e-18)
(0.612699 0.32652 0)
(0.713304 0.425612 6.67329e-19)
(0.712112 0.425991 0)
(0.578452 0.341836 0)
(0.501775 0.24653 0)
(0.828672 0.625994 4.09165e-19)
(1.23944 0.290813 -4.8766e-19)
(1.23969 0.429824 0)
(1.24797 0.37017 0)
(0.681781 0.19568 6.20383e-19)
(0.87483 0.554862 -3.73819e-19)
(0.773031 0.52936 6.66245e-19)
(0.96323 0.447496 -7.34744e-19)
(1.01909 0.0149999 8.01922e-19)
(1.01753 0.0143672 -8.08078e-19)
(1.01592 0.015328 0)
(1.03654 -0.00555655 0)
(1.02994 -0.00834557 -7.57276e-19)
(1.02799 -0.0119408 7.49746e-19)
(1.02487 0.0106267 0)
(1.02332 0.0144496 0)
(1.01141 0.00417601 0)
(1.01418 0.00916951 0)
(1.01515 0.00420212 0)
(1.01426 0.00291091 0)
(0.0727549 1.35289 0)
(0.0800503 1.29863 0)
(0.148224 1.38562 7.37138e-21)
(0.281676 1.48063 8.92325e-20)
(0.176881 1.45153 1.87606e-19)
(0.209923 1.45688 -3.05995e-19)
(0.17567 1.41094 0)
(0.136232 1.59985 -7.0319e-20)
(0.118878 1.57845 0)
(0.345215 2.00188 -1.03907e-19)
(0.341635 2.33789 6.14355e-19)
(0.194159 1.46417 6.13033e-20)
(0.268565 1.39667 2.31351e-20)
(0.202662 1.38971 -1.86768e-20)
(0.278262 1.33931 -1.03354e-19)
(0.242465 1.57903 0)
(0.267837 1.6161 1.1242e-19)
(0.0313607 2.25779 -2.89271e-20)
(0.0438356 2.66316 0)
(0.0668513 2.3942 1.35802e-19)
(0.0633294 2.4149 0)
(0.0697127 2.66482 -2.19453e-19)
(0.0493729 2.69343 0)
(0.027736 1.44238 3.4056e-20)
(0.0362017 1.49232 0)
(0.0302858 1.40879 0)
(0.0253358 1.41459 -3.84293e-20)
(0.000848352 2.64694 -1.70257e-20)
(0.0299717 2.69241 1.66486e-19)
(0.0107258 2.71763 1.16934e-21)
(0.00436402 1.83754 -4.24155e-21)
(-0.00130523 1.69179 -3.80267e-21)
(0.0107056 1.30196 0)
(0.0201064 1.22022 0)
(0.0466422 1.59541 -2.75669e-20)
(0.034439 1.47307 -3.39911e-20)
(0.0382762 1.53611 4.2242e-20)
(0.0410006 1.61907 0)
(-0.0292461 2.26871 9.87074e-20)
(-0.030237 2.54618 -4.14757e-20)
(-0.0160114 2.44397 4.27649e-21)
(-0.00260961 1.8533 5.13805e-21)
(-0.0249924 2.4958 2.55981e-21)
(-0.0200233 2.43961 -9.29879e-22)
(1.01841 0.0217068 -8.01033e-19)
(1.01507 0.0278535 8.06467e-19)
(1.01298 0.0163983 0)
(1.01058 0.0709486 1.12719e-18)
(0.991895 0.0600593 -1.26108e-18)
(0.950913 0.0570987 1.40944e-18)
(1.01427 0.112067 -1.50378e-19)
(1.04299 -0.00554049 0)
(1.05141 -0.00114612 7.22187e-19)
(1.03926 -0.00972936 -7.23654e-19)
(1.07201 0.0430428 -4.29403e-20)
(1.0651 0.0242497 3.70361e-19)
(1.06326 0.0570962 0)
(1.05417 0.0503766 -1.33179e-19)
(1.03222 0.0425982 0)
(1.026 0.0395606 0)
(1.02792 0.0137739 0)
(1.02386 0.0163974 0)
(1.04044 0.033421 2.74321e-19)
(1.03887 0.0275528 -6.06605e-19)
(1.0514 0.0346891 -2.9072e-19)
(1.04846 0.0348939 -3.20263e-19)
(1.07179 0.0653938 6.24932e-19)
(1.09722 0.0532574 0)
(1.10639 0.0975072 0)
(-0.0246577 2.27382 5.57101e-20)
(-0.023699 2.01811 1.17485e-21)
(-0.0196421 2.02562 0)
(-0.0269461 2.44264 -5.54572e-20)
(-0.0222969 2.39931 -2.67517e-21)
(-0.0324053 2.47045 5.9791e-21)
(-0.0201396 2.61769 -1.21518e-20)
(-0.022794 2.5597 1.34639e-22)
(-0.0209813 2.51146 -3.40656e-21)
(-0.0154098 2.6118 1.04299e-20)
(-0.0201773 2.61371 -1.12169e-20)
(-0.00571547 1.49829 -6.17584e-22)
(0.00389048 1.62379 -3.52139e-20)
(0.371376 1.44801 -1.15697e-19)
(0.371216 1.38129 3.67188e-20)
(0.661781 1.42581 -2.38831e-19)
(0.528831 1.49287 -1.42656e-19)
(0.587197 1.45839 0)
(0.593202 2.42098 2.06919e-19)
(0.661653 2.41653 3.37529e-19)
(0.411028 2.51028 8.78991e-20)
(0.402191 2.53468 -6.09082e-19)
(0.509864 2.47581 6.13899e-19)
(0.553157 2.45768 0)
(0.487896 2.51519 -5.59187e-19)
(0.248167 2.58728 1.14301e-18)
(0.354604 2.55946 -7.73415e-20)
(0.283798 2.64897 -1.58573e-18)
(0.948069 2.37425 7.27418e-19)
(0.838196 2.37949 0)
(1.01108 0.000533056 2.62496e-20)
(1.01536 -0.00535989 -2.12918e-20)
(1.01768 -0.00346369 -3.88874e-19)
(1.01505 -0.000826736 3.90993e-19)
(1.01246 0.00127722 0)
(0.648273 1.29082 0)
(0.671989 1.18449 0)
(0.785923 1.10289 0)
(0.665087 1.14813 0)
(1.18446 2.61263 5.97754e-20)
(1.07253 2.36 0)
(0.833883 2.1634 3.84465e-21)
(0.823545 2.42976 0)
(0.921647 2.52356 -4.22103e-19)
(0.95688 2.47964 2.80773e-19)
(0.797209 0.184417 0)
(0.738526 0.157366 1.62926e-19)
(0.907196 0.152251 9.47821e-19)
(0.822897 0.156245 -3.55216e-19)
(0.778712 0.0907048 -1.09527e-18)
(1.08307 0.242287 -8.91354e-19)
(1.00048 0.305404 -1.79206e-20)
(0.928364 0.309114 8.5898e-19)
(1.00734 0.235684 7.21498e-19)
(0.948039 0.200003 -1.25373e-18)
(0.910331 0.204427 1.56796e-19)
(0.947026 0.27163 -3.32788e-19)
(0.925623 0.231772 0)
(0.99625 0.19618 6.18384e-19)
(1.04735 0.195117 0)
(1.04494 0.223621 0)
(1.10779 0.121853 2.89715e-19)
(1.07179 0.18191 -1.50609e-20)
(1.0764 0.242202 -1.57754e-19)
(1.10196 0.208054 0)
(1.02288 0.0469226 6.17435e-19)
(1.03931 0.0604115 7.71714e-19)
(1.03416 0.0461041 -6.1313e-19)
(1.04293 0.0681759 -5.17611e-19)
(1.02025 0.0760342 -7.94339e-19)
(0.985151 0.160255 0)
(0.989785 0.10611 0)
(0.965245 0.0751331 -5.01076e-19)
(0.905134 0.0984486 1.99569e-19)
(1.04028 0.108251 7.16103e-19)
(1.06968 0.125465 -8.35676e-19)
(1.0766 0.157837 7.46283e-19)
(1.03133 0.151888 0)
(1.07521 0.11282 0)
(1.05414 0.0935918 -3.42576e-19)
(1.04344 0.0983925 -5.84467e-19)
(0.578925 1.05443 1.40294e-19)
(0.603884 1.37859 -4.17415e-20)
(1.15432 2.72812 -2.28142e-19)
(1.22 3.07053 2.23917e-21)
(1.24608 2.71138 -1.24922e-19)
(1.27453 2.69456 -3.11202e-20)
(1.2019 2.33494 -1.11279e-20)
(1.20768 2.97443 -9.43888e-20)
(1.22781 2.94 2.35706e-19)
(1.21015 3.22335 -1.42416e-19)
(1.36971 2.95423 1.96784e-19)
(1.35833 2.8723 0)
(0.564782 0.8116 -5.03985e-20)
(0.10838 1.22317 5.69718e-19)
(0.558868 0.352472 5.53161e-19)
(0.397957 0.09896 5.9899e-19)
(0.477476 0.313394 6.74725e-19)
(0.546009 0.431649 -1.09295e-18)
(0.547804 0.427728 8.9521e-19)
(0.465289 0.309752 -3.40124e-19)
(0.341878 0.23778 7.67487e-19)
(0.707834 0.270104 -3.58373e-19)
(0.667058 0.292027 0)
(0.60325 0.207732 6.40725e-21)
(0.74426 0.507859 3.62372e-19)
(0.724287 0.478361 -1.31722e-18)
(0.624259 0.445164 1.08611e-20)
(0.620432 0.436177 0)
(0.694221 0.717619 3.96333e-19)
(0.856768 0.779865 3.93823e-19)
(0.780382 0.862344 -4.60868e-19)
(0.902021 0.816937 -1.53769e-19)
(0.933103 0.862341 -3.70699e-20)
(0.940159 0.862037 3.79628e-20)
(0.868787 0.660662 -6.77369e-19)
(0.94857 0.714163 1.42777e-19)
(1.00788 0.729119 0)
(0.998892 0.705675 -1.92798e-19)
(1.03031 0.34589 2.11699e-19)
(1.15026 0.307338 2.8714e-19)
(1.07114 0.279715 3.64259e-19)
(1.01997 0.378344 -4.30166e-19)
(1.0682 0.440594 0)
(1.12419 0.421916 0)
(0.922953 0.382055 1.32654e-21)
(0.839144 0.318166 0)
(0.885609 0.314667 4.06535e-19)
(0.910197 0.31774 -8.17585e-21)
(0.957934 0.451037 2.04681e-18)
(0.919175 0.506384 5.26156e-19)
(0.923731 0.472785 -5.61024e-19)
(0.839064 0.461139 6.0227e-19)
(0.82409 0.454517 3.61096e-19)
(0.795791 0.436429 -3.54829e-19)
(1.02743 -0.000175342 6.47818e-19)
(1.02001 0.000115946 0)
(1.01855 0.00104145 4.22424e-19)
(1.02175 -0.00149506 -9.56898e-19)
(1.02239 0.00456644 4.6487e-19)
(1.0203 0.0116044 -9.73434e-19)
(1.02119 0.0109595 0)
(1.02041 0.0111654 -2.02888e-19)
(1.01593 0.00787967 5.09031e-19)
(1.01657 0.0106746 -2.53991e-19)
(1.01727 0.0100209 1.8704e-19)
(0.0322853 1.32868 0)
(0.0380345 1.38319 0)
(0.0509642 1.32974 0)
(0.0563506 1.27688 0)
(0.0747449 1.40206 -4.96514e-20)
(0.0848098 1.36739 2.24107e-20)
(0.113601 1.54606 -1.49941e-20)
(0.105463 1.38948 -4.3003e-21)
(0.0396758 1.4785 1.97522e-20)
(0.0434855 1.47258 -1.51985e-20)
(0.0672645 1.38897 -1.05324e-20)
(0.0604312 1.39007 4.65764e-20)
(0.0519093 1.36685 6.89338e-21)
(0.0441353 1.38875 3.84095e-21)
(0.10786 2.36219 -1.49979e-19)
(0.0964442 2.41065 0)
(0.170103 2.03621 1.0864e-19)
(0.112778 1.70288 4.02953e-20)
(0.234232 2.03381 -8.97209e-20)
(0.199915 2.42469 0)
(0.262343 2.37466 -6.05896e-19)
(0.302261 2.37239 4.28146e-19)
(0.228286 1.99353 -2.49974e-19)
(0.154541 2.15225 1.69267e-19)
(0.141617 2.2596 0)
(0.0187746 1.87812 6.46486e-21)
(0.00060428 2.38653 -3.29329e-20)
(0.00654849 2.14406 0)
(0.0117888 2.45037 -1.3677e-20)
(0.0292011 2.2932 8.52641e-21)
(0.015521 1.42136 -7.35005e-21)
(0.0126884 1.40264 1.22451e-19)
(0.0124494 1.40943 -4.06806e-20)
(0.021598 1.41489 -3.3912e-20)
(0.0258892 1.44609 0)
(0.00828037 1.39061 0)
(0.000231078 1.29862 -4.77743e-20)
(0.00461384 1.38257 1.3721e-20)
(0.00845609 1.38212 0)
(0.00629395 1.2904 -3.56852e-20)
(0.0167253 1.21068 7.24791e-20)
(1.04086 0.0121845 0)
(1.04708 0.00842038 -6.77581e-20)
(1.0388 0.022457 -4.89027e-19)
(1.04864 0.0212194 0)
(1.05255 0.0210863 0)
(1.03643 0.0123828 -6.85129e-21)
(1.03105 0.0122136 7.86045e-19)
(1.03167 0.0172614 9.52827e-19)
(1.02553 0.0211745 0)
(1.02231 0.0216424 0)
(1.03531 0.026131 4.87612e-19)
(1.02586 0.0279616 0)
(1.02368 0.0281024 0)
(-0.0176986 2.02296 0)
(0.000758489 1.65424 -4.36818e-21)
(-0.00400836 1.76135 -3.07942e-20)
(-0.00149112 1.39042 0)
(-0.0064058 1.55597 -1.94267e-20)
(-0.00902904 1.46669 1.2021e-20)
(-0.00632386 1.40423 0)
(0.388607 1.64301 0)
(0.37387 1.30722 -7.20362e-20)
(0.30071 1.3403 0)
(0.425878 1.30623 7.39472e-21)
(0.476598 1.4705 0)
(0.45696 1.41483 2.47714e-20)
(1.03638 2.67479 -1.53789e-20)
(0.96845 2.40294 -9.14227e-19)
(0.921638 2.19138 1.02559e-18)
(0.852224 2.37141 2.42107e-19)
(0.847773 2.4842 0)
(0.917491 2.48031 0)
(0.931417 2.3678 0)
(0.91038 2.35708 -9.4489e-19)
(0.68668 2.44797 -3.94384e-19)
(0.799858 2.4374 -9.77358e-20)
(0.810205 2.41155 7.42458e-20)
(0.695535 2.38966 0)
(0.800809 2.38501 0)
(0.758941 2.39844 -3.68763e-19)
(0.767435 2.47395 0)
(0.632461 1.09379 0)
(0.480352 0.898642 -5.13806e-19)
(0.568364 0.943198 -3.25041e-20)
(0.519116 1.0329 0)
(0.519552 0.975599 7.69355e-19)
(0.801082 0.885265 -1.29733e-19)
(0.809635 1.02119 0)
(0.784834 0.987534 1.85157e-19)
(0.669286 1.03403 0)
(0.67055 0.935344 0)
(1.16337 2.75135 -2.30354e-19)
(1.14081 2.81466 -9.75923e-20)
(0.92878 2.32846 1.01277e-19)
(0.896588 2.30799 -8.35551e-20)
(1.12899 2.72439 0)
(1.08284 2.69383 1.00521e-19)
(1.0889 2.47789 -3.14113e-19)
(0.98346 2.23105 -3.03643e-20)
(0.492117 1.32945 0)
(0.507941 1.05974 -1.23654e-19)
(0.577109 1.1671 0)
(0.85289 0.25001 0)
(0.758477 0.200378 0)
(0.668049 0.156362 0)
(0.843667 0.252311 -6.399e-19)
(0.730863 0.243617 3.73701e-19)
(0.922015 0.0910899 -4.1144e-19)
(0.925518 0.133318 0)
(0.913831 0.141335 1.77769e-19)
(0.849459 0.119459 7.10666e-19)
(0.813684 0.0805681 -4.45719e-19)
(1.15533 3.34831 -7.17028e-19)
(1.20442 3.2678 0)
(1.15288 3.37733 -1.48662e-18)
(0.641057 3.53889 1.26115e-18)
(0.862548 3.1076 7.08215e-20)
(0.52252 0.797546 6.06169e-19)
(0.423612 0.794963 0)
(0.306727 0.37989 -1.48708e-19)
(0.473722 0.648859 8.56688e-19)
(0.563129 0.355768 -1.94996e-19)
(0.516066 0.463975 2.30658e-19)
(0.675295 0.511377 4.90377e-19)
(0.715297 0.550615 0)
(0.665106 0.573606 0)
(0.63079 0.525384 0)
(1.00925 0.615754 8.80461e-20)
(0.924373 0.556101 -5.12252e-19)
(0.949667 0.587513 3.85812e-19)
(0.980122 0.527618 -3.96723e-19)
(1.08756 0.495794 0)
(1.09603 0.586789 -9.65061e-20)
(0.859546 0.4135 -8.29701e-19)
(0.857927 0.402125 -1.02813e-18)
(0.791381 0.393914 6.31704e-19)
(0.799906 0.382568 -6.41625e-19)
(0.845747 0.339683 -5.19256e-19)
(0.792403 0.337725 6.35035e-19)
(1.02669 0.0061555 -4.93178e-19)
(1.02639 0.00637242 1.00227e-18)
(1.02948 0.000280679 6.27757e-19)
(1.03372 0.0011984 -7.56033e-19)
(1.03384 0.0093613 0)
(1.03009 0.0100681 -1.23087e-18)
(0.0631974 1.63968 1.90207e-20)
(0.052741 1.58977 0)
(0.0904456 1.68836 1.26855e-19)
(0.096859 1.66887 -1.12451e-19)
(0.0937169 1.54718 2.67848e-20)
(0.0934769 1.54838 0)
(0.0124503 1.68845 0)
(-0.00423275 1.49788 7.86901e-21)
(-0.00214833 1.44382 -7.07984e-21)
(-0.00747038 1.5531 5.37447e-21)
(0.00257974 1.88501 1.18017e-20)
(-0.00941325 1.9379 -2.07182e-21)
(0.496844 1.35665 -2.76036e-19)
(0.490388 1.35704 3.03325e-19)
(0.453419 1.30176 -3.15612e-20)
(0.436559 1.28362 7.75051e-21)
(0.640651 1.30854 0)
(0.555746 1.39889 1.04954e-19)
(0.571328 1.40612 -1.02177e-19)
(0.467107 1.29194 3.07785e-20)
(0.522114 1.24121 0)
(0.573718 1.204 0)
(0.653603 2.40755 5.79361e-19)
(0.669223 2.44918 1.2595e-18)
(0.713717 2.45986 -8.67879e-19)
(0.609882 2.4337 -2.0181e-19)
(0.559736 2.52402 2.83583e-19)
(0.508968 2.49885 -7.56694e-19)
(0.978177 2.37445 -5.73984e-19)
(1.01229 2.38658 0)
(0.925791 2.16947 -6.59558e-19)
(1.05384 2.67288 0)
(1.05613 2.65949 0)
(0.598092 2.25608 -1.2881e-19)
(1.03639 3.15331 1.27038e-19)
(0.90746 3.02371 -2.99914e-20)
(0.263149 0.844542 0)
(0.289315 0.687304 -3.1758e-19)
(0.459594 0.647359 -3.19678e-19)
(0.377992 2.00026 0)
(0.461747 2.77846 -4.92998e-20)
(0.415218 2.54095 0)
(0.717739 0.668041 -8.37166e-19)
(0.802871 0.686727 1.12039e-18)
(0.822612 0.627406 -1.10688e-18)
(0.694492 0.631043 -1.07245e-19)
(0.749837 0.589158 -4.39342e-19)
(1.00038 2.75202 -9.66181e-20)
(1.04141 2.81344 -1.66445e-19)
(0.631312 2.11916 7.01155e-19)
(0.583612 1.68793 -4.99393e-19)
(0.693266 1.88777 -4.08325e-19)
(0.986484 2.43593 -1.1286e-19)
(0.99359 2.42885 2.97324e-19)
(0.648834 1.82077 2.83761e-20)
(0.440331 1.30868 1.4486e-19)
)
;

boundaryField
{
    wall-4
    {
        type            noSlip;
    }
    velocity-inlet-5
    {
        type            fixedValue;
        value           uniform (1 0 0);
    }
    velocity-inlet-6
    {
        type            fixedValue;
        value           uniform (0 3 0);
    }
    pressure-outlet-7
    {
        type            zeroGradient;
    }
    wall-8
    {
        type            noSlip;
    }
    frontAndBackPlanes
    {
        type            empty;
    }
}


// ************************************************************************* //
