/*--------------------------------*- C++ -*----------------------------------*\
  =========                 |
  \\      /  F ield         | OpenFOAM: The Open Source CFD Toolbox
   \\    /   O peration     | Website:  https://openfoam.org
    \\  /    A nd           | Version:  13
     \\/     M anipulation  |
\*---------------------------------------------------------------------------*/
FoamFile
{
    format      ascii;
    class       volScalarField;
    location    "16";
    object      p;
}
// * * * * * * * * * * * * * * * * * * * * * * * * * * * * * * * * * * * * * //

dimensions      [0 2 -2 0 0 0 0];

internalField   nonuniform List<scalar> 
918
(
0.231475
0.911596
0.0151068
0.230792
0.000306714
0.878703
-0.839207
0.414564
0.211533
-0.293973
0.0192032
0.202841
0.739345
0.507051
-1.46518
0.0119711
0.369087
-0.729085
0.210246
0.00801917
0.486463
0.218247
0.221235
0.21178
0.269666
0.498416
0.620155
0.00680463
-0.00351422
0.00105468
0.00492534
-0.00257293
0.003609
0.76232
0.813436
0.836101
0.181999
0.0131652
-0.689128
-0.767565
-0.755378
-0.900733
0.403956
0.407522
-0.485022
0.417079
0.432638
0.198999
0.210853
0.211823
0.213004
0.21186
0.213274
0.199568
-0.346521
-0.39794
-0.210833
-0.153574
0.0624039
0.0194921
0.0115769
0.0265863
0.0230117
0.140435
0.199297
0.197779
0.208778
0.21701
0.851145
0.823027
0.849164
0.762998
0.77943
0.717261
0.689753
0.526531
0.548104
0.493561
0.481337
-1.90729
-2.87729
-0.864427
-0.604857
0.00129254
0.0181091
0.0230885
0.353549
0.361197
0.361999
0.374922
0.788026
-0.716927
-0.837878
0.210211
0.209124
0.217994
0.218643
0.214656
0.213772
0.0142679
0.0192548
-0.00119985
0.00572381
0.00545343
0.46658
0.46376
0.212264
0.209172
0.225033
0.247108
0.237065
-0.0165115
0.28288
0.30635
0.300519
0.47763
0.477282
0.483953
0.593668
0.55724
0.657237
0.680477
0.0100542
0.0026122
0.00936935
0.007698
0.00957745
0.176753
0.170525
0.193286
0.18448
0.186436
-0.0676407
-0.203272
0.0943861
0.112708
-0.589822
-0.660253
-0.784607
-0.787359
-0.909632
0.209148
0.389177
0.393766
-0.498529
-0.415489
-0.565385
-0.341344
-0.414194
0.190321
0.19681
0.19197
0.206364
0.20088
0.20282
0.215202
0.212243
0.213778
0.233491
0.32672
0.118431
0.132156
-0.599944
-0.460761
-0.561724
-0.0942236
-0.0674134
0.0662075
0.0731718
0.052447
0.0493764
-0.0332982
0.00271378
-0.0172898
0.0245661
0.0236594
0.134094
0.125242
0.149213
0.155655
0.190785
0.191922
0.195105
0.194351
0.640345
0.662797
0.670349
0.643948
-3.8853
-6.70365
-0.271879
-0.127723
0.00239128
0.00289742
0.00120004
0.00410706
0.0035035
0.0016069
0.0292085
0.0274731
0.0255681
0.0283545
0.338019
0.343819
0.738584
0.726341
0.704422
0.678309
0.198474
0.200555
0.20595
0.201727
0.0239877
0.0211215
0.0243443
0.4314
0.450188
0.449831
-0.0505437
-0.139434
0.0312559
0.0582353
0.324836
0.310126
0.327588
0.365654
0.403931
0.687887
0.706268
0.704507
0.712969
0.756921
0.773249
0.738693
0.160318
0.167738
0.163881
0.197909
0.194598
0.195594
0.190824
0.192774
0.189982
-0.35757
-0.745681
0.160898
0.170198
0.148782
0.151491
0.293549
0.380339
0.369649
0.378947
0.382456
-0.275988
-0.343577
0.113601
0.112094
0.0827752
0.113475
0.0972722
0.611645
0.571907
0.621907
0.59527
0.556624
0.582673
-0.699288
-2.22694
-1.33063
0.240155
0.0435066
0.136245
0.0456022
0.0297257
0.0374242
0.683995
0.761237
0.39725
0.574406
0.534811
0.443038
0.47377
0.531227
0.455724
0.490985
0.526514
0.505329
0.16604
0.160661
0.141428
0.464752
0.523678
-0.165412
-0.213004
-0.271583
0.0762434
0.0918246
0.0954596
0.728686
0.59199
0.683526
0.209185
0.209843
0.0137652
0.0250374
0.213951
0.214095
0.00760393
0.00838481
0.114708
-1.1795
-0.169935
0.202427
0.19273
0.20942
-0.36422
0.242716
0.0127289
0.0792733
0.0510922
0.201676
0.150506
0.116361
0.00721127
0.0180333
0.013995
-0.546138
0.206856
0.205167
0.209039
0.210002
0.210731
0.00870832
0.0115097
0.00771261
0.0119487
0.0123978
0.00957011
0.176287
0.189704
-0.487012
0.209053
0.211254
0.211082
0.204431
0.209779
0.207783
0.0157387
0.0102631
0.00987472
-0.0648724
0.0500788
0.374024
0.488421
0.320514
0.0942345
-0.150712
0.269923
0.339178
0.234956
0.404998
0.37199
0.401475
-0.111283
-0.258443
-0.103807
-0.159993
0.199871
0.198789
0.191197
0.189503
0.204631
0.202821
0.207112
0.204214
0.206805
0.20811
-0.286126
-0.209116
-0.418009
-0.46481
0.164356
0.356088
0.116024
0.104257
0.121366
0.0177849
0.0226539
0.00967413
0.00705157
0.037418
0.050966
0.073887
0.0553865
0.0510556
0.0329202
0.0344391
0.0437036
0.0442984
0.196397
0.193718
0.200888
0.207776
0.157674
0.161057
0.132543
0.147886
0.138173
0.0824703
0.114169
0.0933888
0.00830134
0.00836811
0.00595692
0.0211523
0.0250121
0.0133538
0.0106693
0.0144335
0.0119023
0.0105432
0.0164433
0.0192496
-0.517095
-0.60643
0.667547
0.552014
-0.272675
0.195768
0.202219
0.198785
0.203998
0.207122
0.207746
0.205491
0.202399
0.190374
0.192689
0.188459
0.188194
-0.428644
-0.564799
-0.382904
-0.448518
-0.178837
0.314736
0.0613444
0.00278154
-0.00151882
0.206944
0.57376
0.387986
0.44097
0.467534
-0.678775
-0.278568
-0.608333
0.00216119
-0.173895
0.374972
0.427591
0.450235
0.396356
0.344296
-0.435435
0.202799
-0.357715
-0.320822
-0.129493
-0.229082
0.418811
0.355871
0.36405
0.389288
0.412299
0.365291
0.345735
0.34484
0.379881
0.384843
0.178355
-0.0308432
-0.0783512
-0.113098
0.34127
0.219994
0.275284
0.194025
0.194658
0.198019
0.196819
0.180799
0.186987
0.182027
0.188046
0.190468
0.200366
0.199916
0.19587
0.198371
-0.126313
-0.0847834
-0.377528
-0.525689
-0.507561
-0.544046
-0.477619
-0.575403
-0.449993
-0.297257
-0.00562636
-0.662106
-0.542976
-0.571573
-0.539007
-0.478125
-0.439848
0.059884
0.133826
0.0648756
0.107584
0.133357
0.143865
0.0244778
0.0203033
-0.0042079
0.0140609
0.0698398
0.078238
0.0923182
0.0359704
0.0327981
0.0229063
0.0224187
-0.00923689
-0.0172296
-0.006231
-0.00136879
0.0211311
0.0226244
0.0265776
0.0341414
0.033859
0.0393077
0.18859
0.189911
0.189346
0.203093
0.213616
0.228099
0.197804
0.175519
0.168436
0.169211
0.147749
0.154364
0.152669
0.162714
0.180818
0.188269
0.185961
0.188699
0.175131
0.176308
0.163092
0.167022
0.148764
0.131472
0.120915
0.0171001
0.0111878
0.0136561
0.0144113
0.010514
0.0119547
0.0373809
0.0307747
0.0348378
0.0286306
0.0301949
0.0176603
0.0173117
-0.450847
-0.396973
-0.518129
-0.54484
-0.617056
0.568446
0.689884
0.491291
0.293237
0.300229
0.522372
0.651848
0.310329
0.368007
0.485576
0.183336
0.488353
0.200815
0.200937
0.198587
0.197808
0.198533
-0.33723
-0.237552
-0.226267
-0.17247
-0.0542172
0.0592715
-0.0609382
-0.131547
-0.000382402
0.0148923
0.310012
0.325381
0.269006
0.294951
0.293775
0.121961
0.197391
0.248867
0.206399
0.247597
0.268767
0.234218
0.261292
0.209845
0.170533
0.169897
0.118707
0.13512
0.113345
0.0983926
0.191071
0.171003
0.18046
0.172478
0.192188
0.219813
0.214652
0.237964
0.252139
0.180318
0.141769
0.151226
0.178512
0.140515
0.152699
0.165622
-0.134477
-0.227759
-0.144686
-0.423096
-0.327579
-0.344963
-0.388448
-0.359447
-0.0722725
-0.771942
-0.736547
-1.37305
0.140327
0.60701
0.369813
0.337549
0.407846
0.382529
0.382567
0.417653
0.426858
0.331999
0.349278
0.351615
0.308374
0.333453
0.358816
0.358865
0.1827
0.0695582
0.0560194
0.0268658
-0.0953691
-0.0641581
0.142564
0.0645505
-0.00855237
-0.00282156
0.158173
0.0546738
0.11436
0.151217
0.0854407
0.0431905
0.23149
0.301728
0.291499
0.265128
0.185994
0.199385
0.22215
0.254197
0.281737
0.319146
0.189613
0.19266
0.194634
0.19304
0.188608
0.191947
0.19205
0.194226
0.195236
0.197842
0.196929
-0.00506545
-0.0137621
-0.0569345
-0.0261755
-0.254484
-0.293765
-0.370994
-0.325296
-0.0242814
-0.0547343
-0.176953
-0.0923543
-0.0576068
-0.0368884
-0.0505819
-0.0653666
-0.202355
-0.259429
-0.259463
-0.0613915
0.0744898
-0.0241074
-0.324739
-0.215202
-0.16201
0.0172656
0.0547789
0.0482888
0.0425989
0.0425928
0.0273548
0.0239716
0.0215176
0.0251248
0.0254877
0.0217606
0.0217441
0.0223752
0.023183
0.0225746
0.022347
0.176232
0.170701
0.171952
0.167173
0.166696
0.177477
0.181329
0.182853
0.187446
0.189378
0.180972
0.185226
0.187972
0.0258988
0.0214191
0.0237071
0.0220286
0.0219268
0.0194336
0.0194932
-0.117823
-0.295831
-0.237769
-0.352038
-0.449966
-0.406141
0.146024
0.107279
0.132902
0.350727
0.215369
0.106251
0.181467
0.3048
0.00578434
0.178417
0.0223455
0.553477
0.421905
0.569882
0.224794
-0.101723
0.0472977
0.0934877
-0.097584
-0.0140998
-0.00357644
-0.114721
-0.0803078
-0.0513422
0.0427414
-0.0802269
-0.117883
-0.367834
-0.197354
-0.03962
-0.0602329
0.0708962
0.1263
-0.105152
-0.174023
-0.208448
0.296691
0.31845
0.335681
0.305742
0.328655
0.256088
0.246695
0.264104
0.274542
0.269307
-1.10679
-0.817423
-1.76461
-1.08446
-0.634201
0.17203
0.132884
0.4027
0.304484
0.382485
0.366149
0.332251
0.298191
0.303753
0.339393
0.0531653
0.160506
0.137489
0.139255
0.0465353
-0.0161006
0.267112
0.259213
0.300066
0.323383
0.290563
0.324091
0.184931
0.184661
0.187467
0.184133
0.18174
0.183569
-0.0542732
-0.0352543
-0.156527
-0.204346
-0.21524
-0.159101
0.0329782
0.0274868
0.023799
0.0249444
0.030259
0.0323158
-0.159412
-0.198305
-0.311384
-0.217101
-0.33127
-0.395626
-0.416735
-0.335975
-0.237887
-0.239157
0.105113
0.357839
0.197635
0.333342
0.167003
0.20713
0.134389
0.125274
0.153519
0.0373206
0.117335
-0.13319
-0.631163
-0.542521
0.412461
0.438475
0.22901
0.0377209
-0.188581
0.00223212
0.215705
0.157342
0.198308
0.263502
0.258792
-0.340108
-0.26573
-0.0276665
0.195411
-0.103999
-0.115792
-0.1257
0.047256
-0.0113375
)
;

boundaryField
{
    wall-4
    {
        type            zeroGradient;
    }
    velocity-inlet-5
    {
        type            zeroGradient;
    }
    velocity-inlet-6
    {
        type            zeroGradient;
    }
    pressure-outlet-7
    {
        type            fixedValue;
        value           uniform 0;
    }
    wall-8
    {
        type            zeroGradient;
    }
    frontAndBackPlanes
    {
        type            empty;
    }
}


// ************************************************************************* //
