/*--------------------------------*- C++ -*----------------------------------*\
  =========                 |
  \\      /  F ield         | OpenFOAM: The Open Source CFD Toolbox
   \\    /   O peration     | Website:  https://openfoam.org
    \\  /    A nd           | Version:  13
     \\/     M anipulation  |
\*---------------------------------------------------------------------------*/
FoamFile
{
    format      ascii;
    class       surfaceScalarField;
    location    "16";
    object      phi;
}
// * * * * * * * * * * * * * * * * * * * * * * * * * * * * * * * * * * * * * //

dimensions      [0 3 -1 0 0 0 0];

internalField   nonuniform List<scalar> 
1300
(
3.75095
5.62643
-6.12022
3.75095
-5.95004
5.62643
-4.53787
4.53787
-1.38957
1.38957
1.8767
1.87425
-3.35287
3.35287
-4.54041
4.54041
-2.75348
2.75348
-5.24642
5.24642
-5.06748
5.06748
4.68352
-4.68352
-4.85781
4.85781
-1.82684
1.82684
-3.71096
3.71096
3.1725
-3.1725
-4.877
4.877
-0.480733
0.480733
-0.55355
4.3045
3.1974
3.1974
-2.47243
2.47243
-4.85107
4.85107
6.2183
-6.2183
9.29924
-9.29924
-3.17902
-3.40436
1.32252
-8.15013
-4.62752
-4.62752
-8.44042
8.44042
-2.81399
2.81244
2.92289
-2.92289
-1.74435
1.74435
-4.50886
-0.0290092
-4.50886
4.49647
0.041398
4.49647
-1.4903
0.100737
-1.4903
4.06971
-4.06971
1.22497
0.164596
1.22497
3.06603
-3.06603
-1.87721
3.75392
1.87374
-1.87169
6.17619
-1.87926
3.75351
-5.13527
5.13527
-3.16362
-0.189258
-3.16362
3.68031
-0.327435
3.68031
-5.2972
5.2972
-4.44873
-0.0916783
-4.44873
4.60593
-0.0655207
4.60593
2.97656
-2.97656
-2.7862
0.0327243
-2.7862
2.70096
0.052513
2.70096
0.353582
5.27285
-5.98001
8.79245
-5.27285
0.0264258
5.20849
0.0379288
5.20849
-5.10588
0.0383991
-5.10588
5.01007
0.0574129
5.01007
4.77544
-0.0919204
4.77544
-4.79804
0.114513
-4.79804
-3.32724
-3.42079
-4.95961
0.101802
-4.95961
-1.86578
0.0389422
-1.86578
1.76739
0.0594486
1.76739
-3.52914
3.52914
-4.13909
0.428125
-4.13909
3.1279
0.0446006
3.1279
1.86866
1.88229
5.61962
-5.61962
2.44712
-4.80656
-0.0704323
-4.80656
-4.95906
-4.34018
4.95906
-0.0820654
-0.798619
0.317886
-0.798619
3.15921
0.0381896
3.15921
2.62743
0.073532
-2.62743
0.155005
3.39472
-3.39472
1.8275
0.644925
1.8275
-5.57208
5.57208
4.94853
0.0615453
-4.94853
0.097455
6.15695
0.0613477
6.15695
-6.19957
-0.0187285
-6.19957
3.36852
-6.77288
-3.41556
4.74672
0.111092
-4.74672
0.119202
2.8987
0.0241959
2.8987
-2.90723
2.90723
-2.97438
0.0514832
-2.97438
-2.16725
0.422903
-2.16725
1.41357
0.330774
1.41357
-4.38584
-0.123021
-4.38584
-4.41823
0.279145
4.41823
0.0782435
0.891477
-0.891477
-1.60129
0.110991
-1.60129
-4.22016
-0.165683
4.22016
-0.15045
-3.94992
-0.119792
-3.94992
-3.02549
0.0511104
3.02549
0.0405463
3.11208
0.0471296
-3.11208
0.046051
-1.87084
3.75314
-1.88011
3.75385
-4.93835
-0.196919
-4.93835
5.1863
-0.051031
5.1863
3.35361
0.357354
-3.35361
0.18999
4.05586
-0.375547
4.05586
-5.3414
0.0442051
-5.3414
5.22032
0.0768749
5.22032
4.29892
-0.243066
-4.29892
-0.149804
4.66514
-0.0592169
4.66514
3.0271
-0.050534
3.0271
-2.93489
-0.0416715
-2.93489
2.81024
-2.81024
2.8028
0.00744523
-2.8028
0.0165945
-11.1327
11.114
-0.0350584
-11.0977
5.17343
5.17343
4.1985
0.576942
4.1985
-5.00914
0.211103
-5.00914
3.32336
-6.73891
3.41167
-6.73892
3.41475
-11.5649
3.35022
-6.77101
5.10207
-5.10207
5.04258
0.0594911
-5.04258
0.0829685
-1.86108
-0.00470187
-1.86108
-2.92272
-0.606416
-2.92272
4.04427
-0.515128
4.04427
-3.03098
3.03098
-3.08281
0.0518318
3.08281
0.0450835
4.73293
-0.067783
-4.73293
-0.0736388
1.03115
0.19382
-1.03115
0.232532
3.59004
-0.19532
3.59004
-3.21722
-0.177501
-3.21722
-1.83721
-0.023869
1.83721
-0.00970976
-5.81868
0.246606
-5.81868
-11.1907
0.0930543
-11.1528
-6.10651
-6.10651
2.3339
11.1264
-2.90482
-0.0300685
2.90482
-0.00612554
2.97304
0.0579409
-2.97304
0.0658092
-2.84701
0.0367692
2.84701
0.0602222
-2.55769
0.390442
-2.55769
-0.98075
0.98075
-1.16832
0.187574
1.16832
0.24525
1.14547
-0.253996
1.14547
1.70009
0.0672972
-1.70009
0.0988004
-3.84635
-0.103563
-3.84635
5.27565
-0.089352
5.27565
-3.10198
-0.115238
3.10198
-0.0748851
-0.0332995
11.1473
-5.14014
0.0342517
5.14014
-11.2086
11.2429
-3.23885
0.681156
3.23885
0.959652
5.29623
0.275846
-5.29623
0.287094
5.15785
0.0624727
-5.15785
0.0557792
-2.40999
-0.512734
-2.40999
-4.59045
-0.347897
4.59045
-0.546186
-11.4761
-0.200906
11.677
-11.4186
6.01959
0.137359
-6.01959
11.3802
-0.857262
-0.0342151
0.857262
0.123487
1.47262
-0.327149
1.47262
3.75075
-0.160708
-3.75075
-0.0956056
-5.34838
0.00697722
5.34838
-0.0727301
-1.90629
-0.5037
1.90629
-0.433667
-4.26658
4.30477
1.90962
-3.33659
-3.43629
-7.67676
1.85105
1.90209
4.29816
-7.14809
-4.41679
-7.02889
7.27547
-6.98837
-9.30316
9.21124
7.44673
-7.56652
-5.77864
5.82372
6.48152
-6.44097
1.8788
1.87512
6.74803
-6.93729
-15.0566
14.8597
9.71551
-9.80719
11.6529
-11.6087
-12.8693
12.9318
-5.75195
5.78467
-6.6291
6.58743
-6.79694
6.72206
-3.28257
-3.45634
9.23879
-9.13699
11.712
-11.7825
-7.62329
8.05141
3.38318
0.921587
3.43031
-1.88158
3.76038
-1.87193
3.78155
3.41932
-6.70189
3.3196
-6.75589
6.08345
5.62857
-6.00138
-1.67538
-5.84772
5.87192
-5.82312
5.88334
8.96281
-8.99182
-1.88588
3.761
-1.86797
3.77006
-3.42348
-2.35516
3.37888
0.919279
5.65195
3.58684
-5.76305
-1.26584
-7.65449
7.49378
-7.95965
7.78215
-0.45894
5.82898
-5.37004
4.39213
-1.55473
7.38371
5.72074
5.93184
5.86889
-5.59305
1.11948
-6.48952
-6.39207
-2.66046
2.77145
2.67577
-2.51118
5.87711
1.56961
5.72666
-5.47066
-2.09586
-5.57422
3.81518
2.00855
3.86701
4.05623
2.42529
4.10734
3.02825
-3.03663
0.00837412
-3.05855
6.08681
0.724375
-5.41371
-4.49443
4.99832
1.74971
4.67089
-4.49372
-2.44357
-4.30373
-9.62828
-5.42832
-9.97618
8.90847
5.95122
8.85743
-9.3485
9.27577
6.60854
3.10697
6.54302
-6.12995
-3.67724
-6.27976
10.6215
-2.07537
-8.5461
-7.41541
-5.45387
7.33854
4.3144
7.75934
5.17242
7.81512
3.40875
7.21272
-7.72315
2.26928
-3.84994
-1.90201
-3.83335
3.74405
2.04062
3.79656
-4.12844
-2.50066
-4.15851
-4.19669
-2.60026
4.24722
2.34021
-4.30517
-3.65448
4.42041
2.30165
3.12681
-7.5436
3.64419
-7.10054
-6.4508
-2.68619
-6.36783
4.18857
2.60213
-6.79071
-2.51331
10.9446
-5.31601
9.2692
-7.24309
-4.53936
-7.31673
-6.62192
-1.00137
-6.34278
-8.85772
8.34499
-9.26006
8.74494
13.4977
-6.76016
-6.73754
-3.97065
-2.47032
3.9246
-0.494295
-3.71037
3.71874
0.0500107
3.83156
4.75315
4.25885
-3.88816
-1.93496
-3.82235
3.84571
2.03763
3.88248
6.70667
2.25614
6.74807
-6.42224
-2.56958
-6.54526
9.09644
-8.67354
2.93766
-2.96153
5.20353
2.57862
-5.00821
-2.64628
6.01404
-3.03791
-2.97613
-12.2374
10.602
1.63543
-4.85373
-0.461601
0.0191316
-5.51554
-3.78762
5.40102
0.530813
11.1328
7.34521
-5.51453
5.76113
6.16244
6.22398
-0.168088
5.84639
-5.16524
5.19598
-2.22312
-2.97287
5.26496
-5.43065
-1.2803
-5.23898
3.95869
0.296017
1.9027
-1.58481
-2.08812
-0.572335
-1.98932
1.62299
1.05278
1.81681
0.950241
1.82121
-2.99708
0.589234
2.40784
-2.04684
-1.92194
-3.55941
-0.89772
4.45713
5.47072
2.02307
-5.37511
-0.199114
2.73394
-2.67449
-0.794958
-2.76446
2.0165
-2.81145
-3.52045
-1.77559
5.29603
-3.36986
-0.452495
3.31191
0.555094
-3.791
-2.05672
3.73951
0.367824
-3.14011
6.25022
-3.11011
-5.07507
2.53189
3.55492
4.54043
-4.79096
2.43812
2.35284
-1.23604
4.81583
-0.144944
4.44028
-5.7035
3.25993
4.78149
3.26993
-5.13884
0.835113
-4.86839
10.5226
-8.10513
-2.41743
6.81929
3.70328
7.79141
5.70628
-5.87031
13.6617
-1.12479
-6.98034
5.99318
-2.72325
5.87051
-8.59376
-11.5768
4.59645
-9.67986
9.71191
-0.0320558
-2.41985
-6.92864
12.0997
-1.83944
-10.2603
7.01799
-5.86236
-4.82347
10.6858
-7.93773
8.5007
-3.33093
-5.16977
-7.55366
-4.05507
7.54669
1.72908
-9.81568
12.085
-2.60296
5.81834
0.724688
5.75912
4.78509
-5.94526
1.16017
3.15264
-6.48357
4.325
-10.2703
-4.99938
9.72101
-4.72163
-7.68557
-6.91691
-0.768655
1.95809
10.1269
-7.13052
5.41014
1.72038
3.34535
0.537138
-3.35279
-0.480554
0.353391
4.45925
-4.81264
4.14995
4.22349
3.38537
1.07388
3.79853
2.07339
-3.7924
-0.366106
-4.05526
1.45501
-1.71505
-3.57455
5.02956
-4.00363
0.429078
-2.67058
-3.51623
6.18681
-4.57258
3.08725
3.16298
5.12487
-4.89177
1.37555
-2.41654
-2.47523
2.62808
-4.34313
1.92633
3.10323
4.22797
0.573492
4.96358
4.75743
-7.56572
0.465178
8.34427
-7.07842
1.77375
6.04136
-7.18389
0.266976
-6.10086
1.07614
-6.39215
-5.71457
5.62241
-6.62378
-2.97135
6.04518
0.70289
-6.12342
-0.21936
-5.89659
-2.96113
-6.40029
-3.15499
-6.10507
-9.0253
-1.6335
-7.3918
6.71149
-6.81672
-3.15946
7.36291
1.38203
-7.2988
7.26458
-7.33893
7.01179
0.0946194
3.62412
4.35347
1.88316
-2.38808
4.27124
-4.96263
7.21877
-8.41211
3.44948
3.99305
-6.56263
-4.41906
5.01187
4.08457
5.34265
8.92098
-10.7
1.77903
-10.9533
12.0922
-1.1389
-16.6899
5.73663
-7.76891
2.69336
0.244297
2.68866
0.669011
2.39963
-3.06864
-2.29252
-2.30223
-2.25665
-3.28688
5.54353
1.10749
-3.33147
2.22397
-3.40757
4.51506
-0.116796
-3.21467
5.20615
-2.80652
5.45045
-3.52437
1.92608
3.20752
5.47132
-2.2638
4.19535
-1.61673
1.73781
-4.00161
-1.54907
-2.98906
5.02968
-3.19774
3.62682
-0.217046
3.84387
-4.0088
0.970883
-0.623428
3.60006
3.75506
4.10523
-3.03135
2.87251
-4.48924
-1.1291
-3.91574
-0.812514
-0.23669
-3.73889
3.97558
6.14994
-6.38663
-5.30641
9.63424
-4.32783
7.74312
-5.42568
-2.31744
-4.27981
-4.39373
3.88937
1.95702
9.70014
0.202095
-5.62777
-4.96314
-4.00349
3.20701
1.98897
-2.08587
3.7213
2.06674
-0.16404
0.628686
1.18813
1.90271
-1.27402
0.164151
1.73856
-1.42066
2.01196
0.721985
-2.07925
0.089931
-1.3807
3.39719
1.02715
-2.07993
0.805905
1.13404
-3.35715
4.66941
-2.33562
-2.33379
5.80345
1.1844
-3.52002
4.05458
-3.75857
2.29129
-3.18901
-1.22873
-4.98729
-3.41768
-2.42999
4.65397
-3.11354
5.13661
1.13352
-4.93749
6.07101
-3.48477
1.70918
-3.00949
3.73147
-1.03029
-1.97919
2.6965
2.59953
-2.79646
0.0320054
-0.0999607
2.28667
-2.38663
-0.524789
-2.57162
-4.54708
4.9149
-2.14945
4.58757
2.12179
-1.9208
6.50837
1.81275
-3.73356
-3.26232
-3.71481
-1.38071
3.15972
-1.39486
-4.8849
-6.56463
5.12796
-0.687679
-6.93109
9.55582
-2.62474
-5.18138
1.92145
4.89784
-8.11619
1.63262
-3.79119
5.76463
5.61969
4.93201
-11.6803
1.42
-5.72906
2.90593
-8.63499
6.60921
-3.93737
8.53382
-11.1064
7.94692
-9.72436
6.11639
-2.51861
5.63001
-4.46984
2.91609
-6.97115
-5.24207
6.91696
-3.81
7.64165
-4.27287
11.9145
-6.87583
7.01866
4.89586
-1.46913
-5.8476
-6.8624
5.39326
0.156262
5.91538
4.95477
-2.88138
4.58866
2.25513
-4.67167
-2.088
-6.53803
1.86636
-3.37506
-1.90501
3.77137
3.21986
3.757
1.29614
-3.27645
6.84278
-7.61144
-2.12115
-3.59342
6.79582
-1.40255
4.13569
-7.72911
-2.25646
4.80229
-0.587801
-4.21449
1.95787
-4.92922
1.35366
-6.28289
5.27012
-5.48948
2.1645
-9.93341
-5.1343
-5.01081
-2.22199
-5.11694
-7.63027
5.40828
-1.89365
5.37094
-8.65019
8.06239
-3.44198
8.85025
-5.29267
-1.10762
5.72633
1.28545
10.1357
0.179439
-4.5985
-1.80802
3.90355
-2.09553
1.399
-3.55945
0.344097
2.49842
3.30503
-6.45711
-0.10552
-4.70402
-3.91323
7.9978
5.72101
11.871
1.17095
9.23476
-1.23696
10.4057
4.10568
4.35093
-2.94233
4.72136
1.03324
4.48272
-0.839194
2.76528
1.84947
1.88841
0.786082
2.29215
1.46291
3.26304
0.194394
-2.10784
4.65736
-8.66085
-0.970416
-8.08391
1.12733
5.7501
-4.62277
3.11586
-1.12689
1.02033
0.242945
-1.81388
1.57094
-2.72992
-1.97792
-0.239366
-1.52091
2.32681
1.87628
-2.08745
-0.642474
0.270543
-3.68822
2.91847
-2.88647
-0.286931
5.78408
-2.73492
0.348298
-1.02574
-2.22333
-2.79566
2.70573
6.24497
0.263406
3.13485
5.17831
3.12158
0.240205
6.9026
-6.93465
-3.36767
-5.51465
1.09456
5.99241
2.19901
7.92785
7.09487
5.69232
-2.03679
-9.64823
6.56015
-1.83879
5.42125
-1.20676
-5.07612
4.90753
2.31124
-5.61042
0.120948
-4.95518
-6.79396
-0.420294
8.48268
-9.71541
8.60779
5.64666
1.74514
-4.34279
-0.668018
4.15522
0.195714
10.6014
-1.13842
-6.88778
8.0262
-4.61168
3.64127
0.937717
2.78358
2.50865
1.38176
-5.50602
-10.1288
-1.76277
-1.59438
-4.09656
0.36057
-2.23685
6.27432
-2.63305
3.95688
5.39315
6.41348
-2.15183
-4.2348
6.47967
-2.52278
3.8907
)
;

boundaryField
{
    wall-4
    {
        type            calculated;
        value           uniform 0;
    }
    velocity-inlet-5
    {
        type            calculated;
        value           uniform -3.75095;
    }
    velocity-inlet-6
    {
        type            calculated;
        value           uniform -5.62643;
    }
    pressure-outlet-7
    {
        type            calculated;
        value           nonuniform List<scalar> 8(6.12022 5.95004 6.58338 6.82761 6.74803 6.78407 6.73503 6.76496);
    }
    wall-8
    {
        type            calculated;
        value           uniform 0;
    }
    frontAndBackPlanes
    {
        type            empty;
    }
}


// ************************************************************************* //
