/*--------------------------------*- C++ -*----------------------------------*\
  =========                 |
  \\      /  F ield         | OpenFOAM: The Open Source CFD Toolbox
   \\    /   O peration     | Website:  https://openfoam.org
    \\  /    A nd           | Version:  13
     \\/     M anipulation  |
\*---------------------------------------------------------------------------*/
FoamFile
{
    format      ascii;
    class       volVectorField;
    location    "16";
    object      U;
}
// * * * * * * * * * * * * * * * * * * * * * * * * * * * * * * * * * * * * * //

dimensions      [0 1 -1 0 0 0 0];

internalField   nonuniform List<vector> 
918
(
(0.985181 -0.000476474 0)
(0.00500079 2.96626 0)
(-0.00264085 1.63099 0)
(0.979733 0.0021007 0)
(-0.00204374 1.5862 1.49467e-21)
(-0.00702984 2.94878 -1.86573e-18)
(0.848703 1.20162 7.34382e-19)
(0.474103 0.222501 -9.07686e-21)
(0.999913 -0.000314527 0)
(-0.00751601 0.98812 0)
(-0.00102558 1.30918 0)
(0.805426 -0.00714176 0)
(0.0111049 2.93032 0)
(0.00171749 2.79438 0)
(-0.0177804 3.16817 1.09066e-18)
(-0.00590183 1.49963 -1.40207e-20)
(0.57835 0.10164 5.67517e-19)
(0.171375 1.1596 6.62531e-19)
(0.963751 0.00515735 0)
(-0.00390471 1.42756 0)
(0.158844 0.266147 -4.80143e-19)
(1.0017 -0.00508107 0)
(1.00026 -0.00976044 0)
(0.97573 -0.00650995 0)
(0.722665 -0.0267597 0)
(0.018295 2.62974 0)
(-0.0151389 2.91016 6.44335e-19)
(-0.0148238 1.65075 0)
(-0.0138979 1.75545 0)
(-0.0129429 1.64622 0)
(-0.00371909 1.82016 0)
(-0.00231065 1.60604 -1.18272e-21)
(-0.00490673 1.50623 0)
(-0.0206262 2.98758 -6.5237e-23)
(-0.0167063 3.00531 1.45029e-18)
(0.00210705 3.00021 0)
(0.864742 -0.00733658 0)
(0.386334 0.925795 -2.62433e-20)
(0.842787 1.21313 -1.03457e-18)
(0.993204 1.06034 9.70224e-19)
(0.707125 1.30252 -1.72105e-19)
(0.703451 1.28406 9.72651e-19)
(0.500492 0.292193 8.85649e-21)
(0.492096 0.196514 0)
(1.18414 0.57231 0)
(0.471013 0.314406 4.16449e-20)
(0.431253 0.215815 -4.32157e-20)
(0.920171 -0.00692565 0)
(1.00039 7.86013e-05 0)
(0.999924 0.000343093 0)
(1.0035 -0.00779227 0)
(1.00093 -0.00106429 0)
(1.00016 -7.41725e-06 0)
(0.0689385 1.58008 -3.67408e-19)
(-0.0116793 1.0436 0)
(0.0251498 0.906405 0)
(-0.0426799 1.13263 0)
(-0.0282359 1.07178 0)
(-0.00649502 1.5796 0)
(-0.00696849 1.46496 0)
(-0.00852868 1.29358 0)
(-0.00776507 1.50075 0)
(-0.00551773 1.32353 0)
(0.882743 -0.000550858 0)
(0.88988 0.00951297 0)
(0.818253 -0.000517814 0)
(0.882658 0.0142332 0)
(0.790248 -0.00834724 0)
(0.0147058 3.00039 6.82934e-19)
(0.0115342 3.00787 0)
(0.00614139 3.00286 0)
(0.0135536 2.99732 7.61389e-24)
(0.00799916 2.95846 -1.01501e-18)
(0.0145008 2.98207 0)
(0.0107801 2.90364 0)
(0.0254148 2.93019 1.36157e-24)
(0.00400647 2.82487 0)
(0.0318396 2.9152 0)
(-0.00698156 2.74432 0)
(0.309655 3.5665 0)
(-0.132657 3.64832 0)
(0.140144 3.25871 -1.01502e-18)
(-0.0113529 2.99188 0)
(-0.0126608 1.79903 0)
(-0.00466329 1.63791 1.38313e-20)
(-0.00579998 1.51521 -2.21762e-20)
(0.639509 0.164536 -1.95733e-19)
(0.596573 0.0619069 -1.90439e-19)
(0.605297 0.19446 -5.8572e-19)
(0.556048 0.126934 -3.90623e-19)
(0.248001 0.9568 0)
(0.263408 1.28664 -6.46963e-19)
(0.330657 1.27234 1.06389e-18)
(0.988049 0.00843693 0)
(0.943627 0.0061379 0)
(1.00032 0.000560728 0)
(1.00285 0.00930459 0)
(1.00286 0.00838609 -1.08896e-18)
(0.992037 0.00979239 8.22209e-19)
(-0.0155428 1.55586 0)
(-0.00887605 1.41286 0)
(-0.0218358 1.65737 0)
(-0.0182313 1.59199 0)
(-0.00243887 1.45834 0)
(0.232728 0.282738 1.4782e-19)
(0.280106 0.263247 0)
(0.993567 -0.00829335 0)
(0.95436 -0.00675725 0)
(0.856472 0.018127 0)
(0.823366 0.033171 0)
(0.768743 -0.0177481 0)
(1.0144 -0.00573494 0)
(0.769275 0.0483176 0)
(0.637177 -0.0158859 7.60046e-19)
(-0.035156 2.86711 3.24194e-19)
(0.0439266 2.90773 0)
(0.0572041 2.88271 0)
(-0.00538814 2.69585 0)
(-0.013186 2.98522 5.91859e-19)
(-0.0183881 2.89551 0)
(-0.0153963 2.98815 -1.87328e-18)
(-0.0134558 2.92522 6.47074e-19)
(-0.0119959 1.81348 0)
(-0.00928882 1.80865 0)
(-0.00211116 1.636 -2.87501e-22)
(-0.00281284 1.606 0)
(-0.00535174 1.50109 0)
(0.929864 -0.00473453 0)
(0.854588 -0.00559282 0)
(0.858719 0.00958542 0)
(0.942714 -0.00532467 0)
(0.883407 -0.00677562 0)
(0.500816 1.12168 2.25514e-20)
(0.55416 1.17918 0)
(0.343019 0.858088 4.76236e-21)
(0.287783 0.719742 0)
(0.955518 1.09172 -2.79367e-19)
(1.06894 0.897143 5.70559e-19)
(0.432449 1.36304 0)
(0.554485 1.36536 0)
(0.549899 1.30926 0)
(0.0955214 0.125933 -1.16288e-19)
(0.531421 0.269261 0)
(0.515925 0.171336 1.12522e-19)
(1.04015 0.946677 0)
(1.10823 0.791576 0)
(1.13473 0.73695 -4.9594e-19)
(1.16249 0.630196 0)
(1.21334 0.411433 5.99112e-20)
(0.955137 -0.00767088 0)
(0.962244 -0.00926524 0)
(0.902396 -0.00819406 0)
(0.984167 -0.00899441 0)
(0.975052 -0.00915788 0)
(0.936837 -0.00630376 0)
(1.00004 0.00225155 0)
(1.00092 0.00151349 0)
(0.999887 0.000836909 0)
(0.0681854 1.80365 2.1635e-19)
(0.0745177 1.53505 0)
(0.0387542 1.79892 2.76704e-19)
(0.0328735 1.58221 -2.34076e-19)
(0.0977488 1.15375 -5.48583e-19)
(0.0296448 1.04352 0)
(0.121618 0.993743 0)
(-0.045176 1.25497 0)
(-0.0234754 1.18211 0)
(-0.00317492 1.72517 -9.66492e-22)
(0.000403242 1.60802 0)
(-0.00705697 1.70465 -4.43444e-20)
(-0.00872285 1.56438 8.55077e-20)
(-0.0295618 1.36029 0)
(-0.0175044 1.42725 0)
(-0.0135738 1.24871 0)
(-0.0118205 1.52235 0)
(-0.00838387 1.34374 0)
(0.958783 0.0141186 0)
(0.901875 0.00268667 0)
(0.94059 0.00943865 0)
(0.87065 0.00102449 0)
(0.819638 -0.00238971 0)
(0.909129 0.00200186 0)
(0.902516 0.0047746 0)
(0.818354 -0.00488983 0)
(0.00597554 3.06492 -5.99839e-21)
(0.0163363 3.05799 0)
(0.0147199 2.96915 0)
(0.0085783 2.87636 0)
(0.926509 3.98434 0)
(1.24181 3.31322 1.01338e-18)
(0.0714939 3.08431 0)
(-0.0261246 2.91226 0)
(-0.0133397 1.79551 0)
(-0.0140258 1.79582 0)
(-0.0128827 1.79556 0)
(-0.00814863 1.80804 5.06467e-21)
(-0.0121982 1.80511 0)
(-0.0095747 1.80354 0)
(-0.000327192 1.52558 9.89465e-22)
(-0.000730929 1.66515 2.46686e-20)
(-0.00366622 1.65363 2.26589e-20)
(-0.00282752 1.51776 0)
(0.666303 0.118058 2.86922e-19)
(0.610341 0.0273295 -2.79691e-19)
(0.197001 1.48639 0)
(0.294611 0.722456 -2.27481e-19)
(0.106338 1.59271 -7.72564e-19)
(0.183357 1.17756 7.69541e-19)
(0.902992 0.00947438 0)
(0.968504 0.0119845 0)
(0.97548 0.0109149 0)
(0.925894 0.00770438 0)
(-0.0155952 1.53525 0)
(-0.0164427 1.54368 0)
(-0.00932014 1.37439 0)
(0.427991 0.327599 3.81878e-19)
(0.357413 0.307636 -4.64835e-19)
(0.371573 0.238799 0)
(1.13215 0.0828376 -3.10252e-21)
(1.11693 0.0377007 0)
(1.04807 0.0338714 0)
(0.960351 0.00580222 0)
(0.678757 0.0847466 0)
(0.707781 0.0623975 -1.22359e-18)
(0.616872 0.0123323 4.67411e-19)
(0.0100219 2.98273 4.16736e-19)
(-0.0318423 2.86832 4.91353e-20)
(0.003815 3.05026 -1.2965e-20)
(0.0199467 3.0435 4.66237e-19)
(-0.0150243 2.99656 2.15194e-20)
(-0.0129772 2.94941 -8.71306e-23)
(-0.0172933 3.01201 -4.08195e-19)
(0.0147879 3.02408 2.95279e-19)
(0.00729055 3.03678 -4.61272e-19)
(0.935586 0.0081608 0)
(0.932153 0.00272255 0)
(0.856045 -0.000585717 0)
(0.956314 0.0131081 0)
(0.941823 0.0133068 0)
(0.881097 0.00806579 0)
(0.914764 0.00701477 0)
(0.923137 0.01326 0)
(0.832954 0.00490017 0)
(0.712926 1.40929 3.21978e-19)
(0.749415 1.52083 0)
(0.218675 0.363878 2.2842e-20)
(0.170179 0.550024 1.80596e-19)
(0.253349 0.669959 -1.06867e-19)
(0.217466 0.556001 1.96341e-19)
(0.281727 0.670959 6.91071e-19)
(0.111072 0.160642 2.16729e-19)
(0.583675 0.223666 4.20711e-19)
(0.555413 0.246438 1.03738e-19)
(0.536222 0.155705 2.1161e-19)
(1.20112 0.46732 2.92661e-19)
(1.21641 0.259172 3.07017e-19)
(0.0387587 1.7721 1.14348e-19)
(0.0312638 1.59601 0)
(1.0018 0.0259659 0)
(0.970806 0.0169302 0)
(0.926161 -0.000887922 0)
(0.011014 3.0747 0)
(0.0201099 2.94419 7.99334e-19)
(0.0165526 2.95647 0)
(0.00609243 2.85064 -7.92831e-19)
(0.00613624 3.0921 1.89479e-19)
(0.00720343 3.08226 0)
(0.783957 1.82585 -2.38122e-19)
(1.24859 2.50853 6.54602e-19)
(0.766958 1.96699 -1.48913e-18)
(0.021234 2.98525 -3.01055e-19)
(0.0372243 3.00839 0)
(-0.0318332 2.88315 0)
(-0.00353265 1.6697 -5.0158e-21)
(-0.000922638 1.66905 -5.52244e-20)
(-0.000823502 1.53858 -6.88493e-21)
(0.252596 1.3338 7.08616e-19)
(0.263265 0.476346 -4.8961e-19)
(0.0631386 1.77175 4.86276e-19)
(0.0992639 1.69515 -6.18727e-19)
(0.109144 1.39904 9.61274e-20)
(0.00617216 3.11814 -9.95186e-19)
(0.0129583 3.11884 1.08516e-18)
(-0.00873856 2.98073 5.14325e-19)
(-0.00325789 2.97778 -4.538e-19)
(-0.0217086 2.88198 -5.2383e-19)
(0.00862405 3.09892 -1.38631e-18)
(0.00185752 3.10579 1.38817e-18)
(0.208035 0.58418 0)
(0.149368 0.548686 -3.53092e-19)
(0.141625 0.18867 1.55904e-19)
(0.316979 0.800771 6.47227e-19)
(0.174525 0.210972 -9.87903e-19)
(1.21298 0.170531 -5.52357e-20)
(1.21524 0.311021 0)
(1.2002 0.118473 1.20426e-19)
(0.00576998 1.75491 -1.16103e-21)
(0.0275707 1.77485 0)
(0.0128906 1.60517 0)
(0.307534 1.20054 -2.54234e-19)
(0.355893 1.02007 -5.42784e-19)
(0.186563 0.311346 9.20495e-19)
(1.00583 -0.0110355 0)
(1.00771 -0.00776676 1.98618e-19)
(-0.0120434 1.80136 0)
(-0.02146 1.80983 0)
(1.00232 0.00363666 1.90158e-21)
(1.00351 0.00937908 4.08367e-19)
(-0.00770662 1.81149 -6.66728e-21)
(-0.00598027 1.81031 0)
(0.0397808 3.18463 1.04738e-19)
(0.398859 3.50423 0)
(1.10162 0.644914 6.0888e-20)
(1.01167 0.0120809 -2.43194e-21)
(1.02086 -0.0113707 0)
(1.00172 0.000178425 7.58148e-24)
(-0.128816 1.19823 0)
(-0.100939 2.46229 0)
(-0.0598889 1.71417 0)
(-0.0548076 1.93439 6.4013e-20)
(-0.0397132 1.8653 3.86243e-20)
(1.00379 0.00920719 2.35744e-21)
(1.0446 0.0154868 0)
(1.06992 0.0285467 0)
(-0.0152913 1.79691 0)
(-0.0103516 1.82414 0)
(-0.025923 1.79254 0)
(0.308948 1.30498 -4.69651e-19)
(1.01121 -0.00970638 0)
(1.00948 -0.01551 0)
(1.00227 0.00047882 2.50563e-19)
(1.00572 -0.00487555 -2.99308e-19)
(1.00106 -0.000980978 0)
(-0.0172184 1.79501 0)
(-0.0149063 1.79534 0)
(-0.0142051 1.79664 0)
(-0.0247433 1.79442 0)
(-0.0205402 1.79232 0)
(-0.0241251 1.79511 0)
(1.02515 -0.00849818 0)
(1.02114 0.0185726 -1.01111e-21)
(0.796386 1.2638 5.26556e-19)
(1.00305 0.00031371 -2.54227e-19)
(1.00328 0.00575269 3.03827e-19)
(1.00123 0.00204749 0)
(1.01181 0.0103466 2.46684e-19)
(1.00782 0.00812249 -3.05894e-19)
(1.00872 0.0142676 0)
(-0.0102711 1.82403 0)
(-0.00833018 1.81861 1.27228e-20)
(-0.00847964 1.81753 -8.84368e-21)
(1.18225 0.252239 -5.78732e-20)
(1.12165 0.0832545 0)
(0.0570027 3.07935 -5.11604e-19)
(0.0690012 2.8513 -4.14439e-20)
(0.147993 3.20043 7.807e-19)
(0.142514 3.22865 2.30379e-21)
(0.140295 3.24516 0)
(0.021729 3.13881 1.10283e-19)
(0.0811786 3.16353 4.99511e-19)
(0.0743638 3.19083 -2.13524e-19)
(0.0264692 3.12824 0)
(0.695807 0.32544 0)
(0.625518 0.392252 0)
(1.08048 0.674752 -2.37781e-19)
(1.07483 0.808353 3.7396e-19)
(1.13855 0.560996 0)
(1.17135 0.511353 0)
(1.01558 0.0129036 -4.58094e-19)
(1.0135 0.0146993 5.7163e-19)
(1.02428 -0.0125325 0)
(1.01834 -0.0200561 0)
(1.0068 0.00310629 0)
(1.00999 0.00395477 0)
(1.00424 0.00207013 0)
(1.00956 0.00662322 0)
(1.00747 0.00536762 0)
(1.0055 0.00496883 0)
(-0.140872 1.23893 0)
(-0.147166 1.25147 0)
(-0.0536913 1.16708 0)
(0.0680911 1.18635 0)
(-0.0824612 2.56753 0)
(0.0426313 2.59079 -2.52361e-19)
(-0.119017 2.46604 0)
(-0.0913374 2.35705 8.21215e-20)
(-0.0443774 2.08441 -1.21514e-19)
(-0.0490651 1.723 0)
(-0.031614 1.73851 0)
(-0.0791419 1.68364 0)
(-0.0646197 1.63158 0)
(-0.122955 1.86353 -3.00961e-20)
(-0.0512895 1.88381 4.55735e-20)
(-0.0520911 1.92813 5.95944e-20)
(-0.0435479 1.90714 0)
(-0.0370173 1.86401 -8.80927e-20)
(-0.018779 1.85091 -4.43302e-20)
(-0.112027 1.85095 2.39274e-20)
(-0.0738111 1.85981 -6.0783e-20)
(-0.0793048 1.89037 -7.87385e-20)
(1.01208 0.0192079 4.54341e-19)
(1.01154 0.00445982 -5.61715e-19)
(1.00547 0.0192511 -4.70407e-19)
(0.99307 0.0143567 5.99049e-19)
(1.04312 0.020213 0)
(1.0364 0.0085531 0)
(1.06394 0.039639 0)
(1.05143 0.0237288 0)
(1.055 0.0117493 0)
(1.10511 0.0763699 0)
(1.08028 0.048769 0)
(1.08964 0.0362092 0)
(-0.0110417 1.81329 -1.54869e-21)
(-0.0158577 1.8024 0)
(-0.0126467 1.80656 0)
(-0.0102823 1.82884 1.36757e-20)
(-0.0086998 1.83021 -6.02839e-22)
(-0.0211906 1.79837 1.39804e-20)
(-0.0212081 1.79732 -1.41261e-20)
(-0.0251778 1.79727 0)
(-0.0223493 1.79771 0)
(-0.0213699 1.7979 0)
(-0.0260163 1.79125 0)
(-0.0234392 1.78135 0)
(0.450085 1.38585 8.89566e-19)
(0.404164 1.41724 3.27069e-19)
(0.628734 2.4265 -1.61299e-19)
(0.41666 2.57195 4.03772e-19)
(0.537654 2.12881 -1.09809e-19)
(1.02116 -0.00799636 0)
(1.0156 -0.00937345 0)
(1.0163 -0.0147954 0)
(1.00776 -0.000759936 0)
(1.00446 -0.00128061 0)
(1.00726 -0.00481584 0)
(1.00993 -0.00378697 0)
(1.01385 -0.00433005 0)
(1.02249 0.0172128 4.42026e-19)
(1.01534 0.0212471 -5.56637e-19)
(1.02382 0.0158252 -4.40578e-19)
(1.01977 0.0117629 5.51393e-19)
(0.765219 1.29789 0)
(0.690187 1.35648 6.23778e-19)
(0.866815 1.19428 3.61698e-19)
(0.903907 1.16942 -4.80724e-19)
(1.14414 2.61617 -5.30026e-19)
(0.833706 0.105381 2.94463e-19)
(1.12313 0.0963779 0)
(1.16561 0.168854 5.218e-20)
(1.1592 0.152955 2.28254e-21)
(0.973088 0.12335 0)
(0.151847 2.97203 1.07742e-19)
(0.129303 2.87814 -6.46317e-19)
(0.0445988 2.34734 4.77254e-19)
(0.11314 0.122407 -1.98028e-19)
(0.343215 3.43124 -4.47889e-19)
(0.198949 3.32383 0)
(0.239088 3.36852 5.83296e-19)
(0.256512 3.04457 -6.85182e-19)
(0.349636 3.20162 0)
(0.00746256 3.12051 2.63232e-20)
(0.0190484 3.12936 -3.35697e-19)
(0.0165446 3.12517 4.9411e-19)
(0.038332 3.13997 0)
(0.036892 3.15216 0)
(1.2139 2.61401 0)
(0.499375 0.842993 -2.29559e-19)
(1.01538 0.984723 -1.9976e-19)
(0.959164 1.04746 0)
(0.797582 0.954269 5.40397e-20)
(1.03577 0.869604 3.13872e-20)
(0.405093 0.483014 -5.34905e-19)
(0.720673 0.327007 -2.28243e-20)
(0.704048 0.288881 2.2353e-19)
(0.626974 0.425485 1.79415e-20)
(0.57065 0.414467 -7.37056e-19)
(0.704698 0.34921 0)
(0.717789 0.424887 3.73881e-19)
(0.721357 0.417239 0)
(0.671007 0.400872 0)
(0.667814 0.33191 0)
(0.735897 0.59804 1.37143e-19)
(1.1799 0.269297 3.07191e-20)
(1.18017 0.406067 0)
(1.18821 0.361861 0)
(0.764098 0.217834 3.34538e-19)
(0.784157 0.51942 -1.87136e-19)
(0.706428 0.502439 3.0373e-19)
(0.904892 0.397292 -2.87106e-19)
(1.01993 0.0160401 2.9988e-19)
(1.01741 0.0141729 -3.09239e-19)
(1.01372 0.0167044 0)
(1.02404 -0.0124615 0)
(1.02323 -0.0167489 -2.7421e-19)
(1.01646 -0.0215859 2.71006e-19)
(1.03448 0.00612506 0)
(1.02757 0.0149217 0)
(1.01135 0.00417844 0)
(1.01507 0.00823084 0)
(1.0166 0.00384303 0)
(1.01339 0.00134398 0)
(-0.176493 1.35752 0)
(-0.159261 1.39131 0)
(-0.0722479 1.08599 3.76485e-19)
(0.312817 1.28558 2.9092e-19)
(0.148653 1.16494 6.35775e-19)
(0.224441 1.21812 -1.01479e-18)
(0.157902 1.18513 0)
(-0.117699 1.95298 6.75185e-19)
(-0.253732 1.84193 0)
(0.527324 2.23392 1.63712e-19)
(0.424628 2.46421 2.23022e-19)
(0.127679 1.68196 -5.93705e-19)
(0.391228 1.1757 2.93048e-19)
(0.221117 1.15674 -2.30685e-19)
(0.498735 1.23935 6.10662e-19)
(0.379928 1.76929 0)
(0.484107 1.77631 -4.75727e-19)
(-0.235459 2.05417 1.25052e-21)
(-0.067982 2.15449 0)
(-0.251348 2.23029 6.5072e-21)
(-0.227565 2.13846 0)
(-0.0852561 2.31997 -9.29262e-20)
(-0.0477209 2.19177 0)
(-0.123315 1.77303 -1.98924e-20)
(-0.16588 1.82218 0)
(-0.154733 1.70137 0)
(-0.128887 1.72494 2.24426e-20)
(-0.0622226 1.96458 -1.41321e-20)
(-0.0466507 2.05596 1.34688e-19)
(-0.0426069 2.01013 9.15719e-22)
(-0.0662951 1.8264 2.63855e-20)
(-0.0830157 1.81816 1.26438e-20)
(-0.0264928 1.75463 0)
(-0.0208013 1.76036 0)
(-0.236883 1.90351 -2.3765e-21)
(-0.216359 1.7308 -1.81642e-20)
(-0.19722 1.82743 1.88685e-20)
(-0.31723 1.89324 0)
(-0.0175483 1.8184 -5.11897e-20)
(-0.0167524 1.82742 2.43192e-20)
(-0.0170288 1.82808 -7.39568e-21)
(-0.0531577 1.82022 -3.15933e-20)
(-0.0276857 1.84559 -1.18201e-20)
(-0.0369882 1.85367 6.24685e-20)
(1.02307 0.00878063 -2.95214e-19)
(1.02002 0.00881277 2.98738e-19)
(1.01719 0.00157921 0)
(1.00002 0.04505 4.25069e-19)
(0.993741 0.0334481 -4.98155e-19)
(0.967319 0.0244363 5.747e-19)
(0.995473 0.0800074 -5.59853e-20)
(1.02622 -0.00235569 0)
(1.03252 0.0111062 2.48612e-19)
(1.02667 0.000770343 -2.46511e-19)
(1.04048 0.0387043 -1.37724e-20)
(1.04448 0.0274173 1.2158e-19)
(1.03759 0.0507805 0)
(1.03123 0.0407785 -4.56352e-20)
(1.02579 0.0257722 0)
(1.02229 0.0216834 0)
(1.03743 0.00781155 0)
(1.03264 0.00846843 0)
(1.0328 0.0249771 9.49429e-20)
(1.03527 0.0181303 -2.12395e-19)
(1.03413 0.0294806 -9.5936e-20)
(1.03333 0.02901 -1.11291e-19)
(1.0338 0.0571878 2.01165e-19)
(1.0659 0.0521302 0)
(1.06191 0.092083 0)
(-0.0179272 1.81879 -1.99988e-20)
(-0.0169202 1.80663 -1.79728e-21)
(-0.0190565 1.80729 0)
(-0.0127218 1.82004 2.12908e-20)
(-0.0114792 1.81508 3.22397e-21)
(-0.0118433 1.81886 -3.402e-21)
(-0.0139482 1.84722 3.78285e-20)
(-0.0163517 1.83505 -2.62248e-21)
(-0.018846 1.83742 1.30728e-20)
(-0.0077491 1.83616 -1.97264e-20)
(-0.0084662 1.83835 2.4375e-20)
(-0.0252882 1.79997 4.32524e-22)
(-0.0236627 1.80216 2.33517e-20)
(0.524681 1.32327 -4.39664e-19)
(0.535586 1.36422 -4.77886e-19)
(0.649698 1.39214 -6.03111e-19)
(0.523309 1.43587 -3.24672e-19)
(0.538162 1.43323 0)
(0.614192 2.40074 1.31796e-19)
(0.708136 2.35529 2.41085e-19)
(0.425087 2.54301 1.01682e-19)
(0.418197 2.62879 -1.52539e-19)
(0.554122 2.56702 2.83939e-19)
(0.527581 2.46311 0)
(0.533855 2.46861 -3.63909e-19)
(0.113698 2.63494 6.81212e-19)
(0.295206 2.63468 -2.77579e-20)
(0.220014 2.6302 -9.57221e-19)
(0.921395 2.35498 1.92813e-19)
(0.825502 2.3298 0)
(1.01079 -4.38809e-05 1.00428e-20)
(1.01449 -0.0052137 -8.08849e-21)
(1.01624 -0.00378942 -1.46447e-19)
(1.01374 -0.00197931 1.47344e-19)
(1.01302 0.000779897 0)
(0.643973 1.25707 0)
(0.644794 1.15248 0)
(0.740005 1.08049 0)
(0.635704 1.10752 0)
(1.17522 2.63628 4.86887e-20)
(1.05082 2.36338 0)
(0.825767 2.28435 -2.19869e-21)
(0.807715 2.48528 0)
(0.895074 2.57725 -7.17963e-21)
(0.926743 2.53933 4.81158e-21)
(0.838345 0.132997 0)
(0.807819 0.144417 8.47394e-20)
(0.916125 0.124458 4.33337e-19)
(0.862076 0.118349 -1.74379e-19)
(0.856271 0.0737268 -5.21994e-19)
(1.02444 0.210971 -2.53032e-19)
(0.957576 0.275429 -1.5124e-20)
(0.884472 0.271553 3.92222e-19)
(0.962176 0.20659 2.94868e-19)
(0.932711 0.159999 -5.44028e-19)
(0.904727 0.175111 7.01913e-20)
(0.919805 0.239959 -1.38669e-19)
(0.901713 0.19418 0)
(0.96859 0.160513 2.6021e-19)
(1.00055 0.159321 0)
(0.998819 0.191879 0)
(1.0579 0.100793 8.55818e-20)
(1.02004 0.148034 -1.34882e-20)
(1.01662 0.211774 -4.69599e-20)
(1.04902 0.178981 0)
(1.01533 0.0240495 2.26012e-19)
(1.02681 0.0431389 2.67018e-19)
(1.023 0.0275034 -2.23902e-19)
(1.01879 0.0478557 -1.80019e-19)
(1.00325 0.0486169 -2.99742e-19)
(0.976095 0.125498 0)
(0.984032 0.0773817 0)
(0.969148 0.046712 -2.08519e-19)
(0.932631 0.0557516 8.70242e-20)
(1.00081 0.0796075 2.55468e-19)
(1.02246 0.10138 -2.59901e-19)
(1.02856 0.122352 2.36613e-19)
(0.992155 0.121874 0)
(1.03347 0.0906071 0)
(1.01989 0.0774299 -1.08994e-19)
(1.01713 0.079288 -2.04006e-19)
(0.59114 1.06518 -1.02517e-19)
(0.643741 1.44198 2.0583e-19)
(1.16407 2.76517 1.08088e-19)
(1.22423 3.09573 -7.03579e-20)
(1.24229 2.73573 5.44991e-19)
(1.27641 2.71582 -3.3359e-19)
(1.19869 2.34769 -5.77373e-21)
(1.21054 3.00091 1.95517e-19)
(1.22683 2.96872 -2.20335e-19)
(1.2136 3.24781 -2.66999e-19)
(1.37477 2.97768 3.69664e-19)
(1.36778 2.893 0)
(0.501284 0.852184 -1.24002e-20)
(0.161487 1.30049 3.57911e-19)
(0.523509 0.546472 3.54942e-19)
(0.351921 0.318648 3.86099e-19)
(0.566145 0.446607 4.11511e-19)
(0.543992 0.504359 -6.51812e-19)
(0.543976 0.524628 5.33877e-19)
(0.517315 0.483693 -2.13088e-19)
(0.481407 0.427457 4.9454e-19)
(0.771201 0.260115 -1.87153e-19)
(0.739404 0.297255 0)
(0.732395 0.247541 1.11928e-20)
(0.699752 0.517948 1.92859e-19)
(0.684215 0.485123 -7.1032e-19)
(0.611223 0.508094 1.99827e-20)
(0.633523 0.480485 0)
(0.626537 0.737567 1.5031e-19)
(0.776755 0.761221 5.74287e-20)
(0.709912 0.850754 -7.57364e-20)
(0.820376 0.790509 -2.01654e-20)
(0.865459 0.833395 1.34618e-20)
(0.872909 0.836627 -1.37858e-20)
(0.780493 0.629458 -2.33662e-19)
(0.866648 0.684851 1.87383e-20)
(0.930187 0.697213 0)
(0.91971 0.673184 -1.91441e-20)
(0.980904 0.30956 6.44191e-20)
(1.07539 0.278856 1.26863e-20)
(1.00915 0.25513 1.0335e-19)
(0.961802 0.337613 -1.47477e-19)
(0.997706 0.398655 0)
(1.05206 0.394187 0)
(0.883749 0.328693 3.12328e-21)
(0.828022 0.272486 0)
(0.833234 0.269967 2.01544e-19)
(0.883948 0.275691 -8.19381e-21)
(0.893656 0.398271 7.85565e-19)
(0.83974 0.45925 2.02202e-19)
(0.851602 0.424563 -2.51598e-19)
(0.798161 0.413543 2.69624e-19)
(0.783302 0.409707 1.84633e-19)
(0.778597 0.401386 -1.80397e-19)
(1.02526 -0.0127572 2.40088e-19)
(1.0221 -0.00773889 0)
(1.01952 -0.00592459 1.57997e-19)
(1.02402 -0.0106923 -3.57307e-19)
(1.02906 -0.000771344 1.7288e-19)
(1.02429 0.0111372 -3.6614e-19)
(1.02436 0.0143816 0)
(1.02184 0.0130869 -7.65817e-20)
(1.01761 0.00601361 1.90209e-19)
(1.01623 0.00985114 -9.67258e-20)
(1.02038 0.0105697 7.21207e-20)
(-0.10943 1.60323 0)
(-0.184473 1.67371 0)
(-0.157038 1.49103 0)
(-0.098244 1.52581 0)
(-0.331372 1.58246 -5.08127e-19)
(-0.287659 1.40238 1.66053e-19)
(-0.317889 1.85703 1.51293e-19)
(-0.362219 1.62933 -2.25473e-19)
(-0.271791 1.73507 5.27118e-20)
(-0.286719 1.72299 -4.0944e-20)
(-0.304604 1.55523 9.23649e-20)
(-0.286998 1.56068 1.79666e-19)
(-0.238183 1.58588 1.47936e-20)
(-0.234311 1.6419 5.67073e-21)
(-0.264694 2.27225 -2.83672e-21)
(-0.261593 2.38542 0)
(-0.315162 2.29661 -9.37949e-20)
(-0.371787 1.97697 -1.14672e-19)
(0.229792 2.22713 1.0902e-19)
(0.157401 2.62881 0)
(0.203855 2.55395 -5.30499e-20)
(0.303113 2.55385 3.66437e-20)
(0.00138278 2.29154 2.9029e-19)
(-0.15454 2.31137 -1.91349e-19)
(-0.129341 2.57173 0)
(-0.192357 1.92319 -2.67479e-20)
(-0.131116 1.9188 -1.09432e-19)
(-0.148553 1.8901 0)
(-0.13994 2.01299 -3.86969e-21)
(-0.212022 2.01752 2.34674e-20)
(-0.0751388 1.76865 4.70402e-21)
(-0.0480081 1.77322 -6.97176e-20)
(-0.0455666 1.78658 1.98356e-20)
(-0.0758911 1.78905 2.36207e-20)
(-0.105984 1.78506 0)
(-0.0379742 1.78732 0)
(-0.0244129 1.78175 2.49533e-20)
(-0.0286524 1.79327 -7.86057e-21)
(-0.0308997 1.79073 0)
(-0.0230242 1.77149 1.86588e-20)
(-0.0207546 1.7711 -3.71353e-20)
(1.03368 0.0154345 0)
(1.03801 0.0166963 -2.35707e-20)
(1.03913 0.0195012 -1.69548e-19)
(1.03714 0.0203716 0)
(1.03672 0.0220031 0)
(1.04131 0.0100006 -5.65542e-21)
(1.03968 0.0086253 2.85155e-19)
(1.0377 0.010509 3.42702e-19)
(1.03357 0.00944001 0)
(1.02796 0.00683333 0)
(1.03415 0.0166139 1.73013e-19)
(1.02647 0.0106355 0)
(1.0275 0.00857481 0)
(-0.0228053 1.82237 0)
(-0.0248567 1.80248 2.19634e-21)
(-0.022987 1.81444 1.23907e-20)
(-0.0277144 1.79579 0)
(-0.0263568 1.80432 1.57303e-20)
(-0.0262534 1.80108 -7.61675e-21)
(-0.0282049 1.79656 0)
(0.440014 1.67044 0)
(0.540464 1.3426 7.1668e-19)
(0.495882 1.36375 0)
(0.522388 1.36323 -9.18013e-19)
(0.519058 1.3883 0)
(0.53476 1.38064 4.0703e-19)
(1.01902 2.70737 -3.89828e-21)
(0.939664 2.39158 -2.42842e-19)
(0.86468 2.12817 2.97261e-19)
(0.841608 2.32271 1.13685e-19)
(0.831042 2.51121 0)
(0.881878 2.52112 0)
(0.891419 2.34763 0)
(0.895508 2.30535 -4.18344e-19)
(0.718497 2.47614 -7.38731e-20)
(0.798729 2.48375 -2.57011e-20)
(0.791088 2.45988 2.04225e-20)
(0.693544 2.34379 0)
(0.784764 2.33054 0)
(0.750433 2.34221 -2.27192e-19)
(0.762581 2.47557 0)
(0.603422 1.07491 0)
(0.477704 0.924462 -1.13462e-20)
(0.523053 0.955367 -1.53395e-21)
(0.519447 1.04348 0)
(0.512834 0.998038 2.10952e-20)
(0.72876 0.876714 1.41366e-20)
(0.762895 1.00884 0)
(0.732061 0.97104 -6.26007e-20)
(0.608933 1.01336 0)
(0.606039 0.935128 0)
(1.15596 2.79019 5.59983e-20)
(1.13936 2.85303 1.33299e-19)
(0.938718 2.38917 -2.98551e-19)
(0.909547 2.36065 4.06287e-20)
(1.11562 2.76097 0)
(1.0621 2.7333 -4.83698e-20)
(1.06898 2.49441 -7.06854e-20)
(0.951578 2.21647 -2.78764e-20)
(0.469339 1.40353 0)
(0.481013 1.04845 9.03715e-20)
(0.549871 1.13282 0)
(0.846204 0.217767 0)
(0.813298 0.165289 0)
(0.773892 0.183749 0)
(0.83159 0.227818 -3.17412e-19)
(0.781931 0.231812 1.96283e-19)
(0.934905 0.053083 -1.75948e-19)
(0.940878 0.101209 0)
(0.926417 0.108481 8.09886e-20)
(0.889413 0.0817061 3.32275e-19)
(0.88607 0.0535633 -2.04711e-19)
(1.16229 3.37274 -9.8167e-19)
(1.20926 3.29241 0)
(1.16255 3.40056 -1.94882e-18)
(0.649017 3.56298 1.66912e-18)
(0.8727 3.13334 3.86785e-19)
(0.479574 0.874902 2.17538e-19)
(0.42491 0.86031 0)
(0.343613 0.562211 -8.10176e-20)
(0.407447 0.69028 3.71893e-19)
(0.519641 0.540842 -1.10852e-19)
(0.501966 0.565376 1.24757e-19)
(0.624262 0.553157 2.6844e-19)
(0.641903 0.564354 0)
(0.599333 0.630492 0)
(0.562316 0.567106 0)
(0.912944 0.580078 -4.99687e-20)
(0.84197 0.514015 -1.95511e-19)
(0.863239 0.551977 9.6871e-20)
(0.909291 0.485193 -1.41498e-19)
(1.00555 0.462722 0)
(1.02296 0.542055 -8.16426e-21)
(0.835546 0.364962 -4.02195e-19)
(0.839234 0.3523 -4.59537e-19)
(0.81034 0.363489 3.15296e-19)
(0.788981 0.341399 -3.5748e-19)
(0.829038 0.297306 -2.65552e-19)
(0.787466 0.303405 3.26661e-19)
(1.03458 -0.000578988 -1.81746e-19)
(1.03718 -0.00045231 3.70877e-19)
(1.02819 -0.00958118 2.25315e-19)
(1.03254 -0.00865064 -2.70686e-19)
(1.03675 0.00758127 0)
(1.03796 0.007927 -4.48802e-19)
(-0.35277 1.95071 2.85618e-20)
(-0.329593 1.87501 0)
(-0.389515 1.96736 -3.41747e-19)
(-0.379078 1.96018 3.53834e-19)
(-0.349307 1.85366 -2.62199e-19)
(-0.374564 1.87141 0)
(-0.0470007 1.82042 0)
(-0.036435 1.80021 -8.46593e-21)
(-0.0306569 1.80027 7.67951e-21)
(-0.0290338 1.80541 2.52672e-21)
(-0.0295037 1.82223 -1.61011e-20)
(-0.0346916 1.82375 9.4906e-21)
(0.468688 1.42731 3.52132e-19)
(0.450512 1.42349 -3.77277e-19)
(0.494381 1.34291 4.40048e-19)
(0.472982 1.36824 -2.06859e-20)
(0.630904 1.28408 0)
(0.554768 1.38752 5.20139e-19)
(0.584172 1.36666 -5.18027e-19)
(0.5053 1.31248 -4.16516e-19)
(0.50823 1.26878 0)
(0.539289 1.19261 0)
(0.712456 2.44636 1.06477e-19)
(0.71387 2.458 6.27673e-19)
(0.742977 2.45996 -4.1119e-19)
(0.684373 2.45293 -1.2092e-19)
(0.639673 2.59583 1.03134e-19)
(0.567652 2.58513 -3.15123e-19)
(0.951298 2.36057 -1.61463e-19)
(0.990709 2.39176 0)
(0.876175 2.1203 -2.14274e-19)
(1.03282 2.71722 0)
(1.02711 2.70148 0)
(0.612908 2.29327 2.38739e-19)
(1.04232 3.17659 4.78888e-19)
(0.913571 3.04865 -4.28414e-19)
(0.288692 0.98247 0)
(0.33773 0.84941 -1.4756e-19)
(0.477193 0.790981 -6.76109e-20)
(0.403205 2.0594 0)
(0.470378 2.79718 -2.69658e-19)
(0.432007 2.56677 0)
(0.633217 0.687816 -3.11481e-19)
(0.711714 0.668873 4.03906e-19)
(0.730469 0.613214 -3.95383e-19)
(0.61485 0.645707 -4.65573e-20)
(0.672838 0.603821 -1.91982e-19)
(1.00342 2.78224 -3.64077e-19)
(1.04144 2.83893 2.82546e-19)
(0.647542 2.19797 6.3132e-20)
(0.591317 1.73255 -7.56457e-20)
(0.719545 1.91671 9.04744e-20)
(0.987811 2.45938 -6.73688e-20)
(1.00216 2.46309 -1.63747e-19)
(0.667916 1.88523 -4.56444e-21)
(0.46376 1.33862 -7.14376e-20)
)
;

boundaryField
{
    wall-4
    {
        type            noSlip;
    }
    velocity-inlet-5
    {
        type            fixedValue;
        value           uniform (1 0 0);
    }
    velocity-inlet-6
    {
        type            fixedValue;
        value           uniform (0 3 0);
    }
    pressure-outlet-7
    {
        type            zeroGradient;
    }
    wall-8
    {
        type            noSlip;
    }
    frontAndBackPlanes
    {
        type            empty;
    }
}


// ************************************************************************* //
