/*--------------------------------*- C++ -*----------------------------------*\
  =========                 |
  \\      /  F ield         | OpenFOAM: The Open Source CFD Toolbox
   \\    /   O peration     | Website:  https://openfoam.org
    \\  /    A nd           | Version:  13
     \\/     M anipulation  |
\*---------------------------------------------------------------------------*/
FoamFile
{
    format      ascii;
    class       volScalarField;
    location    "58";
    object      p;
}
// * * * * * * * * * * * * * * * * * * * * * * * * * * * * * * * * * * * * * //

dimensions      [0 2 -2 0 0 0 0];

internalField   nonuniform List<scalar> 
918
(
0.556331
1.18646
0.000589726
0.555757
-0.00934057
1.15345
-0.508622
0.677758
0.536521
-0.110114
-0.0443049
0.536117
1.01428
0.78021
-1.12526
-0.00994334
0.651506
-0.383961
0.535615
-0.0546768
0.703148
0.543069
0.546094
0.536674
0.600465
0.754554
0.895544
0.0215927
0.0114013
0.0049937
-0.0149669
-0.0368606
-0.0310485
1.03709
1.08818
1.11089
0.504369
0.331544
-0.37404
-0.445425
-0.435815
-0.547219
0.673165
0.671189
-0.205407
0.680947
0.684254
0.523575
0.535888
0.536796
0.537829
0.536807
0.53819
0.403851
-0.112731
-0.144726
-0.0905219
-0.0817246
0.054898
-0.0446781
-0.0473753
-0.0429901
-0.0425036
0.453693
0.530415
0.527348
0.541373
0.552075
1.12601
1.09793
1.12407
1.0378
1.05425
0.992253
0.964877
0.80072
0.822845
0.765914
0.75163
-1.55822
-2.51139
-0.534425
-0.283337
-0.0152997
-0.00786794
-0.00186925
0.64799
0.648712
0.651163
0.654729
1.07974
-0.380898
-0.481426
0.535754
0.534561
0.542895
0.543594
0.539613
0.538703
-0.0448132
-0.0407432
-0.0470546
-0.0504708
-0.0499968
0.692102
0.692323
0.537205
0.534211
0.559174
0.579814
0.571123
0.278413
0.608662
0.623489
0.586268
0.74639
0.74098
0.749557
0.869191
0.833287
0.932384
0.955566
0.0174204
-0.000948958
-0.0150418
-0.0189466
-0.0178593
0.500214
0.492778
0.520021
0.507793
0.510291
0.247989
0.114217
0.416726
0.441802
-0.291852
-0.356357
-0.431268
-0.460303
-0.567899
0.610699
0.666634
0.663706
-0.21772
-0.145256
-0.277338
-0.071637
-0.134052
0.513858
0.520858
0.515864
0.531396
0.525868
0.527829
0.540153
0.537225
0.538784
0.466254
0.590034
0.329988
0.29481
-0.246981
-0.161494
-0.247718
-0.0693158
-0.0643876
0.06873
0.0941005
0.0419585
0.030247
-0.058318
-0.0500911
-0.0539366
-0.0415265
-0.0407796
0.446477
0.435322
0.466364
0.473898
0.518545
0.519931
0.524145
0.522224
0.915632
0.938076
0.945597
0.919266
-3.50308
-6.28849
0.0419227
0.178633
-0.0063267
-0.0104173
0.00497349
-0.010687
-0.00291186
-0.00451893
-0.00513145
-0.00669407
-0.00200462
-0.000649429
0.641558
0.642425
1.00123
1.00717
0.97783
0.930288
0.523944
0.526023
0.531534
0.52741
-0.0405529
-0.0408946
-0.0407605
0.68678
0.690878
0.689427
0.24022
0.151052
0.329144
0.35806
0.635045
0.623212
0.633375
0.647513
0.684136
0.963013
0.981222
0.97942
0.987715
1.03168
1.04802
1.01349
0.479708
0.489666
0.48463
0.523132
0.520902
0.521807
0.517604
0.518937
0.516878
-0.0365489
-0.417297
0.489864
0.507268
0.491448
0.494701
0.690749
0.769141
0.655005
0.659759
0.658437
-0.003129
-0.0614749
0.25045
0.21676
0.386255
0.422544
0.401572
0.887002
0.847055
0.897262
0.870522
0.831693
0.857944
-0.36897
-1.87085
-0.988695
0.529091
0.343121
0.430753
0.0121589
-0.00480921
-0.000240959
1.00026
1.07343
0.645883
0.820181
0.823353
0.718376
0.747064
0.807585
0.733804
0.768338
0.801619
0.779164
0.567012
0.503128
0.518951
0.838315
0.894019
0.121619
0.0611645
0.0171691
0.112736
0.169745
0.143981
1.03403
0.94804
1.01842
0.53397
0.534687
-0.00353554
-0.0179642
0.538914
0.538967
-0.0162114
-0.00320563
0.413172
-0.83372
0.103177
0.527477
0.517438
0.534536
-0.0928531
0.355454
-0.0452901
0.0498937
-0.00557391
0.531566
0.464768
0.424034
0.00143133
-0.0187369
-0.0451598
-0.216419
0.53164
0.529946
0.534003
0.534951
0.535628
-0.0171635
-0.012418
-0.00931452
-0.04329
-0.0384507
-0.0481585
0.498541
0.517423
-0.17063
0.534148
0.536279
0.536099
0.529345
0.534983
0.533229
-0.00963624
-0.0160988
-0.017543
0.221498
0.351498
0.652915
0.740786
0.624538
0.400319
0.164792
0.556235
0.619285
0.525163
0.678603
0.662693
0.67788
0.168671
0.0184033
0.177014
0.118285
0.525336
0.52404
0.515692
0.512667
0.5294
0.52751
0.532072
0.529084
0.532036
0.533422
-0.050395
-0.0756753
-0.0874633
-0.156744
0.310101
0.571875
0.253108
0.283535
0.142738
-0.0397965
-0.0407533
-0.0444328
-0.050156
0.00313473
-0.0205692
0.0449072
0.0455403
0.0179704
-0.00814189
-0.00459577
-0.0154923
-0.0117683
0.524751
0.523663
0.529006
0.53788
0.474384
0.47816
0.443116
0.463804
0.449099
0.38801
0.423198
0.398421
-0.00686268
0.00360753
-0.00417428
-0.0159245
-0.0119647
-0.0311735
-0.0276604
-0.0238998
-0.0194966
-0.0261987
-0.0404994
-0.0420722
-0.173766
-0.288512
0.988028
0.91034
0.134456
0.520797
0.527246
0.524011
0.528912
0.532041
0.532849
0.530565
0.527118
0.517771
0.519313
0.516121
0.516994
-0.102626
-0.242996
-0.0711076
-0.143939
0.142905
0.626766
0.363422
0.299838
0.294819
0.522476
0.917896
0.702917
0.677835
0.688242
-0.343582
0.0469036
-0.279202
0.336613
0.163355
0.653922
0.701609
0.721449
0.670824
0.624434
-0.104753
0.554255
-0.0697427
-0.0187091
0.181863
0.0605998
0.67347
0.648274
0.652237
0.668897
0.684964
0.654446
0.639779
0.634834
0.664543
0.666652
0.488124
0.252332
0.203799
0.165256
0.641686
0.523393
0.576599
0.493487
0.520522
0.523134
0.521766
0.503359
0.510928
0.506462
0.512978
0.516456
0.525113
0.525566
0.520863
0.522995
-0.0554036
-0.0593265
-0.0307479
-0.139255
-0.132617
-0.19538
-0.0646051
0.0737872
0.0342943
0.235461
0.340431
0.0513249
-0.0597205
-0.0325078
0.00928368
0.178748
0.205643
0.074532
0.162772
0.152401
0.135049
0.236899
0.24098
-0.024622
-0.0284762
-0.0315879
-0.0338785
0.020887
0.0910816
0.100888
-0.00223128
-0.00820744
-0.0377301
-0.0372703
-0.0212109
-0.0259064
-0.0220873
0.0106146
-0.0510071
-0.0182621
-0.00398641
0.000754379
-0.00171948
-0.00723275
0.517189
0.519687
0.519234
0.525023
0.541905
0.556627
0.517645
0.496545
0.487352
0.490363
0.463274
0.473604
0.46926
0.483005
0.504171
0.51385
0.511113
0.513931
0.496297
0.498009
0.484502
0.488221
0.462954
0.443899
0.432044
-0.0406031
-0.00231418
-0.00997659
-0.0363845
-0.00732739
-0.0192228
-0.00749432
0.0108365
-0.00500001
-0.00686846
-0.0168173
-0.0234229
-0.0229189
-0.0754143
0.0108133
-0.184491
-0.22056
-0.292762
0.889826
1.01387
0.80985
0.58296
0.602371
0.845611
0.930359
0.54316
0.735016
0.758428
0.585702
0.852777
0.525631
0.525233
0.522833
0.522312
0.523529
-0.00791525
0.0977129
0.0975749
0.159521
0.27479
0.386789
0.317004
0.192516
0.322909
0.325449
0.619106
0.631247
0.586733
0.610899
0.610357
0.425391
0.501155
0.553307
0.511749
0.564131
0.585271
0.540121
0.57266
0.522865
0.477728
0.473595
0.424278
0.443929
0.420036
0.403024
0.515011
0.492547
0.503041
0.493371
0.512348
0.539732
0.535099
0.561379
0.575203
0.497108
0.452462
0.461833
0.492165
0.453088
0.468233
0.484746
0.229955
0.131527
0.214374
-0.0723948
0.000543079
-0.0127412
-0.0609343
-0.010874
0.273784
-0.418747
-0.394988
-1.02322
0.500362
0.953312
0.614658
0.587533
0.682511
0.664769
0.669595
0.685996
0.689359
0.630246
0.642435
0.646074
0.608139
0.630121
0.649119
0.64617
0.524145
0.3858
0.383419
0.33337
0.203507
0.242439
0.441004
0.364148
0.288856
0.289524
0.458021
0.344843
0.414215
0.449045
0.380521
0.334865
0.537873
0.602773
0.595529
0.569921
0.483844
0.497226
0.521091
0.555326
0.580819
0.611426
0.512423
0.518334
0.519569
0.517052
0.514319
0.517367
0.517602
0.520146
0.520808
0.523794
0.522837
-0.0447845
-0.0328282
-0.0462289
-0.0543232
-0.0205882
-0.0235122
0.0195381
0.00506225
-0.0120344
-0.00632208
-0.0312347
-0.035548
-0.0309908
-0.0222366
0.0987124
0.111301
0.0945238
0.0548911
0.248874
0.378671
0.453136
0.328294
0.221022
0.24412
0.264333
-0.0119691
0.0148496
0.00176766
0.0410271
0.0326891
-0.0320866
-0.0363521
-0.0336477
-0.0266008
-0.0171051
-0.0336172
-0.0367859
-0.0280135
-0.0326845
-0.0346646
-0.0386514
0.498805
0.492279
0.494
0.487809
0.486519
0.500925
0.50517
0.507159
0.512672
0.515057
0.504995
0.510847
0.514741
-0.0085229
-0.0314031
-0.0354288
-0.0240328
-0.0268859
-0.0249342
-0.0264814
0.122163
0.0516296
0.0563939
0.00836584
-0.122814
-0.0651845
0.489864
0.488974
0.478837
0.719599
0.568914
0.489434
0.586562
0.692204
0.274541
0.471606
0.306358
0.887292
0.783375
0.929809
0.541087
0.243016
0.404709
0.44948
0.261365
0.336253
0.325481
0.214141
0.245208
0.281989
0.381259
0.263408
0.239788
-0.00298626
0.187242
0.299715
0.281553
0.406581
0.467683
0.264102
0.183836
0.138883
0.604423
0.623689
0.637944
0.610175
0.63122
0.57765
0.568499
0.585035
0.59371
0.589098
-0.751128
-0.457666
-1.40389
-0.724699
-0.270793
0.530618
0.500367
0.766932
0.646694
0.689062
0.67451
0.633767
0.602586
0.623826
0.648711
0.345397
0.456592
0.431767
0.436894
0.338728
0.269723
0.567836
0.563815
0.596853
0.62014
0.591768
0.62137
0.510244
0.50996
0.50943
0.505686
0.50396
0.506316
0.0575836
0.0260199
0.0628135
0.0433508
0.0201304
0.00820436
-0.00473955
-0.0145313
-0.0217577
-0.0218338
-0.0083699
-0.0042664
0.169525
0.107886
0.0276613
0.0576256
-0.00337262
-0.0723188
-0.0907286
0.0132924
0.10964
0.099907
0.403993
0.653907
0.47388
0.641346
0.483518
0.539271
0.467478
0.458974
0.48441
0.377997
0.458449
0.24196
-0.265028
-0.174094
0.78976
0.802316
0.579561
0.402038
0.170846
0.351856
0.543446
0.475074
0.511303
0.580298
0.568553
0.0228085
0.0827288
0.362972
0.590028
0.237251
0.228361
0.222153
0.403994
0.323736
)
;

boundaryField
{
    wall-4
    {
        type            zeroGradient;
    }
    velocity-inlet-5
    {
        type            zeroGradient;
    }
    velocity-inlet-6
    {
        type            zeroGradient;
    }
    pressure-outlet-7
    {
        type            fixedValue;
        value           uniform 0;
    }
    wall-8
    {
        type            zeroGradient;
    }
    frontAndBackPlanes
    {
        type            empty;
    }
}


// ************************************************************************* //
