/*--------------------------------*- C++ -*----------------------------------*\
  =========                 |
  \\      /  F ield         | OpenFOAM: The Open Source CFD Toolbox
   \\    /   O peration     | Website:  https://openfoam.org
    \\  /    A nd           | Version:  13
     \\/     M anipulation  |
\*---------------------------------------------------------------------------*/
FoamFile
{
    format      ascii;
    class       surfaceScalarField;
    location    "58";
    object      phi;
}
// * * * * * * * * * * * * * * * * * * * * * * * * * * * * * * * * * * * * * //

dimensions      [0 3 -1 0 0 0 0];

internalField   nonuniform List<scalar> 
1300
(
3.75095
5.62643
-3.32318
3.75095
-7.72927
5.62643
-4.37328
4.37328
-0.521652
0.521652
1.87639
1.87456
-2.72729
2.72729
-2.20554
2.20554
-2.53517
2.53517
-5.24642
5.24642
-5.06829
5.06829
4.65708
-4.65708
-6.29154
6.29154
-0.968631
0.968631
-3.65921
3.65921
3.16965
-3.16965
-2.1418
2.1418
-0.0408085
0.0408085
-0.553482
4.30443
3.19747
3.19747
-2.0086
2.0086
-4.8679
4.8679
6.21803
-6.21803
5.31971
-5.31971
-1.99654
-2.43899
1.79887
-11.5327
-5.9304
-5.9304
-8.44039
8.44039
-2.81396
2.81247
2.94573
-2.94573
-1.77608
1.77608
-4.33285
-0.0404267
-4.33285
4.34344
0.0298373
4.34344
-0.586517
0.0648645
-0.586517
3.96807
-3.96807
0.429874
0.0917781
0.429874
3.06525
-3.06525
-1.87711
3.7535
1.87385
-1.87189
6.17632
-1.87907
3.75363
-6.01365
6.01365
-2.94413
0.21684
-2.94413
2.54501
0.182278
2.54501
-6.83758
6.83758
-2.24536
0.0398151
-2.24536
2.17585
0.0296924
2.17585
2.87888
-2.87888
-2.64614
0.110961
-2.64614
2.40658
0.128598
2.40658
0.353531
5.2729
-5.97996
8.79243
-5.2729
0.026483
5.20837
0.0380488
5.20837
-5.10578
0.0374989
-5.10578
5.01286
0.0554304
5.01286
4.7438
-0.0867237
4.7438
-4.77428
0.117196
-4.77428
-3.38507
-4.04424
-6.4423
0.15076
-6.4423
-1.0506
0.0819736
-1.0506
0.862914
0.105717
0.862914
-3.68
3.68
-4.07944
0.420227
-4.07944
3.12403
0.0456162
3.12403
1.86849
1.88246
5.61945
-5.61945
2.4498
-2.12779
-0.014006
-2.12779
-2.18731
-3.1324
2.18731
-0.0455101
-0.273151
0.232342
-0.273151
3.15941
0.0380658
3.15941
2.23857
0.168008
-2.23857
0.229972
3.26713
-3.26713
1.33851
0.670089
1.33851
-5.56533
5.56533
4.95544
0.0574124
-4.95544
0.0875401
6.15614
0.0618838
6.15614
-6.19951
-0.0185171
-6.19951
2.54284
-4.98183
-2.6086
6.1108
0.180738
-6.1108
0.180399
2.91733
0.0283965
2.91733
-2.91986
2.91986
-2.9844
0.0386718
-2.9844
-2.17515
0.399068
-2.17515
1.47726
0.298827
1.47726
-4.2306
-0.102247
-4.2306
-4.23229
0.15285
4.23229
0.111154
1.12704
-1.12704
-0.685775
0.0992585
-0.685775
-4.09291
-0.137696
4.09291
-0.124838
-3.85841
-0.109662
-3.85841
-3.02434
0.0399415
3.02434
0.0409151
3.11283
0.0465796
-3.11283
0.0475716
-1.87082
3.75328
-1.88013
3.75398
-5.63348
-0.380174
-5.63348
6.32315
-0.309497
6.32315
3.31345
0.345765
-3.31345
0.369314
2.40875
0.136268
2.40875
-6.80221
-0.0353667
-6.80221
6.82023
0.0173476
6.82023
2.31264
0.0961043
-2.31264
0.0672822
2.14919
0.0266656
2.14919
2.89811
-0.0192334
2.89811
-2.87366
-0.00521664
-2.87366
2.79673
-2.79673
2.72563
0.0711028
-2.72563
0.0794945
-11.133
11.1145
-0.0351777
-11.0978
5.17319
5.17319
4.17142
0.572381
4.17142
-4.99146
0.217183
-4.99146
2.68004
-5.28864
3.05683
-6.44191
4.66262
-16.1953
4.31131
-8.35555
6.68408
-6.68408
6.57202
0.112057
-6.57202
0.129723
-1.16176
0.111152
-1.16176
-3.07654
-0.603457
-3.07654
4.32414
-0.644142
4.32414
-3.02829
3.02829
-3.07754
0.0492527
3.07754
0.0464867
2.12394
0.0252415
-2.12394
-0.00384869
0.351501
0.078373
-0.351501
0.0783505
3.47592
-0.20879
3.47592
-3.0715
-0.195629
-3.0715
-1.25514
0.0933848
1.25514
0.0833661
-5.8148
0.249473
-5.8148
-11.1908
0.0929594
-11.1528
-6.10655
-6.10655
2.33384
11.1263
-2.89223
0.0185666
2.89223
0.0251016
2.97527
0.0530214
-2.97527
0.0554132
-2.86085
0.0641179
2.86085
0.0590047
-2.55026
0.375107
-2.55026
-1.07385
1.07385
-1.24106
0.167209
1.24106
0.236192
1.39714
-0.270099
1.39714
0.772207
0.0907073
-0.772207
0.0864314
-3.76279
-0.095619
-3.76279
6.55616
-0.233009
6.55616
-2.9588
-0.112709
2.9588
-0.0606837
-0.0333563
11.1479
-5.13983
0.034049
5.13983
-11.2097
11.2438
-3.22125
0.670993
3.22125
0.950171
5.28476
0.280562
-5.28476
0.293305
6.769
0.0512307
-6.769
0.0849196
-2.58405
-0.492493
-2.58405
-5.05084
-0.582635
5.05084
-0.726698
-11.4751
-0.202931
11.6781
-11.4197
6.01773
0.138412
-6.01773
11.3822
-1.03008
-0.0969633
1.03008
0.0437793
1.72356
-0.326417
1.72356
3.66657
-0.190649
-3.66657
-0.0962165
-6.70803
-0.0941783
6.70803
-0.151876
-2.1398
-0.444249
2.1398
-0.416246
-4.26709
4.30515
1.90923
-2.40065
-2.58118
-5.53305
1.85187
1.90141
4.30167
-10.1609
-6.03445
-9.98046
7.26226
-6.96895
-9.24815
9.16143
7.84152
-7.95118
-5.78496
5.83145
6.48272
-6.44181
1.87878
1.87472
7.96469
-7.74785
-15.6297
15.2495
7.50417
-7.46436
15.7802
-15.8156
-17.8603
17.9116
-5.69489
5.80585
-6.73716
6.73195
-6.9698
6.90912
-2.83596
-3.60595
13.1244
-12.9736
8.53685
-8.55086
-8.58583
9.00606
3.38257
0.922588
3.42915
-1.88218
3.76096
-1.87145
3.78068
2.70335
-5.53931
2.58529
-5.16647
4.32384
4.21301
-4.27833
-1.25472
-5.92375
5.95214
-5.81559
5.87459
9.11215
-9.15258
-1.88516
3.75987
-1.86882
3.77023
-3.42503
-2.35994
3.37941
0.922262
8.07907
5.0453
-8.25981
-1.72065
-8.01638
7.82573
-8.2198
8.02417
-0.434978
5.81908
-5.3841
4.43292
-1.56189
7.38097
5.70037
5.91755
5.86631
-5.58575
1.10264
-6.48674
-6.3992
-2.35704
2.4563
2.24065
-2.14887
6.10509
1.73643
5.98025
-5.73548
-2.21569
-5.8311
3.82075
2.0107
3.87001
4.07811
2.40462
4.11805
3.03057
-3.03587
0.00529783
-3.05656
6.08713
0.724002
-5.41649
-4.49423
4.96635
2.99834
5.14863
-5.52105
-2.2268
-5.15174
-9.55059
-6.07908
-10.1332
10.096
5.15346
9.78654
-11.9699
11.818
4.79038
2.71379
4.82008
-4.91866
-2.5457
-4.85138
11.6379
-2.61603
-9.02186
-10.3263
-7.53405
10.3089
5.47126
10.9685
6.94304
11.0534
4.42429
7.21359
-9.89556
2.3615
-3.8609
-1.83399
-3.7814
3.66259
2.14326
3.79119
-4.21649
-2.52067
-4.19793
-4.29386
-2.67595
4.31309
2.41886
-4.41404
-3.80576
4.52675
2.38237
4.03296
-10.0674
4.32258
-7.92853
-9.2027
-3.77091
-9.07298
3.49762
2.60527
-6.10289
-2.04169
8.46288
-4.24987
7.20816
-5.16605
-3.38481
-5.1699
-6.86213
-1.7237
-6.70928
-8.88576
8.39327
-9.18456
8.54042
12.5511
-5.66901
-6.88205
-3.96838
-2.47343
3.92081
-0.491664
-3.7106
3.71589
0.050365
3.83105
4.75364
4.26197
-3.88499
-1.9306
-3.82957
3.82647
2.04812
3.89059
6.82212
2.29003
6.85196
-6.5851
-2.56748
-6.68734
9.04678
-8.64772
2.85356
-2.76018
5.38418
2.64
-5.17538
-2.84099
6.21447
-3.21557
-2.9989
-12.2003
10.5344
1.66588
-4.81931
-0.386383
-0.345574
-5.49017
-3.75798
5.37298
0.544577
11.079
7.32099
-5.5124
5.76187
6.16567
6.22308
-0.176121
5.81274
-5.14174
5.26711
-2.5518
-2.7153
5.44323
-5.58093
-1.24411
-5.4927
4.24859
0.399325
1.55185
-1.31951
-1.8351
-0.521943
-1.74867
1.32985
0.9108
1.40822
0.929256
1.52705
-2.94995
0.556963
2.39298
-2.02069
-1.59191
-3.77295
-1.12786
4.90081
5.71449
2.11124
-5.61827
-0.212834
2.57994
-2.47423
-0.752637
-3.02032
2.23123
-2.98387
-3.67413
-2.02948
5.70361
-3.36998
-0.45959
3.31696
0.553044
-3.82687
-2.09687
3.7882
0.329849
-3.12725
6.19052
-3.06327
-5.05785
2.52785
3.55928
4.53855
-4.78957
2.44732
2.34225
-1.2303
4.24338
0.905247
4.37965
-6.90567
4.67887
5.78452
3.22154
-6.13028
0.97855
-5.92712
8.53824
-7.36459
-1.17365
4.13737
4.40087
7.08562
5.46544
-5.68206
12.7677
-1.1959
-6.16868
7.12303
-3.90149
4.84892
-8.7504
-10.3144
4.14567
-9.16192
10.9369
-1.77503
-3.62562
-8.34428
12.7875
-1.20926
-11.5783
8.57729
-4.2327
-4.31528
8.54798
-6.84873
6.86097
-1.98514
-4.87583
-10.1143
-5.70127
10.2085
1.60957
-9.88046
12.242
-2.66687
4.1031
0.716973
4.12977
3.28199
-5.45861
2.17662
3.56674
-5.55188
2.08636
-7.54496
-6.73461
12.066
-5.33142
-10.5055
-9.52439
-0.981132
2.5338
9.70816
-9.47684
7.43187
2.04497
3.30265
0.587941
-3.37375
-0.407647
0.237008
4.53245
-4.76946
4.0282
4.1962
3.29624
1.23622
3.84449
2.10765
-3.8696
-0.328331
-4.16192
1.48598
-1.74307
-3.69132
5.1773
-4.06605
0.374722
-2.74647
-3.5002
6.24666
-4.58046
3.03634
3.15418
5.08446
-4.91294
1.41275
-2.39367
-2.51927
2.6533
-4.39637
1.98867
3.18863
4.37104
0.565281
5.8738
6.19223
-8.47908
0.550543
11.2375
-9.51687
2.46857
8.58487
-9.90044
0.376052
-8.69693
0.993579
-5.24345
-5.10932
5.18776
-6.91145
-3.56265
6.19564
0.656323
-6.30679
-0.402494
-6.03874
-2.84702
-6.48299
-3.04744
-6.13712
-8.7295
-1.65269
-7.0768
6.74058
-6.68763
-3.44559
7.41433
1.12609
-7.41284
7.31587
-7.49162
7.1652
0.0952706
3.62062
4.35724
1.88382
-2.39033
4.27415
-5.10845
7.39848
-8.69342
3.58498
4.17643
-6.74391
-4.517
5.02597
4.02082
5.32479
8.89568
-10.3699
1.47423
-10.6697
12.0043
-1.33459
-16.4348
5.76514
-7.53912
2.47408
0.379486
2.58523
0.556658
2.50012
-3.05678
-2.20352
-2.12015
-2.4239
-3.46444
5.88833
1.10998
-3.51285
2.40286
-3.56917
4.67916
-0.187852
-3.32499
5.28668
-2.78656
5.66617
-3.75703
1.90914
3.42791
5.74889
-2.32098
4.39279
-1.75279
1.91264
-4.23362
-1.5518
-2.96245
5.10572
-3.28421
3.65893
-0.336256
3.99519
-4.06508
0.849509
-0.768841
3.42736
3.65733
4.308
-3.07179
2.92452
-4.67731
-1.3091
-4.11203
-0.9234
-0.267951
-3.7146
3.98256
5.99419
-6.26214
-5.23831
9.53488
-4.29657
7.69818
-5.38512
-2.31306
-4.25672
-4.39099
3.88162
1.93112
9.6293
0.209885
-5.59501
-4.93186
-3.98169
3.12697
2.14014
-1.79537
3.46125
2.14094
-0.58909
0.458989
0.949236
1.79007
-1.33108
0.291925
1.49815
-1.02759
1.79756
0.782387
-1.88826
0.139594
-1.30876
3.53999
1.08422
-1.99502
0.663936
0.994629
-3.54643
5.00366
-2.64554
-2.35812
5.99829
1.14524
-3.79079
4.34746
-3.94813
2.37277
-3.50063
-1.41801
-5.36615
-3.62972
-2.53075
4.93361
-3.35759
5.46883
1.25948
-5.25599
6.51548
-3.70865
1.67916
-3.07263
3.85501
-0.970509
-2.10212
2.8924
2.81122
-3.03967
0.0193485
-0.147269
2.39907
-2.54634
-0.584797
-2.60549
-4.57306
4.90291
-2.1057
4.55303
2.16844
-1.9164
6.46943
1.80942
-3.72583
-3.24843
-3.70802
-1.38358
3.15497
-0.595598
-4.25578
-5.47143
4.15968
0.219969
-6.99702
7.81174
-0.814715
-3.99868
-0.680193
4.81756
-6.03729
0.485417
-3.95094
3.8608
4.76605
4.98602
-11.3662
-0.212116
-6.21271
1.1284
-7.34111
5.52926
-3.54804
7.69371
-10.3457
6.90014
-9.21964
6.52006
-0.821052
6.25019
-4.07357
2.77167
-8.47294
-6.86338
5.47321
-2.75942
6.19018
-3.12169
9.31187
-5.78856
5.2609
4.05097
-1.00932
-4.16058
-5.25533
4.24601
0.00556947
4.13534
4.97922
-2.87158
4.65089
2.26615
-4.65982
-2.13022
-6.4948
1.83498
-3.34061
-1.9198
3.75478
3.16465
3.75259
1.23551
-3.34495
7.1828
-8.16393
-1.85139
-3.25793
5.24147
-0.995461
3.38678
-6.64471
-1.85666
4.8136
-0.78364
-4.02996
0.855415
-4.41806
1.66849
-6.08655
5.24297
-5.64546
2.22194
-9.76107
-5.19089
-5.14711
-2.25901
-5.23261
-7.57831
5.3193
-1.81317
5.50271
-8.51893
7.73529
-3.48532
8.80462
-5.43199
-1.051
5.84823
1.31697
10.1216
0.207232
-4.72423
-1.9057
3.87129
-1.96558
1.22126
-3.50737
0.363916
2.48924
3.50905
-6.73783
-0.00608292
-4.73031
-3.91908
7.9399
5.6158
11.61
1.24009
9.12253
-1.18264
10.3626
4.14216
4.37835
-3.00142
4.47564
0.98114
4.56612
-0.911858
2.821
1.67337
1.75534
0.718883
2.30678
1.35055
3.15629
0.0995083
-2.02064
4.62409
-8.60578
-0.97092
-8.03339
1.12803
5.71179
-4.58376
2.98801
-0.847874
1.02243
-0.0532435
-1.3407
1.39394
-2.76855
-1.92979
-0.431643
-1.67441
2.33835
1.86558
-1.90671
-0.861841
0.357566
-3.98729
3.14306
-3.12371
-0.312497
6.20298
-2.81585
0.269511
-1.13669
-2.33598
-2.85792
2.71833
6.17612
0.293308
3.11285
5.19621
3.09934
0.227765
3.90423
-5.67926
-3.64073
-5.89138
-0.362114
4.45545
1.74703
7.96113
5.79801
4.80255
-1.84217
-10.0061
6.53831
-2.06267
5.20373
-1.17377
-4.91278
5.03247
2.366
-5.6888
0.0433359
-4.86945
-6.93212
-0.513656
8.24894
-9.60793
8.55693
5.7099
1.3669
-4.40835
-0.738762
4.24114
0.137211
10.4998
-1.12793
-6.74456
7.87249
-4.58386
3.61294
0.769088
2.69216
2.16303
1.31516
-5.4294
-10.0132
-2.01843
-1.528
-4.37655
0.524259
-2.38984
6.22895
-2.61601
3.91589
5.25648
6.27891
-2.13718
-4.12496
6.43375
-2.51786
3.76105
)
;

boundaryField
{
    wall-4
    {
        type            calculated;
        value           uniform 0;
    }
    velocity-inlet-5
    {
        type            calculated;
        value           uniform -3.75095;
    }
    velocity-inlet-6
    {
        type            calculated;
        value           uniform -5.62643;
    }
    pressure-outlet-7
    {
        type            calculated;
        value           nonuniform List<scalar> 8(3.32318 7.72927 4.43553 9.73382 7.42931 5.15144 5.73687 8.97393);
    }
    wall-8
    {
        type            calculated;
        value           uniform 0;
    }
    frontAndBackPlanes
    {
        type            empty;
    }
}


// ************************************************************************* //
