/*--------------------------------*- C++ -*----------------------------------*\
  =========                 |
  \\      /  F ield         | OpenFOAM: The Open Source CFD Toolbox
   \\    /   O peration     | Website:  https://openfoam.org
    \\  /    A nd           | Version:  13
     \\/     M anipulation  |
\*---------------------------------------------------------------------------*/
FoamFile
{
    format      ascii;
    class       volVectorField;
    location    "58";
    object      U;
}
// * * * * * * * * * * * * * * * * * * * * * * * * * * * * * * * * * * * * * //

dimensions      [0 1 -1 0 0 0 0];

internalField   nonuniform List<vector> 
918
(
(0.985161 -0.000506004 0)
(0.00501303 2.96625 0)
(0.00791646 0.886032 0)
(0.979704 0.00214641 0)
(-0.0131535 2.06023 3.33937e-20)
(-0.00704551 2.94879 -2.46912e-18)
(0.816853 1.15915 4.47548e-19)
(0.162017 0.0865673 -1.50714e-20)
(0.999909 -0.00027769 0)
(0.0599582 0.74663 0)
(0.0121813 0.541816 0)
(0.735603 -0.018504 0)
(0.0111067 2.93034 0)
(0.00294203 2.79471 0)
(-0.0176521 3.1504 7.80936e-19)
(-0.0186689 1.91144 8.37582e-21)
(0.280026 0.0408182 1.01774e-18)
(0.186275 1.13555 3.1978e-19)
(0.962737 0.00501862 0)
(0.00927227 0.501999 0)
(-0.00129087 0.115612 -7.07894e-19)
(1.00197 -0.00497654 0)
(1.00022 -0.00978623 0)
(0.975735 -0.00643908 0)
(0.596874 0.00931941 0)
(0.0150423 2.64118 0)
(-0.0148084 2.90996 9.08641e-19)
(0.0116766 0.938592 0)
(-0.0133444 1.1822 0)
(0.0127875 0.920072 0)
(-0.0149348 2.59546 0)
(-0.00181124 2.11001 -2.66688e-20)
(-0.00911826 1.89227 0)
(-0.0206088 2.9876 -8.8751e-23)
(-0.0166871 3.0053 1.91898e-18)
(0.00210337 3.00018 0)
(0.871223 -0.00963508 0)
(0.40337 0.934475 1.78981e-19)
(0.80174 1.17369 -5.1089e-19)
(0.953047 1.01903 5.53077e-19)
(0.670735 1.26511 -1.03719e-19)
(0.672017 1.23914 5.9734e-19)
(0.198929 0.144125 1.47035e-20)
(0.176604 0.0623449 0)
(1.15338 0.560002 0)
(0.172475 0.132378 6.70302e-20)
(0.137861 0.0831444 -6.95531e-20)
(0.919877 -0.00745496 0)
(1.00027 0.000159349 0)
(0.999909 0.000337469 0)
(1.00363 -0.00776209 0)
(1.00096 -0.000921856 0)
(1.00017 3.52034e-05 0)
(0.0736697 1.8242 -7.72085e-19)
(0.026484 0.954237 0)
(0.0952608 0.816401 0)
(0.00965569 0.910753 0)
(0.0354043 0.677691 0)
(0.0068038 2.00901 0)
(0.000713734 0.817027 0)
(0.0111005 0.561686 0)
(-0.0036073 0.812668 0)
(0.00957945 0.527063 0)
(0.841059 -0.0157867 0)
(0.840476 0.0322553 0)
(0.767578 -0.0084014 0)
(0.805001 0.0414495 0)
(0.703593 -0.0142238 0)
(0.0146895 3.0004 9.15291e-19)
(0.0115049 3.00802 0)
(0.00611718 3.00277 0)
(0.0135461 2.99735 1.03859e-23)
(0.00797025 2.95847 -1.36035e-18)
(0.0144862 2.98201 0)
(0.0108376 2.90361 0)
(0.024796 2.93065 2.07963e-24)
(0.0045914 2.82472 0)
(0.0305693 2.91627 0)
(-0.00525534 2.74581 0)
(0.305859 3.54411 0)
(-0.13159 3.62499 0)
(0.138249 3.24042 -7.26736e-19)
(-0.013282 2.97795 0)
(-0.020752 1.9813 0)
(-0.00708742 2.16264 -8.26103e-21)
(-0.0130612 1.91976 1.76896e-21)
(0.362832 0.145954 -3.53309e-19)
(0.307064 0.0253612 -3.42903e-19)
(0.323457 0.15347 -1.05804e-18)
(0.246032 0.0489175 -6.89718e-19)
(0.228349 0.979882 0)
(0.270547 1.28396 -3.6953e-19)
(0.364735 1.22112 6.16235e-19)
(0.987444 0.00856818 0)
(0.941876 0.005832 0)
(1.0003 0.000580277 0)
(1.00286 0.00930848 0)
(1.00301 0.00846931 -2.7406e-18)
(0.991909 0.00969633 2.06961e-18)
(-0.0044123 0.800512 0)
(0.00921667 0.513371 0)
(-0.0406228 1.00829 0)
(-0.0195564 0.838898 0)
(0.00504492 0.497653 0)
(0.00768125 0.125761 2.18528e-19)
(0.0864566 0.0959746 0)
(0.99355 -0.00837297 0)
(0.954455 -0.00652802 0)
(0.748323 0.0420194 0)
(0.683146 0.0336284 0)
(0.663326 -0.00825669 0)
(0.969035 -0.00771358 0)
(0.596651 0.0708383 0)
(0.444638 -0.0143241 1.53735e-18)
(-0.0371017 2.86274 6.70722e-19)
(0.0414501 2.90996 0)
(0.0535554 2.88588 0)
(-0.00397906 2.70016 0)
(-0.0134256 2.98506 8.60503e-19)
(-0.0178934 2.89496 0)
(-0.0154414 2.98807 -2.66799e-18)
(-0.0133173 2.92516 9.133e-19)
(-0.0220074 1.34472 0)
(0.000511969 1.37357 0)
(-0.0073354 2.12751 4.86627e-22)
(-0.006234 2.08941 0)
(-0.0204589 1.89969 0)
(0.93848 -0.00743597 0)
(0.857282 -0.00994874 0)
(0.86329 0.00578441 0)
(0.94952 -0.00785629 0)
(0.883979 -0.00817791 0)
(0.514939 1.12756 -2.26101e-19)
(0.564093 1.17863 0)
(0.367957 0.87943 3.3484e-20)
(0.310476 0.738168 0)
(0.913662 1.05681 -1.52403e-19)
(1.03035 0.866346 3.08329e-19)
(0.358154 1.34731 0)
(0.523418 1.32045 0)
(0.546304 1.25793 0)
(0.120481 0.184997 -3.01644e-19)
(0.223293 0.140163 0)
(0.201022 0.0722332 1.93088e-19)
(1.00147 0.92085 0)
(1.07448 0.774999 0)
(1.09957 0.716454 -2.43528e-19)
(1.13278 0.619505 0)
(1.18364 0.403608 5.67981e-20)
(0.957714 -0.00872966 0)
(0.962488 -0.0100487 0)
(0.901707 -0.00797497 0)
(0.984198 -0.00915143 0)
(0.974699 -0.00934252 0)
(0.937121 -0.00637017 0)
(1.00019 0.00233922 0)
(1.0009 0.00141157 0)
(0.99991 0.000854715 0)
(0.0352413 2.0737 4.27978e-19)
(0.119083 1.76725 0)
(0.0176331 2.18786 6.57528e-19)
(0.0464411 1.87787 -5.48552e-19)
(0.10262 1.14402 -2.61997e-19)
(0.0443069 1.02938 0)
(0.140878 0.973818 0)
(0.00365113 0.871818 0)
(0.0168893 0.625384 0)
(-0.00141611 2.24051 -8.4756e-22)
(0.0160046 2.01392 0)
(-0.00223976 2.24217 -3.14502e-20)
(0.00833911 2.01753 4.97962e-20)
(0.00143408 0.848167 0)
(0.00202828 0.828286 0)
(0.0109684 0.588782 0)
(-0.00503661 0.807794 0)
(0.000689397 0.518492 0)
(0.937882 0.00966036 0)
(0.84944 -0.0148053 0)
(0.927211 0.000316433 0)
(0.842114 -0.0129383 0)
(0.812115 -0.00109069 0)
(0.899536 0.0214766 0)
(0.873642 0.0266663 0)
(0.788717 -0.00429261 0)
(0.00576689 3.06493 -8.53393e-21)
(0.0166268 3.05765 0)
(0.0146624 2.96903 0)
(0.00871374 2.87626 0)
(0.921565 3.95735 0)
(1.2352 3.2907 9.28303e-19)
(0.0693656 3.07019 0)
(-0.029122 2.90263 0)
(-0.00837327 1.39403 0)
(-0.025822 1.69328 0)
(-0.0136333 1.52894 0)
(-0.0278214 2.55599 -1.18787e-20)
(-0.0119898 2.24471 0)
(-0.016964 2.39253 0)
(-0.000119723 1.94481 8.27278e-22)
(-0.00398689 2.23519 -5.08567e-21)
(-0.0058554 2.19662 -1.9405e-21)
(-0.00739813 1.93143 0)
(0.412396 0.126619 5.38616e-19)
(0.3554 0.0141501 -5.28553e-19)
(0.259165 1.58505 0)
(0.276496 0.75307 -3.152e-19)
(0.177059 1.67208 -1.0483e-18)
(0.226124 1.21733 1.05063e-18)
(0.902055 0.00639421 0)
(0.967415 0.011112 0)
(0.974555 0.0108044 0)
(0.923325 0.00642365 0)
(-0.00290869 0.801308 0)
(-0.00809856 0.800502 0)
(0.00251666 0.512104 0)
(0.150952 0.121932 6.20003e-19)
(0.127692 0.11099 -7.31373e-19)
(0.1142 0.0846737 0)
(1.09626 0.0854695 2.71487e-20)
(1.07845 0.0389983 0)
(1.01137 0.0396472 0)
(0.905823 -0.00584046 0)
(0.460942 0.106131 0)
(0.519637 0.0873033 -2.45605e-18)
(0.399409 0.00949061 9.18203e-19)
(0.00876348 2.98123 7.21618e-19)
(-0.0323651 2.86562 4.71306e-20)
(0.00359013 3.05031 -1.80691e-20)
(0.020177 3.0433 6.42004e-19)
(-0.0149864 2.99657 2.99938e-20)
(-0.0129374 2.94944 -1.20669e-22)
(-0.0172745 3.01195 -5.54957e-19)
(0.0148798 3.02379 4.02146e-19)
(0.00740264 3.0369 -6.36845e-19)
(0.933748 -0.00130336 0)
(0.939299 -0.00326436 0)
(0.845687 -0.00945885 0)
(0.95656 0.0118814 0)
(0.942716 0.0132102 0)
(0.881611 0.00589405 0)
(0.917006 0.0172408 0)
(0.925948 0.0150208 0)
(0.838516 0.00243839 0)
(0.717479 1.40492 4.241e-20)
(0.750774 1.51363 0)
(0.182704 0.317005 7.05176e-20)
(0.227263 0.668278 5.68107e-19)
(0.262337 0.721034 -3.31641e-19)
(0.264052 0.524128 6.59587e-19)
(0.344951 0.809413 1.58763e-18)
(0.139646 0.22961 3.74826e-19)
(0.28521 0.155633 7.30838e-19)
(0.252543 0.151591 1.89781e-19)
(0.220417 0.0614938 3.60431e-19)
(1.17282 0.461727 5.95562e-20)
(1.18902 0.255459 5.4972e-20)
(0.00981223 2.23602 2.53444e-19)
(0.0406096 1.94512 0)
(0.969562 0.0291138 0)
(0.942544 0.0137438 0)
(0.86803 -0.0180035 0)
(0.0113641 3.0743 0)
(0.0197887 2.94421 1.17619e-18)
(0.01641 2.95634 0)
(0.00639077 2.85048 -1.16662e-18)
(0.00640078 3.09186 2.85512e-19)
(0.00700792 3.08225 0)
(0.783634 1.81528 -1.59841e-19)
(1.24304 2.49125 4.06935e-19)
(0.765613 1.95465 -1.23353e-18)
(0.0196156 2.9809 -6.20964e-19)
(0.0350798 2.99943 0)
(-0.0347388 2.87665 0)
(-0.00423677 2.22112 -1.31122e-20)
(-0.0033541 2.24201 6.5812e-21)
(0.0020994 1.97879 -7.31805e-21)
(0.277941 1.39368 1.02395e-18)
(0.23701 0.546359 -7.02172e-19)
(0.0636055 1.99842 7.62776e-19)
(0.135365 1.88473 -9.10146e-19)
(0.180276 1.50948 9.46865e-20)
(0.00585808 3.11822 -1.58909e-18)
(0.0122482 3.11904 1.73998e-18)
(-0.00931454 2.98047 7.93087e-19)
(-0.00415649 2.97718 -7.49093e-19)
(-0.0214342 2.88069 -8.07747e-19)
(0.00842804 3.09892 -2.12064e-18)
(0.00150527 3.10597 2.13796e-18)
(0.281244 0.694687 0)
(0.248125 0.684078 -1.17975e-18)
(0.0959243 0.225513 5.23898e-19)
(0.356722 0.935948 1.11055e-18)
(0.194715 0.275208 -1.71217e-18)
(1.18176 0.174017 6.37288e-20)
(1.18958 0.309949 0)
(1.17015 0.122016 -7.61845e-21)
(0.00107002 2.25299 -1.4893e-21)
(0.00448569 2.24512 0)
(0.0248325 1.98022 0)
(0.340093 1.30258 -3.67832e-19)
(0.373893 1.14773 -7.98942e-19)
(0.209204 0.376432 1.42409e-18)
(1.00588 -0.0108369 0)
(1.00767 -0.00763841 5.05608e-19)
(-0.0194409 1.32504 0)
(-0.0338015 1.32247 0)
(1.00221 0.00351089 1.80935e-21)
(1.00366 0.00946299 1.03228e-18)
(-0.01861 2.54002 1.50584e-20)
(-0.0233963 2.58253 0)
(0.0343302 3.17721 4.09836e-19)
(0.391568 3.48531 0)
(1.17092 0.660155 -5.91472e-20)
(1.01286 0.0131262 -2.13924e-21)
(1.02131 -0.010317 0)
(1.0017 0.000123551 7.74446e-23)
(0.104775 1.36288 0)
(0.14412 2.57337 0)
(0.0260676 1.30548 0)
(-0.000987366 2.62444 2.96519e-20)
(-0.0220928 2.58103 5.70954e-21)
(0.99926 0.0285581 2.23156e-21)
(1.06284 0.00449043 0)
(1.09698 0.0247152 0)
(-0.0272893 1.73554 0)
(-0.0186897 2.58219 0)
(-0.00388306 1.30736 0)
(0.311007 1.47738 -1.70749e-19)
(1.01129 -0.0096244 0)
(1.0094 -0.0149206 0)
(1.00237 0.000745609 6.46127e-19)
(1.00547 -0.00480579 -7.59432e-19)
(1.00118 -0.000973863 0)
(-0.0127448 1.45998 0)
(-0.00621148 1.37224 0)
(-0.00504948 1.41769 0)
(-0.00763865 1.29566 0)
(-0.0143484 1.28387 0)
(-0.00648972 1.26499 0)
(1.03494 -0.00612257 0)
(1.01987 0.015627 -8.53171e-22)
(0.820335 1.27192 2.59528e-19)
(1.00223 0.000310162 -6.43667e-19)
(1.00406 0.00525639 7.53547e-19)
(1.00118 0.00207203 0)
(1.01275 0.010345 6.40531e-19)
(1.00799 0.00830716 -7.76113e-19)
(1.00856 0.0146927 0)
(-0.0233214 2.61009 0)
(-0.0247781 2.58977 -1.88593e-20)
(-0.0225722 2.6037 1.34325e-20)
(1.23525 0.265761 5.83918e-19)
(1.16104 0.0864163 0)
(0.0408718 3.07817 -9.15501e-19)
(0.0645523 2.85622 -6.66673e-20)
(0.138929 3.19234 1.40077e-18)
(0.134307 3.22005 -1.9851e-19)
(0.13361 3.23122 0)
(0.0187269 3.13729 2.36421e-19)
(0.0743579 3.1601 9.02945e-19)
(0.0672231 3.18522 -4.45685e-19)
(0.0217047 3.12979 0)
(0.602517 0.277761 0)
(0.52672 0.30638 0)
(1.14164 0.696308 1.36009e-19)
(1.13637 0.817746 -1.2152e-19)
(1.19881 0.582943 0)
(1.22729 0.51796 0)
(1.01607 0.0133597 -1.19396e-18)
(1.01498 0.014276 1.49873e-18)
(1.02534 -0.00983742 0)
(1.02341 -0.0118721 0)
(1.00642 0.00260563 0)
(1.01042 0.00372614 0)
(1.00459 0.00185429 0)
(1.0098 0.00623482 0)
(1.00782 0.00596106 0)
(1.00451 0.00470544 0)
(0.0938697 1.36069 0)
(0.0887386 1.32737 0)
(0.127191 1.39948 0)
(0.143282 1.40436 0)
(0.145589 2.59828 0)
(0.185599 2.66783 -4.23456e-19)
(0.10119 2.65403 0)
(0.0848798 2.65662 1.97711e-19)
(0.0380448 2.6791 -1.49631e-19)
(0.0190225 1.31814 0)
(0.0208455 1.24565 0)
(0.0195563 1.3293 0)
(0.0341306 1.26705 0)
(0.00232944 1.98377 1.22644e-21)
(-0.0209211 2.60889 -1.61914e-20)
(-0.00931998 2.66595 1.54947e-20)
(-0.0190642 2.68439 0)
(-0.0236592 2.61461 -9.9787e-21)
(-0.0236579 2.60942 9.77163e-21)
(0.0112557 1.98231 1.70349e-21)
(-0.00791668 2.39706 2.1724e-20)
(-0.0140281 2.41896 -1.75724e-20)
(1.00932 0.0381043 1.21576e-18)
(1.00509 0.0160477 -1.50808e-18)
(1.00168 0.0457962 -1.22751e-18)
(0.976401 0.027715 1.55488e-18)
(1.06406 0.00828512 0)
(1.04923 -0.00832964 0)
(1.09408 0.0347965 0)
(1.0741 0.012757 0)
(1.07188 0.000441555 0)
(1.13998 0.0825641 0)
(1.11138 0.0442219 0)
(1.11497 0.0321046 0)
(-0.0240664 2.43164 1.20355e-21)
(-0.0131537 2.01079 0)
(-0.0138062 2.21489 0)
(-0.0204454 2.60292 -1.0117e-20)
(-0.0177498 2.61275 1.51085e-22)
(0.00341545 1.56998 -3.37496e-20)
(-0.00437535 1.49881 3.43707e-20)
(-0.0136602 1.38812 0)
(-0.0171617 1.39491 0)
(-0.021485 1.38968 0)
(-0.00324386 1.3081 0)
(0.00738256 1.23592 0)
(0.387309 1.49461 2.78465e-19)
(0.430319 1.49501 1.45695e-19)
(0.597853 2.44692 -2.39912e-19)
(0.399334 2.5442 7.06147e-19)
(0.351273 2.05736 7.07459e-20)
(1.02105 -0.0081327 0)
(1.0155 -0.00975727 0)
(1.01491 -0.0155055 0)
(1.0074 -0.00109641 0)
(1.00493 -0.00091848 0)
(1.00778 -0.00470198 0)
(1.00927 -0.00362875 0)
(1.01421 -0.0043958 0)
(1.02063 0.0162774 1.1695e-18)
(1.01774 0.0155769 -1.4962e-18)
(1.02094 0.0182806 -1.17849e-18)
(1.01862 0.0165994 1.47578e-18)
(0.78383 1.32275 0)
(0.720982 1.37213 2.46594e-19)
(0.894613 1.22284 9.68639e-20)
(0.940156 1.16746 -1.28864e-19)
(1.1553 2.60129 2.73555e-19)
(0.774307 0.120929 5.98859e-19)
(1.163 0.108121 0)
(1.21123 0.193304 -4.69684e-19)
(1.19801 0.15469 -1.99529e-20)
(1.00609 0.155497 0)
(0.130471 2.95912 5.32943e-19)
(0.107103 2.86532 -1.1612e-18)
(0.0162683 2.37482 7.77549e-19)
(0.0926761 -0.123514 -3.36746e-19)
(0.336703 3.41519 -2.15337e-19)
(0.191971 3.30936 0)
(0.235438 3.35016 2.80445e-19)
(0.240934 3.03164 -1.77918e-18)
(0.334186 3.18988 0)
(0.00629685 3.12088 4.62448e-20)
(0.017228 3.12947 -5.42991e-19)
(0.0150312 3.12558 7.99185e-19)
(0.0345249 3.13966 0)
(0.0326378 3.15034 0)
(1.21157 2.59914 0)
(0.542844 0.811259 -5.27809e-19)
(1.06307 0.991241 -6.34039e-21)
(0.997167 1.07686 0)
(0.850759 0.973421 -1.10209e-19)
(1.08732 0.892437 2.81679e-20)
(0.326226 0.348714 -8.6978e-19)
(0.665917 0.319076 -1.78369e-20)
(0.588702 0.221232 4.11639e-19)
(0.553073 0.34287 3.03898e-20)
(0.447841 0.290279 -1.22129e-18)
(0.628803 0.322756 0)
(0.704319 0.419781 7.01808e-19)
(0.710569 0.422003 0)
(0.590204 0.340232 0)
(0.531227 0.249897 0)
(0.818129 0.620372 4.13937e-19)
(1.23629 0.288113 -4.91938e-19)
(1.23578 0.42649 0)
(1.24436 0.366918 0)
(0.702023 0.194758 6.19719e-19)
(0.866974 0.549151 -3.80499e-19)
(0.76456 0.51885 6.75682e-19)
(0.959851 0.440895 -7.41679e-19)
(1.01932 0.0149054 8.023e-19)
(1.01763 0.0143239 -8.07461e-19)
(1.01591 0.0154153 0)
(1.0364 -0.00565868 0)
(1.02985 -0.00841284 -7.56242e-19)
(1.02789 -0.0119894 7.48723e-19)
(1.02488 0.0103792 0)
(1.02342 0.0140962 0)
(1.01142 0.00413571 0)
(1.01422 0.00912352 0)
(1.01515 0.00413157 0)
(1.01426 0.00286963 0)
(0.0625253 1.34438 0)
(0.0673865 1.29601 0)
(0.144176 1.38167 1.3334e-20)
(0.281261 1.47529 9.17412e-20)
(0.173459 1.44643 1.93574e-19)
(0.206646 1.45152 -3.15097e-19)
(0.169065 1.40676 0)
(0.135814 1.60026 -6.96123e-20)
(0.118276 1.57705 0)
(0.348563 2.00808 -1.02863e-19)
(0.343589 2.34278 6.13947e-19)
(0.1932 1.46167 6.06731e-20)
(0.266507 1.39472 2.46497e-20)
(0.202101 1.38482 -1.99738e-20)
(0.278545 1.33851 -9.99116e-20)
(0.244184 1.58173 0)
(0.267597 1.61931 1.09869e-19)
(0.0306103 2.26396 -2.87436e-20)
(0.0430838 2.66856 0)
(0.0661065 2.40064 1.33327e-19)
(0.0625573 2.42148 0)
(0.0691125 2.67031 -2.19094e-19)
(0.0485972 2.69853 0)
(0.0265191 1.42556 2.97887e-20)
(0.033756 1.4776 0)
(0.0287943 1.39379 0)
(0.0238241 1.39738 -3.36119e-20)
(-0.000347098 2.65224 -1.72816e-20)
(0.0290157 2.69767 1.68075e-19)
(0.00965212 2.72229 1.18751e-21)
(0.00239924 1.83344 -4.47423e-22)
(-0.0034294 1.68566 -2.20809e-21)
(0.0145594 1.29872 0)
(0.0205058 1.22135 0)
(0.0462043 1.58597 -2.64972e-20)
(0.0292174 1.45942 -3.21463e-20)
(0.0360389 1.52427 4.04247e-20)
(0.0391798 1.61013 0)
(-0.0293469 2.2704 9.26437e-20)
(-0.030515 2.54975 -3.8885e-20)
(-0.0164128 2.44717 3.49408e-21)
(-0.00389567 1.84998 5.42151e-22)
(-0.0255924 2.49937 1.02268e-21)
(-0.0210019 2.44276 4.33589e-21)
(1.01877 0.021169 -8.01152e-19)
(1.01445 0.0273158 8.02435e-19)
(1.01363 0.0169062 0)
(1.01146 0.0717326 1.12431e-18)
(0.990832 0.0590885 -1.26526e-18)
(0.948795 0.0519587 1.4132e-18)
(1.01433 0.112241 -1.50058e-19)
(1.0428 -0.00566426 0)
(1.05114 -0.0013233 7.21219e-19)
(1.03908 -0.0098209 -7.22737e-19)
(1.07149 0.0425964 -4.28881e-20)
(1.06471 0.023874 3.69836e-19)
(1.06331 0.0564413 0)
(1.05364 0.0501243 -1.3301e-19)
(1.0326 0.0431519 0)
(1.02534 0.0395446 0)
(1.02782 0.0134527 0)
(1.02389 0.0161092 0)
(1.03996 0.032513 2.74036e-19)
(1.03918 0.0276135 -6.05925e-19)
(1.05107 0.0343393 -2.90348e-19)
(1.04821 0.0343278 -3.19892e-19)
(1.07138 0.0649312 6.23678e-19)
(1.09667 0.052512 0)
(1.10539 0.0965532 0)
(-0.0248612 2.27554 5.23275e-20)
(-0.0230935 2.01755 7.48722e-22)
(-0.0194444 2.02449 0)
(-0.0269323 2.44493 -5.20957e-20)
(-0.0214658 2.40076 -1.89319e-21)
(-0.031894 2.47266 5.42941e-21)
(-0.0209896 2.62191 -8.95046e-21)
(-0.0231961 2.56353 -1.15603e-22)
(-0.0214992 2.51511 -2.19834e-21)
(-0.0159947 2.61577 8.77174e-21)
(-0.0210141 2.61773 -9.17194e-21)
(-0.00481842 1.49016 -4.25602e-22)
(0.00424405 1.61841 -3.11077e-20)
(0.371988 1.4443 -1.18005e-19)
(0.371624 1.38196 3.32136e-20)
(0.661543 1.42236 -2.38508e-19)
(0.529209 1.48812 -1.43197e-19)
(0.587828 1.45443 0)
(0.59368 2.42376 2.0669e-19)
(0.661835 2.41861 3.37279e-19)
(0.411595 2.51395 8.75374e-20)
(0.403109 2.53845 -6.08363e-19)
(0.511032 2.47995 6.1182e-19)
(0.553507 2.46069 0)
(0.488633 2.51835 -5.58934e-19)
(0.248786 2.59139 1.14331e-18)
(0.355066 2.56328 -7.79327e-20)
(0.284369 2.65304 -1.58548e-18)
(0.947889 2.37609 7.25416e-19)
(0.838268 2.38138 0)
(1.01106 0.000505019 2.62101e-20)
(1.01533 -0.00540173 -2.12644e-20)
(1.01766 -0.00351867 -3.88384e-19)
(1.01501 -0.000874955 3.90414e-19)
(1.01243 0.00121458 0)
(0.647276 1.28769 0)
(0.669223 1.18315 0)
(0.782212 1.102 0)
(0.661923 1.14625 0)
(1.18524 2.61493 5.97732e-20)
(1.07344 2.36206 0)
(0.835228 2.1686 3.80367e-21)
(0.82456 2.4337 0)
(0.922279 2.5269 -4.20137e-19)
(0.957545 2.48301 2.79495e-19)
(0.802015 0.179414 0)
(0.750417 0.1541 1.62447e-19)
(0.912169 0.150302 9.45523e-19)
(0.826919 0.153438 -3.55111e-19)
(0.784429 0.0890117 -1.09152e-18)
(1.08139 0.239087 -8.92308e-19)
(0.998785 0.300476 -1.68425e-20)
(0.929331 0.303625 8.61263e-19)
(1.00776 0.231451 7.20703e-19)
(0.95002 0.196282 -1.25163e-18)
(0.913307 0.200539 1.56488e-19)
(0.952692 0.265419 -3.32164e-19)
(0.928527 0.227076 0)
(0.994898 0.192562 6.17179e-19)
(1.04696 0.192503 0)
(1.04451 0.2205 0)
(1.10695 0.120234 2.89641e-19)
(1.07091 0.179517 -1.48725e-20)
(1.07516 0.239269 -1.57625e-19)
(1.10156 0.205546 0)
(1.02326 0.0471787 6.17797e-19)
(1.03959 0.0599884 7.70597e-19)
(1.03414 0.0458181 -6.12518e-19)
(1.04318 0.0671234 -5.16393e-19)
(1.02078 0.0753175 -7.91434e-19)
(0.986958 0.160699 0)
(0.994735 0.1061 0)
(0.96455 0.0702339 -5.02126e-19)
(0.907737 0.0969388 1.98734e-19)
(1.03959 0.106934 7.14404e-19)
(1.06927 0.123699 -8.35409e-19)
(1.07529 0.156124 7.45917e-19)
(1.03033 0.147766 0)
(1.07502 0.11142 0)
(1.05491 0.0923859 -3.42254e-19)
(1.04355 0.0965678 -5.83898e-19)
(0.579364 1.05917 1.38443e-19)
(0.606113 1.38685 -3.99204e-20)
(1.15513 2.73082 -2.24811e-19)
(1.22101 3.07292 1.25889e-21)
(1.24704 2.71379 -1.19352e-19)
(1.27585 2.69716 -3.4285e-20)
(1.20345 2.33759 -1.09095e-20)
(1.20861 2.97682 -9.09075e-20)
(1.2286 2.94224 2.30608e-19)
(1.21129 3.22594 -1.44265e-19)
(1.37119 2.95707 1.99378e-19)
(1.36019 2.8752 0)
(0.557934 0.819595 -5.00193e-20)
(0.116201 1.23229 5.69275e-19)
(0.549643 0.379358 5.66567e-19)
(0.388097 0.126365 6.18415e-19)
(0.487901 0.330205 6.91065e-19)
(0.541806 0.443102 -1.11318e-18)
(0.544127 0.440266 9.10477e-19)
(0.471948 0.337274 -3.45943e-19)
(0.360707 0.267123 7.85568e-19)
(0.720295 0.265643 -3.57483e-19)
(0.681756 0.288886 0)
(0.636043 0.207349 7.34845e-21)
(0.738659 0.50583 3.6948e-19)
(0.713386 0.476824 -1.34493e-18)
(0.617514 0.450715 1.23434e-20)
(0.619332 0.440517 0)
(0.686996 0.720246 3.97153e-19)
(0.847626 0.777419 3.96696e-19)
(0.772233 0.860486 -4.64169e-19)
(0.895112 0.815665 -1.55744e-19)
(0.927071 0.86018 -3.77012e-20)
(0.934172 0.86042 3.86059e-20)
(0.860501 0.655984 -6.85664e-19)
(0.941269 0.710066 1.44653e-19)
(1.0017 0.72624 0)
(0.992477 0.702719 -1.95828e-19)
(1.02812 0.340144 2.13345e-19)
(1.14766 0.303988 2.89214e-19)
(1.06895 0.276201 3.64815e-19)
(1.01681 0.372451 -4.32264e-19)
(1.0649 0.435217 0)
(1.12069 0.418857 0)
(0.92316 0.37486 2.62842e-21)
(0.841531 0.310179 0)
(0.88482 0.307201 4.06357e-19)
(0.911314 0.311437 -7.14772e-21)
(0.953383 0.443822 2.06625e-18)
(0.912842 0.49943 5.32854e-19)
(0.918573 0.466321 -5.6761e-19)
(0.837038 0.451311 6.08477e-19)
(0.819726 0.44379 3.65116e-19)
(0.788954 0.426069 -3.59124e-19)
(1.02735 -0.000272335 6.46911e-19)
(1.01999 3.42368e-05 0)
(1.01852 0.000961025 4.21815e-19)
(1.02171 -0.0015858 -9.55526e-19)
(1.02235 0.00444836 4.64196e-19)
(1.02033 0.01145 -9.72061e-19)
(1.02124 0.0108188 0)
(1.0205 0.0110389 -2.02599e-19)
(1.01595 0.00780809 5.08266e-19)
(1.01663 0.0105852 -2.53612e-19)
(1.01733 0.00993382 1.86775e-19)
(0.028177 1.31982 0)
(0.034208 1.36661 0)
(0.0428422 1.32112 0)
(0.0471162 1.27405 0)
(0.0701515 1.39095 -5.19844e-20)
(0.076943 1.35974 2.26533e-20)
(0.115649 1.53464 -1.15852e-20)
(0.0980284 1.3805 -8.2362e-21)
(0.0341587 1.46463 1.39949e-20)
(0.0380565 1.45799 -1.06361e-20)
(0.0619185 1.37569 -8.68111e-21)
(0.0538758 1.37672 4.43882e-20)
(0.0475629 1.35187 6.46784e-21)
(0.0384985 1.37491 3.1843e-21)
(0.107577 2.37023 -1.4714e-19)
(0.0964749 2.41769 0)
(0.171644 2.04521 1.06532e-19)
(0.112905 1.71052 3.76189e-20)
(0.234297 2.03944 -8.88244e-20)
(0.202137 2.43055 0)
(0.263865 2.3804 -6.02128e-19)
(0.304113 2.37801 4.25723e-19)
(0.23124 2.00063 -2.45976e-19)
(0.155956 2.15964 1.68183e-19)
(0.142521 2.26725 0)
(0.0175835 1.87891 5.5692e-21)
(-0.000913861 2.39458 -3.62272e-20)
(0.00526304 2.15054 0)
(0.0108137 2.45718 -1.35592e-20)
(0.0275197 2.30112 8.87835e-21)
(0.0158819 1.4067 -6.20969e-21)
(0.0144344 1.39153 1.0567e-19)
(0.013677 1.3968 -3.49026e-20)
(0.020661 1.39828 -2.94456e-20)
(0.0252869 1.42938 0)
(0.00981793 1.37837 0)
(0.000694773 1.29257 -4.07172e-20)
(0.00710057 1.36986 1.14081e-20)
(0.00950566 1.37004 0)
(0.00839091 1.28635 -3.03571e-20)
(0.0164497 1.21189 6.18977e-20)
(1.04072 0.0119215 0)
(1.04687 0.00817242 -6.76687e-20)
(1.0386 0.0219869 -4.88408e-19)
(1.04828 0.0208496 0)
(1.05233 0.0207429 0)
(1.03629 0.0121167 -6.80602e-21)
(1.03096 0.0119382 7.85014e-19)
(1.0317 0.0168723 9.51732e-19)
(1.02549 0.0207569 0)
(1.0223 0.0211203 0)
(1.03507 0.0257698 4.87229e-19)
(1.02554 0.0271971 0)
(1.02361 0.0273198 0)
(-0.0186322 2.02215 0)
(0.00103328 1.64858 -4.32431e-21)
(-0.00463 1.75752 -2.9769e-20)
(0.00081387 1.38078 0)
(-0.00705431 1.54857 -1.60973e-20)
(-0.00775045 1.4583 1.04894e-20)
(-0.00225353 1.39413 0)
(0.39093 1.65043 0)
(0.374883 1.30969 -6.6481e-20)
(0.303388 1.34476 0)
(0.428343 1.30781 1.40408e-21)
(0.476989 1.46626 0)
(0.457782 1.4128 2.71986e-20)
(1.03667 2.67726 -1.53329e-20)
(0.968483 2.40492 -9.11782e-19)
(0.92143 2.19272 1.02361e-18)
(0.852232 2.37324 2.41708e-19)
(0.848067 2.48731 0)
(0.917938 2.48339 0)
(0.931223 2.36969 0)
(0.910138 2.35878 -9.42721e-19)
(0.687976 2.45193 -3.92922e-19)
(0.800809 2.44151 -9.73406e-20)
(0.811182 2.41554 7.39922e-20)
(0.695874 2.3917 0)
(0.800907 2.38681 0)
(0.75917 2.40027 -3.68167e-19)
(0.768249 2.47739 0)
(0.627315 1.09361 0)
(0.480812 0.904759 -5.06372e-19)
(0.563181 0.946308 -3.2092e-20)
(0.519732 1.03767 0)
(0.519952 0.982187 7.58886e-19)
(0.792908 0.883383 -1.30218e-19)
(0.805195 1.02001 0)
(0.78006 0.986651 1.86152e-19)
(0.662261 1.03301 0)
(0.663928 0.935979 0)
(1.16404 2.75365 -2.28352e-19)
(1.14151 2.81698 -9.59218e-20)
(0.929823 2.33238 9.83422e-20)
(0.89771 2.3117 -8.27298e-20)
(1.12957 2.72667 0)
(1.08337 2.69619 9.95357e-20)
(1.08958 2.48011 -3.13034e-19)
(0.98416 2.23265 -3.04544e-20)
(0.494131 1.33518 0)
(0.509152 1.06354 -1.22039e-19)
(0.575965 1.16775 0)
(0.854894 0.245758 0)
(0.767616 0.195196 0)
(0.689728 0.155519 0)
(0.846472 0.247314 -6.39609e-19)
(0.740602 0.23811 3.7291e-19)
(0.924032 0.0859434 -4.10323e-19)
(0.933033 0.130207 0)
(0.918059 0.139161 1.769e-19)
(0.853643 0.1175 7.08223e-19)
(0.81809 0.0777373 -4.44086e-19)
(1.15679 3.35102 -7.21165e-19)
(1.20561 3.27046 0)
(1.15443 3.37982 -1.4919e-18)
(0.642721 3.54114 1.26632e-18)
(0.865128 3.10974 7.46729e-20)
(0.519998 0.810852 6.02497e-19)
(0.425406 0.807395 0)
(0.314778 0.412515 -1.49379e-19)
(0.467054 0.656682 8.56589e-19)
(0.552472 0.382023 -1.98815e-19)
(0.512551 0.473504 2.32506e-19)
(0.67042 0.515716 4.98452e-19)
(0.707394 0.550095 0)
(0.658121 0.583528 0)
(0.620727 0.531912 0)
(1.00309 0.612398 9.01011e-20)
(0.917728 0.549447 -5.18706e-19)
(0.943034 0.581835 3.91229e-19)
(0.97525 0.520815 -4.00969e-19)
(1.08247 0.492351 0)
(1.09086 0.582027 -9.80665e-20)
(0.858003 0.404472 -8.35007e-19)
(0.858065 0.393643 -1.03467e-18)
(0.795802 0.3888 6.50862e-19)
(0.802583 0.364825 -6.62431e-19)
(0.846367 0.328402 -5.22077e-19)
(0.795162 0.328874 6.39159e-19)
(1.02667 0.00599825 -4.9334e-19)
(1.02637 0.00622055 1.00328e-18)
(1.02942 0.000163527 6.26905e-19)
(1.03362 0.00106994 -7.55011e-19)
(1.03376 0.0091613 0)
(1.03004 0.00985496 -1.22921e-18)
(0.0631673 1.6443 1.96173e-20)
(0.0467325 1.58543 0)
(0.0873811 1.6951 1.1605e-19)
(0.097908 1.67725 -1.01592e-19)
(0.0899205 1.54322 2.17147e-20)
(0.0889875 1.53549 0)
(0.0104852 1.68184 0)
(-0.00338667 1.48743 5.92192e-21)
(-0.0025853 1.43354 -5.32596e-21)
(-0.00750269 1.54535 5.34638e-21)
(0.00123001 1.88254 8.86161e-21)
(-0.0107308 1.93548 -8.27852e-22)
(0.498152 1.36128 -2.72715e-19)
(0.491571 1.36291 2.99567e-19)
(0.455029 1.30242 -2.85106e-20)
(0.438155 1.28841 7.64723e-21)
(0.639193 1.30635 0)
(0.555566 1.39567 1.069e-19)
(0.570737 1.4023 -1.04071e-19)
(0.468676 1.29024 2.77412e-20)
(0.522178 1.24138 0)
(0.573993 1.20362 0)
(0.655089 2.41163 5.77204e-19)
(0.67029 2.45282 1.25802e-18)
(0.714774 2.46357 -8.66689e-19)
(0.611065 2.4379 -2.01614e-19)
(0.560973 2.52805 2.82841e-19)
(0.509982 2.50266 -7.54357e-19)
(0.978376 2.37618 -5.72739e-19)
(1.0129 2.38844 0)
(0.925928 2.17058 -6.59246e-19)
(1.05423 2.67526 0)
(1.0565 2.66188 0)
(0.601687 2.26111 -1.20792e-19)
(1.03799 3.15554 1.33674e-19)
(0.908997 3.02598 -3.78975e-20)
(0.268286 0.862421 0)
(0.297526 0.709647 -3.16329e-19)
(0.465585 0.668158 -3.17315e-19)
(0.381288 2.00598 0)
(0.462929 2.7801 -5.19796e-20)
(0.417287 2.54282 0)
(0.708353 0.670496 -8.39776e-19)
(0.790626 0.681968 1.13012e-18)
(0.812784 0.625113 -1.11687e-18)
(0.687893 0.63409 -1.08011e-19)
(0.742654 0.590326 -4.4383e-19)
(1.00145 2.75562 -1.0166e-19)
(1.04157 2.81576 -1.61084e-19)
(0.633811 2.12792 6.84131e-19)
(0.586893 1.69536 -4.87711e-19)
(0.695112 1.89274 -4.02638e-19)
(0.987519 2.43919 -1.12928e-19)
(0.994137 2.43232 2.92907e-19)
(0.652373 1.82795 2.79605e-20)
(0.443172 1.31529 1.42916e-19)
)
;

boundaryField
{
    wall-4
    {
        type            noSlip;
    }
    velocity-inlet-5
    {
        type            fixedValue;
        value           uniform (1 0 0);
    }
    velocity-inlet-6
    {
        type            fixedValue;
        value           uniform (0 3 0);
    }
    pressure-outlet-7
    {
        type            zeroGradient;
    }
    wall-8
    {
        type            noSlip;
    }
    frontAndBackPlanes
    {
        type            empty;
    }
}


// ************************************************************************* //
