/*--------------------------------*- C++ -*----------------------------------*\
  =========                 |
  \\      /  F ield         | OpenFOAM: The Open Source CFD Toolbox
   \\    /   O peration     | Website:  https://openfoam.org
    \\  /    A nd           | Version:  13
     \\/     M anipulation  |
\*---------------------------------------------------------------------------*/
FoamFile
{
    format      ascii;
    class       volScalarField;
    location    "2.21";
    object      T;
}
// * * * * * * * * * * * * * * * * * * * * * * * * * * * * * * * * * * * * * //

dimensions      [0 0 0 1 0 0 0];

internalField   nonuniform List<scalar> 
1000
(
1.45642e-94
2.68567e-94
6.17243e-94
1.48256e-93
3.58394e-93
8.66206e-93
2.09075e-92
5.03874e-92
1.21245e-91
2.91291e-91
6.98728e-91
1.67343e-90
4.00151e-90
9.55338e-90
2.27722e-89
5.41961e-89
1.28779e-88
3.05517e-88
7.23666e-88
1.7114e-87
4.04089e-87
9.52602e-87
2.2421e-86
5.26874e-86
1.23614e-85
2.89556e-85
6.7718e-85
1.58118e-84
3.68606e-84
8.5792e-84
1.99358e-83
4.62512e-83
1.0713e-82
2.47744e-82
5.71994e-82
1.3185e-81
3.03434e-81
6.97183e-81
1.59928e-80
3.66267e-80
8.37463e-80
1.91173e-79
4.35693e-79
9.91348e-79
2.25197e-78
5.10728e-78
1.1564e-77
2.61403e-77
5.89935e-77
1.32918e-76
2.98985e-76
6.71428e-76
1.50534e-75
3.36941e-75
7.52931e-75
1.67973e-74
3.74113e-74
8.31854e-74
1.84659e-73
4.09236e-73
9.05428e-73
1.99991e-72
4.41005e-72
9.7085e-72
2.13371e-71
4.68156e-71
1.02546e-70
2.24243e-70
4.89543e-70
1.06692e-69
2.32136e-69
5.04222e-69
1.09337e-68
2.36691e-68
5.11518e-68
1.10358e-67
2.37692e-67
5.11076e-67
1.09703e-66
2.3508e-66
5.02889e-66
1.07396e-65
2.28962e-65
4.87302e-65
1.03535e-64
2.19602e-64
4.64986e-64
9.82874e-64
2.074e-63
4.36893e-63
9.18739e-63
1.92868e-62
4.04185e-62
8.45568e-62
1.7659e-61
3.68156e-61
7.66204e-61
1.59185e-60
3.30147e-60
6.83527e-60
1.41269e-59
2.91463e-59
6.00289e-59
1.23418e-58
2.53301e-58
5.1896e-58
1.06138e-57
2.16693e-57
4.41626e-57
8.98464e-57
1.82466e-56
3.69911e-56
7.48594e-56
1.51226e-55
3.04958e-55
6.13881e-55
1.23355e-54
2.47434e-54
4.95439e-54
9.90257e-54
1.97575e-53
3.93497e-53
7.82305e-53
1.55251e-52
3.0755e-52
6.08161e-52
1.20045e-51
2.36531e-51
4.65213e-51
9.13344e-51
1.78993e-50
3.50149e-50
6.83732e-50
1.33271e-49
2.59297e-49
5.03586e-49
9.76253e-49
1.88913e-48
3.649e-48
7.03551e-48
1.35402e-47
2.60115e-47
4.98782e-47
9.54693e-47
1.82399e-46
3.47844e-46
6.62144e-46
1.25812e-45
2.38613e-45
4.51719e-45
8.53577e-45
1.60996e-44
3.03102e-44
5.69586e-44
1.06838e-43
2.00028e-43
3.73809e-43
6.97274e-43
1.29823e-42
2.41263e-42
4.4753e-42
8.28601e-42
1.53129e-41
2.82463e-41
5.20058e-41
9.5572e-41
1.75306e-40
3.20958e-40
5.86522e-40
1.06981e-39
1.94764e-39
3.53912e-39
6.41894e-39
1.16202e-38
2.09963e-38
3.78661e-38
6.81611e-38
1.22462e-37
2.19605e-37
3.93059e-37
7.02181e-37
1.25203e-36
2.22819e-36
3.9579e-36
7.01693e-36
1.24165e-35
2.19292e-35
3.86559e-35
6.80106e-35
1.19428e-34
2.09314e-34
3.6615e-34
6.39271e-34
1.11397e-33
1.93743e-33
3.36311e-33
5.82664e-33
1.00752e-32
1.73881e-32
2.99509e-32
5.14901e-32
8.83479e-32
1.51295e-31
2.58589e-31
4.41113e-31
7.51008e-31
1.27612e-30
2.16418e-30
3.66307e-30
6.18797e-30
1.04328e-29
1.75551e-29
2.94819e-29
4.94145e-29
8.26611e-29
1.38005e-28
2.29949e-28
3.82397e-28
6.3466e-28
1.05126e-27
1.73789e-27
2.86732e-27
4.72139e-27
7.75897e-27
1.27256e-26
2.083e-26
3.40282e-26
5.54785e-26
9.02708e-26
1.4659e-25
2.37573e-25
3.84258e-25
6.20272e-25
9.99249e-25
1.60656e-24
2.57781e-24
4.12795e-24
6.59701e-24
1.05218e-23
1.67478e-23
2.66045e-23
4.21772e-23
6.67308e-23
1.05366e-22
1.66034e-22
2.61107e-22
4.09791e-22
6.41842e-22
1.00326e-21
1.56503e-21
2.43641e-21
3.78527e-21
5.86897e-21
9.08124e-21
1.40231e-20
2.16103e-20
3.32348e-20
5.10083e-20
7.81271e-20
1.1942e-19
1.82165e-19
2.7731e-19
4.21286e-19
6.38705e-19
9.66348e-19
1.45907e-18
2.19851e-18
3.3059e-18
4.96086e-18
7.42904e-18
1.11023e-17
1.65578e-17
2.4643e-17
3.66009e-17
5.42491e-17
8.02412e-17
1.18442e-16
1.74467e-16
2.56463e-16
3.76216e-16
5.50743e-16
8.04566e-16
1.17293e-15
1.70641e-15
2.47737e-15
3.58919e-15
5.18918e-15
7.48682e-15
1.07793e-14
1.54875e-14
2.22058e-14
3.1772e-14
4.53646e-14
6.46373e-14
9.19055e-14
1.30404e-13
1.84644e-13
2.60896e-13
3.67868e-13
5.17614e-13
7.26792e-13
1.01836e-12
1.42392e-12
1.98681e-12
2.76639e-12
3.84379e-12
5.32957e-12
7.37414e-12
1.01816e-11
1.40284e-11
1.92879e-11
2.64634e-11
3.62319e-11
4.95019e-11
6.74894e-11
9.18191e-11
1.24656e-10
1.6888e-10
2.28309e-10
3.08e-10
4.14629e-10
5.56995e-10
7.46661e-10
9.98795e-10
1.33325e-09
1.77592e-09
2.36058e-09
3.13106e-09
4.14424e-09
5.47366e-09
7.21422e-09
9.48812e-09
1.24523e-08
1.63079e-08
2.1312e-08
2.77926e-08
3.61669e-08
4.69647e-08
6.08569e-08
7.86912e-08
1.01536e-07
1.30735e-07
1.67973e-07
2.1536e-07
2.7553e-07
3.51762e-07
4.48133e-07
5.69694e-07
7.22694e-07
9.14838e-07
1.15561e-06
1.45666e-06
1.83223e-06
2.29974e-06
2.88043e-06
3.60009e-06
4.49002e-06
5.58805e-06
6.93988e-06
8.60046e-06
1.06358e-05
1.3125e-05
1.61624e-05
1.98607e-05
2.43535e-05
2.97996e-05
3.63865e-05
4.43355e-05
5.39068e-05
6.54062e-05
7.91912e-05
9.56793e-05
0.000115357
0.000138788
0.000166628
0.00019963
0.000238668
0.000284739
0.000338991
0.000402734
0.000477461
0.000564868
0.000666881
0.000785671
0.000923691
0.00108369
0.00126877
0.00148236
0.00172831
0.00201089
0.00233483
0.00270535
0.0031282
0.00360968
0.0041567
0.00477678
0.0054781
0.00626953
0.00716064
0.00816173
0.00928384
0.0105388
0.0119391
0.0134982
0.0152301
0.0171497
0.0192724
0.0216146
0.024193
0.0270252
0.030129
0.033523
0.0372258
0.0412564
0.045634
0.0503777
0.0555066
0.0610394
0.0669944
0.0733895
0.0802416
0.0875668
0.0953801
0.103695
0.112525
0.121879
0.131766
0.142194
0.153166
0.164687
0.176754
0.189366
0.202518
0.216202
0.230406
0.245118
0.260321
0.275996
0.292121
0.308672
0.325621
0.342938
0.360593
0.378549
0.396772
0.415224
0.433864
0.452653
0.471549
0.490508
0.50949
0.528449
0.547344
0.566133
0.584773
0.603224
0.621446
0.639402
0.657055
0.674371
0.691318
0.707866
0.723988
0.739659
0.754858
0.769564
0.783762
0.797438
0.81058
0.823181
0.835234
0.846738
0.857691
0.868095
0.877955
0.887276
0.896066
0.904335
0.912094
0.919356
0.926133
0.932441
0.938294
0.943708
0.948699
0.953282
0.957475
0.961292
0.964749
0.96786
0.97064
0.973102
0.975257
0.977118
0.978694
0.979993
0.981024
0.981791
0.982301
0.982554
0.982554
0.982301
0.981791
0.981024
0.979993
0.978694
0.977118
0.975257
0.973102
0.97064
0.96786
0.964749
0.961292
0.957475
0.953282
0.948699
0.943708
0.938294
0.932441
0.926133
0.919356
0.912094
0.904335
0.896066
0.887276
0.877955
0.868095
0.857691
0.846738
0.835234
0.823181
0.81058
0.797438
0.783762
0.769564
0.754858
0.739659
0.723988
0.707866
0.691318
0.674371
0.657055
0.639402
0.621446
0.603224
0.584773
0.566133
0.547344
0.528449
0.50949
0.490508
0.471549
0.452653
0.433864
0.415224
0.396772
0.378549
0.360593
0.342938
0.325621
0.308672
0.292121
0.275996
0.260321
0.245118
0.230406
0.216202
0.202518
0.189366
0.176754
0.164687
0.153166
0.142194
0.131766
0.121879
0.112525
0.103695
0.0953801
0.0875668
0.0802416
0.0733895
0.0669944
0.0610394
0.0555066
0.0503777
0.045634
0.0412564
0.0372258
0.033523
0.030129
0.0270252
0.024193
0.0216146
0.0192724
0.0171497
0.0152301
0.0134982
0.0119391
0.0105388
0.00928384
0.00816173
0.00716064
0.00626953
0.0054781
0.00477678
0.0041567
0.00360968
0.0031282
0.00270535
0.00233483
0.00201089
0.00172831
0.00148236
0.00126877
0.00108369
0.000923691
0.000785671
0.000666881
0.000564868
0.000477461
0.000402734
0.000338991
0.000284739
0.000238668
0.00019963
0.000166628
0.000138788
0.000115357
9.56793e-05
7.91912e-05
6.54062e-05
5.39068e-05
4.43355e-05
3.63865e-05
2.97996e-05
2.43535e-05
1.98607e-05
1.61624e-05
1.3125e-05
1.06358e-05
8.60046e-06
6.93988e-06
5.58805e-06
4.49002e-06
3.60009e-06
2.88043e-06
2.29974e-06
1.83223e-06
1.45666e-06
1.15561e-06
9.14838e-07
7.22694e-07
5.69694e-07
4.48133e-07
3.51762e-07
2.7553e-07
2.1536e-07
1.67973e-07
1.30735e-07
1.01536e-07
7.86912e-08
6.08569e-08
4.69647e-08
3.61669e-08
2.77926e-08
2.1312e-08
1.63079e-08
1.24523e-08
9.48812e-09
7.21422e-09
5.47366e-09
4.14424e-09
3.13106e-09
2.36058e-09
1.77592e-09
1.33325e-09
9.98795e-10
7.46661e-10
5.56995e-10
4.14629e-10
3.08e-10
2.28309e-10
1.6888e-10
1.24656e-10
9.18191e-11
6.74894e-11
4.95019e-11
3.62319e-11
2.64634e-11
1.92879e-11
1.40284e-11
1.01816e-11
7.37414e-12
5.32957e-12
3.84379e-12
2.76639e-12
1.98681e-12
1.42392e-12
1.01836e-12
7.26792e-13
5.17614e-13
3.67868e-13
2.60896e-13
1.84644e-13
1.30404e-13
9.19055e-14
6.46373e-14
4.53646e-14
3.1772e-14
2.22058e-14
1.54875e-14
1.07793e-14
7.48682e-15
5.18918e-15
3.58919e-15
2.47737e-15
1.70641e-15
1.17293e-15
8.04566e-16
5.50743e-16
3.76216e-16
2.56463e-16
1.74467e-16
1.18442e-16
8.02412e-17
5.42491e-17
3.66009e-17
2.4643e-17
1.65578e-17
1.11023e-17
7.42904e-18
4.96086e-18
3.3059e-18
2.19851e-18
1.45907e-18
9.66348e-19
6.38705e-19
4.21286e-19
2.7731e-19
1.82165e-19
1.1942e-19
7.81271e-20
5.10083e-20
3.32348e-20
2.16103e-20
1.40231e-20
9.08124e-21
5.86897e-21
3.78527e-21
2.43641e-21
1.56503e-21
1.00326e-21
6.41842e-22
4.09791e-22
2.61107e-22
1.66034e-22
1.05366e-22
6.67308e-23
4.21772e-23
2.66045e-23
1.67478e-23
1.05218e-23
6.59701e-24
4.12795e-24
2.57781e-24
1.60656e-24
9.99249e-25
6.20272e-25
3.84258e-25
2.37573e-25
1.4659e-25
9.02708e-26
5.54785e-26
3.40282e-26
2.083e-26
1.27256e-26
7.75897e-27
4.72139e-27
2.86732e-27
1.73789e-27
1.05126e-27
6.3466e-28
3.82397e-28
2.29949e-28
1.38005e-28
8.26611e-29
4.94145e-29
2.94819e-29
1.75551e-29
1.04328e-29
6.18797e-30
3.66307e-30
2.16418e-30
1.27612e-30
7.51008e-31
4.41113e-31
2.58589e-31
1.51295e-31
8.83479e-32
5.14901e-32
2.99509e-32
1.73881e-32
1.00752e-32
5.82664e-33
3.36311e-33
1.93743e-33
1.11397e-33
6.39271e-34
3.6615e-34
2.09314e-34
1.19428e-34
6.80106e-35
3.86559e-35
2.19292e-35
1.24165e-35
7.01693e-36
3.9579e-36
2.22819e-36
1.25203e-36
7.02181e-37
3.93059e-37
2.19605e-37
1.22462e-37
6.81611e-38
3.78661e-38
2.09963e-38
1.16202e-38
6.41894e-39
3.53912e-39
1.94764e-39
1.06981e-39
5.86522e-40
3.20958e-40
1.75306e-40
9.5572e-41
5.20058e-41
2.82463e-41
1.53129e-41
8.28601e-42
4.4753e-42
2.41263e-42
1.29823e-42
6.97274e-43
3.73809e-43
2.00028e-43
1.06838e-43
5.69586e-44
3.03102e-44
1.60996e-44
8.53577e-45
4.51719e-45
2.38613e-45
1.25812e-45
6.62144e-46
3.47844e-46
1.82399e-46
9.54693e-47
4.98782e-47
2.60115e-47
1.35402e-47
7.03551e-48
3.649e-48
1.88913e-48
9.76253e-49
5.03586e-49
2.59297e-49
1.33271e-49
6.83732e-50
3.50149e-50
1.78993e-50
9.13344e-51
4.65213e-51
2.36531e-51
1.20045e-51
6.08161e-52
3.0755e-52
1.55251e-52
7.82305e-53
3.93497e-53
1.97575e-53
9.90257e-54
4.95439e-54
2.47434e-54
1.23355e-54
6.13881e-55
3.04958e-55
1.51226e-55
7.48594e-56
3.69911e-56
1.82466e-56
8.98464e-57
4.41626e-57
2.16693e-57
1.06138e-57
5.1896e-58
2.53301e-58
1.23418e-58
6.00289e-59
2.91463e-59
1.41269e-59
6.83527e-60
3.30147e-60
1.59185e-60
7.66204e-61
3.68156e-61
1.7659e-61
8.45568e-62
4.04185e-62
1.92868e-62
9.18739e-63
4.36893e-63
2.074e-63
9.82874e-64
4.64986e-64
2.19602e-64
1.03535e-64
4.87302e-65
2.28962e-65
1.07396e-65
5.02889e-66
2.3508e-66
1.09703e-66
5.11076e-67
2.37692e-67
1.10358e-67
5.11518e-68
2.36691e-68
1.09337e-68
5.04222e-69
2.32136e-69
1.06692e-69
4.89543e-70
2.24243e-70
1.02546e-70
4.68156e-71
2.13371e-71
9.7085e-72
4.41005e-72
1.99991e-72
9.05428e-73
4.09236e-73
1.84659e-73
8.31854e-74
3.74113e-74
1.67973e-74
7.52931e-75
3.36941e-75
1.50534e-75
6.71428e-76
2.98985e-76
1.32918e-76
5.89935e-77
2.61403e-77
1.1564e-77
5.10728e-78
2.25197e-78
9.91348e-79
4.35693e-79
1.91173e-79
8.37463e-80
3.66267e-80
1.59928e-80
6.97183e-81
3.03434e-81
1.3185e-81
5.71994e-82
2.47744e-82
1.0713e-82
4.62512e-83
1.99358e-83
8.5792e-84
3.68606e-84
1.58118e-84
6.7718e-85
2.89556e-85
1.23614e-85
5.26874e-86
2.2421e-86
9.52602e-87
4.04089e-87
1.7114e-87
7.23666e-88
3.05517e-88
1.28779e-88
5.41961e-89
2.27722e-89
9.55338e-90
4.00151e-90
1.67343e-90
6.98728e-91
2.91291e-91
1.21245e-91
5.03874e-92
2.09075e-92
8.66206e-93
3.58394e-93
1.48256e-93
6.17243e-94
2.68567e-94
1.45642e-94
)
;

boundaryField
{
    sides
    {
        type            zeroGradient;
    }
    empty
    {
        type            empty;
    }
}


// ************************************************************************* //
