/*--------------------------------*- C++ -*----------------------------------*\
  =========                 |
  \\      /  F ield         | OpenFOAM: The Open Source CFD Toolbox
   \\    /   O peration     | Website:  https://openfoam.org
    \\  /    A nd           | Version:  13
     \\/     M anipulation  |
\*---------------------------------------------------------------------------*/
FoamFile
{
    format      ascii;
    class       volScalarField;
    location    "1.47";
    object      T;
}
// * * * * * * * * * * * * * * * * * * * * * * * * * * * * * * * * * * * * * //

dimensions      [0 0 0 1 0 0 0];

internalField   nonuniform List<scalar> 
1000
(
2.15952e-132
5.65395e-132
1.82619e-131
6.02002e-131
1.98495e-130
6.53425e-130
2.14713e-129
7.04261e-129
2.30578e-128
7.53543e-128
2.45813e-127
8.004e-127
2.60143e-126
8.43957e-126
2.73293e-125
8.8336e-125
2.85e-124
9.178e-124
2.95017e-123
9.46545e-123
3.03129e-122
9.68961e-122
3.09154e-121
9.84539e-121
3.12953e-120
9.92911e-120
3.14432e-119
9.93865e-119
3.13552e-118
9.87356e-118
3.10325e-117
9.73505e-117
3.04815e-116
9.52599e-116
2.97138e-115
9.25077e-115
2.87455e-114
8.9152e-114
2.75969e-113
8.52625e-113
2.62918e-112
8.09186e-112
2.48564e-111
7.62062e-111
2.33186e-110
7.12152e-110
2.1707e-109
6.60365e-109
2.00503e-108
6.07593e-108
1.83762e-107
5.54687e-107
1.67105e-106
5.02434e-106
1.50769e-105
4.51536e-105
1.34963e-104
4.02603e-104
1.19862e-103
3.56141e-103
1.05609e-102
3.12548e-102
9.23134e-102
2.72111e-101
8.00495e-101
2.35018e-100
6.88607e-100
2.01358e-99
5.87613e-99
1.71134e-98
4.974e-98
1.44276e-97
4.17641e-97
1.20651e-96
3.47834e-96
1.00076e-95
2.87342e-95
8.23342e-95
2.35436e-94
6.71851e-94
1.91329e-93
5.43742e-93
1.54209e-92
4.36445e-92
1.23268e-91
3.47431e-91
9.77207e-91
2.74284e-90
7.6826e-90
2.14738e-89
5.98966e-89
1.66719e-88
4.63079e-88
1.28355e-87
3.55023e-87
9.79901e-87
2.69893e-86
7.41788e-86
2.03445e-85
5.56791e-85
1.52059e-84
4.14388e-84
1.12687e-83
3.05782e-83
8.27976e-83
2.23713e-82
6.0316e-82
1.62269e-81
4.35616e-81
1.16689e-80
3.11902e-80
8.31885e-80
2.21393e-79
5.87922e-79
1.55786e-78
4.11896e-78
1.08667e-77
2.86057e-77
7.51372e-77
1.96925e-76
5.14981e-76
1.34376e-75
3.49858e-75
9.08866e-75
2.35583e-74
6.09287e-74
1.57229e-73
4.04831e-73
1.04003e-72
2.6659e-72
6.81816e-72
1.73986e-71
4.42982e-71
1.12532e-70
2.85225e-70
7.21298e-70
1.81994e-69
4.58157e-69
1.15075e-68
2.88377e-68
7.21022e-68
1.79863e-67
4.47653e-67
1.11159e-66
2.7539e-66
6.80693e-66
1.67862e-65
4.13001e-65
1.01378e-64
2.48272e-64
6.06602e-64
1.47866e-63
3.59601e-63
8.72488e-63
2.11194e-62
5.10017e-62
1.22876e-61
2.95346e-61
7.08223e-61
1.69427e-60
4.04362e-60
9.62783e-60
2.28694e-59
5.41939e-59
1.28118e-58
3.02159e-58
7.10923e-58
1.66867e-57
3.90728e-57
9.12718e-57
2.12693e-56
4.94451e-56
1.14668e-55
2.65286e-55
6.12254e-55
1.4096e-54
3.23744e-54
7.41738e-54
1.69527e-53
3.86515e-53
8.79082e-53
1.99447e-52
4.51396e-52
1.0191e-51
2.29514e-51
5.15615e-51
1.15549e-50
2.58305e-50
5.75996e-50
1.28122e-49
2.84282e-49
6.29199e-49
1.38913e-48
3.05919e-48
6.72019e-48
1.47253e-47
3.21851e-47
7.01695e-47
1.52597e-46
3.31011e-46
7.16206e-46
1.54572e-45
3.3275e-45
7.14493e-45
1.53027e-44
3.26911e-44
6.9659e-44
1.48051e-43
3.13853e-43
6.63627e-43
1.39959e-42
2.94413e-42
6.17714e-42
1.29268e-41
2.69817e-41
5.61714e-41
1.16635e-40
2.41552e-40
4.98948e-40
1.02793e-39
2.11217e-39
4.32868e-39
8.84786e-39
1.80375e-38
3.66746e-38
7.43713e-38
1.50416e-37
3.0341e-37
6.10395e-37
1.22471e-36
2.45076e-36
4.89107e-36
9.73521e-36
1.93251e-35
3.82588e-35
7.55393e-35
1.48746e-34
2.92107e-34
5.72093e-34
1.11741e-33
2.17662e-33
4.22837e-33
8.19181e-33
1.58272e-32
3.04958e-32
5.8599e-32
1.12292e-31
2.14594e-31
4.08971e-31
7.77268e-31
1.47317e-30
2.78442e-30
5.24826e-30
9.8649e-30
1.84912e-29
3.45645e-29
6.44299e-29
1.19766e-28
2.22007e-28
4.10379e-28
7.56462e-28
1.3905e-27
2.54879e-27
4.65881e-27
8.49165e-27
1.54342e-26
2.79735e-26
5.05568e-26
9.11133e-26
1.63738e-25
2.93416e-25
5.243e-25
9.34194e-25
1.65979e-24
2.94054e-24
5.19464e-24
9.15036e-24
1.60721e-23
2.81486e-23
4.91574e-23
8.55988e-23
1.48625e-22
2.5731e-22
4.44184e-22
7.64555e-22
1.31217e-21
2.24548e-21
3.83144e-21
6.51846e-21
1.10576e-20
1.87026e-20
3.15406e-20
5.30352e-20
8.89162e-20
1.48634e-19
2.47729e-19
4.11674e-19
6.82095e-19
1.12681e-18
1.85597e-18
3.0479e-18
4.99046e-18
8.14683e-18
1.326e-17
2.15179e-17
3.48146e-17
5.61595e-17
9.03202e-17
1.44825e-16
2.31526e-16
3.69021e-16
5.86401e-16
9.2903e-16
1.46742e-15
2.31083e-15
3.62802e-15
5.67878e-15
8.86186e-15
1.37872e-14
2.1385e-14
3.30691e-14
5.09815e-14
7.83573e-14
1.20066e-13
1.83416e-13
2.79335e-13
4.24114e-13
6.41965e-13
9.6874e-13
1.45737e-12
2.18574e-12
3.26806e-12
4.8713e-12
7.23872e-12
1.07235e-11
1.5837e-11
2.33167e-11
3.4223e-11
5.00752e-11
7.30437e-11
1.06217e-10
1.53979e-10
2.22523e-10
3.20583e-10
4.60421e-10
6.59199e-10
9.4086e-10
1.33869e-09
1.89879e-09
2.68485e-09
3.78447e-09
5.31779e-09
7.44903e-09
1.04018e-08
1.44796e-08
2.00929e-08
2.7795e-08
3.8329e-08
5.26896e-08
7.22036e-08
9.86342e-08
1.34317e-07
1.82334e-07
2.4674e-07
3.32846e-07
4.47589e-07
5.99995e-07
8.01767e-07
1.06802e-06
1.41822e-06
1.87731e-06
2.4772e-06
3.25849e-06
4.27269e-06
5.58492e-06
7.27717e-06
9.45234e-06
1.2239e-05
1.57973e-05
2.0326e-05
2.60705e-05
3.33335e-05
4.24857e-05
5.39804e-05
6.83696e-05
8.63222e-05
0.000108647
0.000136315
0.000170493
0.000212572
0.000264206
0.000327353
0.000404324
0.000497833
0.000611052
0.00074768
0.000912007
0.00110899
0.00134432
0.00162452
0.00195705
0.00235034
0.00281394
0.00335859
0.0039963
0.00474047
0.00560596
0.00660916
0.00776807
0.00910236
0.0106334
0.0123842
0.0143797
0.0166464
0.0192124
0.0221074
0.0253627
0.0290106
0.0330848
0.0376196
0.0426501
0.0482115
0.0543391
0.0610678
0.0684313
0.0764623
0.0851917
0.094648
0.104857
0.115841
0.12762
0.140206
0.153612
0.16784
0.182891
0.198757
0.215427
0.232882
0.251096
0.270037
0.289668
0.309945
0.330818
0.352231
0.374123
0.39643
0.419081
0.442004
0.465124
0.488361
0.511639
0.534876
0.557996
0.580919
0.60357
0.625877
0.647769
0.669182
0.690055
0.710332
0.729963
0.748904
0.767118
0.784572
0.801242
0.817109
0.832159
0.846388
0.859793
0.872379
0.884157
0.89514
0.905349
0.914804
0.923532
0.931561
0.938923
0.945649
0.951773
0.95733
0.962354
0.966882
0.970947
0.974583
0.977824
0.980701
0.983245
0.985484
0.987445
0.989154
0.990633
0.991905
0.992987
0.993896
0.994648
0.995256
0.995729
0.996077
0.996305
0.996418
0.996418
0.996305
0.996077
0.995729
0.995256
0.994648
0.993896
0.992987
0.991905
0.990633
0.989154
0.987445
0.985484
0.983245
0.980701
0.977824
0.974583
0.970947
0.966882
0.962354
0.95733
0.951773
0.945649
0.938923
0.931561
0.923532
0.914804
0.905349
0.89514
0.884157
0.872379
0.859793
0.846388
0.832159
0.817109
0.801242
0.784572
0.767118
0.748904
0.729963
0.710332
0.690055
0.669182
0.647769
0.625877
0.60357
0.580919
0.557996
0.534876
0.511639
0.488361
0.465124
0.442004
0.419081
0.39643
0.374123
0.352231
0.330818
0.309945
0.289668
0.270037
0.251096
0.232882
0.215427
0.198757
0.182891
0.16784
0.153612
0.140206
0.12762
0.115841
0.104857
0.094648
0.0851917
0.0764623
0.0684313
0.0610678
0.0543391
0.0482115
0.0426501
0.0376196
0.0330848
0.0290106
0.0253627
0.0221074
0.0192124
0.0166464
0.0143797
0.0123842
0.0106334
0.00910236
0.00776807
0.00660916
0.00560596
0.00474047
0.0039963
0.00335859
0.00281394
0.00235034
0.00195705
0.00162452
0.00134432
0.00110899
0.000912007
0.00074768
0.000611052
0.000497833
0.000404324
0.000327353
0.000264206
0.000212572
0.000170493
0.000136315
0.000108647
8.63222e-05
6.83696e-05
5.39804e-05
4.24857e-05
3.33335e-05
2.60705e-05
2.0326e-05
1.57973e-05
1.2239e-05
9.45234e-06
7.27717e-06
5.58492e-06
4.27269e-06
3.25849e-06
2.4772e-06
1.87731e-06
1.41822e-06
1.06802e-06
8.01767e-07
5.99995e-07
4.47589e-07
3.32846e-07
2.4674e-07
1.82334e-07
1.34317e-07
9.86342e-08
7.22036e-08
5.26896e-08
3.8329e-08
2.7795e-08
2.00929e-08
1.44796e-08
1.04018e-08
7.44903e-09
5.31779e-09
3.78447e-09
2.68485e-09
1.89879e-09
1.33869e-09
9.4086e-10
6.59199e-10
4.60421e-10
3.20583e-10
2.22523e-10
1.53979e-10
1.06217e-10
7.30437e-11
5.00752e-11
3.4223e-11
2.33167e-11
1.5837e-11
1.07235e-11
7.23872e-12
4.8713e-12
3.26806e-12
2.18574e-12
1.45737e-12
9.6874e-13
6.41965e-13
4.24114e-13
2.79335e-13
1.83416e-13
1.20066e-13
7.83573e-14
5.09815e-14
3.30691e-14
2.1385e-14
1.37872e-14
8.86186e-15
5.67878e-15
3.62802e-15
2.31083e-15
1.46742e-15
9.2903e-16
5.86401e-16
3.69021e-16
2.31526e-16
1.44825e-16
9.03202e-17
5.61595e-17
3.48146e-17
2.15179e-17
1.326e-17
8.14683e-18
4.99046e-18
3.0479e-18
1.85597e-18
1.12681e-18
6.82095e-19
4.11674e-19
2.47729e-19
1.48634e-19
8.89162e-20
5.30352e-20
3.15406e-20
1.87026e-20
1.10576e-20
6.51846e-21
3.83144e-21
2.24548e-21
1.31217e-21
7.64555e-22
4.44184e-22
2.5731e-22
1.48625e-22
8.55988e-23
4.91574e-23
2.81486e-23
1.60721e-23
9.15036e-24
5.19464e-24
2.94054e-24
1.65979e-24
9.34194e-25
5.243e-25
2.93416e-25
1.63738e-25
9.11133e-26
5.05568e-26
2.79735e-26
1.54342e-26
8.49165e-27
4.65881e-27
2.54879e-27
1.3905e-27
7.56462e-28
4.10379e-28
2.22007e-28
1.19766e-28
6.44299e-29
3.45645e-29
1.84912e-29
9.8649e-30
5.24826e-30
2.78442e-30
1.47317e-30
7.77268e-31
4.08971e-31
2.14594e-31
1.12292e-31
5.8599e-32
3.04958e-32
1.58272e-32
8.19181e-33
4.22837e-33
2.17662e-33
1.11741e-33
5.72093e-34
2.92107e-34
1.48746e-34
7.55393e-35
3.82588e-35
1.93251e-35
9.73521e-36
4.89107e-36
2.45076e-36
1.22471e-36
6.10395e-37
3.0341e-37
1.50416e-37
7.43713e-38
3.66746e-38
1.80375e-38
8.84786e-39
4.32868e-39
2.11217e-39
1.02793e-39
4.98948e-40
2.41552e-40
1.16635e-40
5.61714e-41
2.69817e-41
1.29268e-41
6.17714e-42
2.94413e-42
1.39959e-42
6.63627e-43
3.13853e-43
1.48051e-43
6.9659e-44
3.26911e-44
1.53027e-44
7.14493e-45
3.3275e-45
1.54572e-45
7.16206e-46
3.31011e-46
1.52597e-46
7.01695e-47
3.21851e-47
1.47253e-47
6.72019e-48
3.05919e-48
1.38913e-48
6.29199e-49
2.84282e-49
1.28122e-49
5.75996e-50
2.58305e-50
1.15549e-50
5.15615e-51
2.29514e-51
1.0191e-51
4.51396e-52
1.99447e-52
8.79082e-53
3.86515e-53
1.69527e-53
7.41738e-54
3.23744e-54
1.4096e-54
6.12254e-55
2.65286e-55
1.14668e-55
4.94451e-56
2.12693e-56
9.12718e-57
3.90728e-57
1.66867e-57
7.10923e-58
3.02159e-58
1.28118e-58
5.41939e-59
2.28694e-59
9.62783e-60
4.04362e-60
1.69427e-60
7.08223e-61
2.95346e-61
1.22876e-61
5.10017e-62
2.11194e-62
8.72488e-63
3.59601e-63
1.47866e-63
6.06602e-64
2.48272e-64
1.01378e-64
4.13001e-65
1.67862e-65
6.80693e-66
2.7539e-66
1.11159e-66
4.47653e-67
1.79863e-67
7.21022e-68
2.88377e-68
1.15075e-68
4.58157e-69
1.81994e-69
7.21298e-70
2.85225e-70
1.12532e-70
4.42982e-71
1.73986e-71
6.81816e-72
2.6659e-72
1.04003e-72
4.04831e-73
1.57229e-73
6.09287e-74
2.35583e-74
9.08866e-75
3.49858e-75
1.34376e-75
5.14981e-76
1.96925e-76
7.51372e-77
2.86057e-77
1.08667e-77
4.11896e-78
1.55786e-78
5.87922e-79
2.21393e-79
8.31885e-80
3.11902e-80
1.16689e-80
4.35616e-81
1.62269e-81
6.0316e-82
2.23713e-82
8.27976e-83
3.05782e-83
1.12687e-83
4.14388e-84
1.52059e-84
5.56791e-85
2.03445e-85
7.41788e-86
2.69893e-86
9.79901e-87
3.55023e-87
1.28355e-87
4.63079e-88
1.66719e-88
5.98966e-89
2.14738e-89
7.6826e-90
2.74284e-90
9.77207e-91
3.47431e-91
1.23268e-91
4.36445e-92
1.54209e-92
5.43742e-93
1.91329e-93
6.71851e-94
2.35436e-94
8.23342e-95
2.87342e-95
1.00076e-95
3.47834e-96
1.20651e-96
4.17641e-97
1.44276e-97
4.974e-98
1.71134e-98
5.87613e-99
2.01358e-99
6.88607e-100
2.35018e-100
8.00495e-101
2.72111e-101
9.23134e-102
3.12548e-102
1.05609e-102
3.56141e-103
1.19862e-103
4.02603e-104
1.34963e-104
4.51536e-105
1.50769e-105
5.02434e-106
1.67105e-106
5.54687e-107
1.83762e-107
6.07593e-108
2.00503e-108
6.60365e-109
2.1707e-109
7.12152e-110
2.33186e-110
7.62062e-111
2.48564e-111
8.09186e-112
2.62918e-112
8.52625e-113
2.75969e-113
8.9152e-114
2.87455e-114
9.25077e-115
2.97138e-115
9.52599e-116
3.04815e-116
9.73505e-117
3.10325e-117
9.87356e-118
3.13552e-118
9.93865e-119
3.14432e-119
9.92911e-120
3.12953e-120
9.84539e-121
3.09154e-121
9.68961e-122
3.03129e-122
9.46545e-123
2.95017e-123
9.178e-124
2.85e-124
8.8336e-125
2.73293e-125
8.43957e-126
2.60143e-126
8.004e-127
2.45813e-127
7.53543e-128
2.30578e-128
7.04261e-129
2.14713e-129
6.53425e-130
1.98495e-130
6.02002e-131
1.82619e-131
5.65395e-132
2.15952e-132
)
;

boundaryField
{
    sides
    {
        type            zeroGradient;
    }
    empty
    {
        type            empty;
    }
}


// ************************************************************************* //
