/*--------------------------------*- C++ -*----------------------------------*\
  =========                 |
  \\      /  F ield         | OpenFOAM: The Open Source CFD Toolbox
   \\    /   O peration     | Website:  https://openfoam.org
    \\  /    A nd           | Version:  13
     \\/     M anipulation  |
\*---------------------------------------------------------------------------*/
FoamFile
{
    format      ascii;
    class       volScalarField;
    location    "29";
    object      p;
}
// * * * * * * * * * * * * * * * * * * * * * * * * * * * * * * * * * * * * * //

dimensions      [0 2 -2 0 0 0 0];

internalField   nonuniform List<scalar> 
918
(
0.343776
1.00003
0.0399705
0.343019
-0.0109631
0.96706
-0.716206
0.517064
0.323853
-0.29763
-0.277556
0.316289
0.827825
0.59422
-1.34249
-0.224668
0.469131
-0.59501
0.32284
-0.22742
0.554041
0.330498
0.33354
0.324139
0.384168
0.575119
0.708838
-0.0152197
0.0213773
-0.0185358
-0.0715975
-0.138054
-0.183071
0.850689
0.901793
0.924481
0.29259
0.119963
-0.574144
-0.646371
-0.636774
-0.764456
0.509231
0.51252
-0.380859
0.516893
0.527984
0.31122
0.323214
0.324134
0.32525
0.32417
0.325583
0.211986
-0.304848
-0.332907
-0.276582
-0.271185
-0.108104
-0.262739
-0.259013
-0.290646
-0.305326
0.245317
0.313029
0.310516
0.321133
0.328065
0.939582
0.911484
0.937622
0.851397
0.867832
0.805773
0.778313
0.614448
0.636387
0.58017
0.566527
-1.78199
-2.74775
-0.744841
-0.489735
-0.022578
-0.180465
-0.154113
0.458912
0.46089
0.4694
0.481421
0.865695
-0.591087
-0.725795
0.322949
0.321737
0.330176
0.330856
0.326863
0.325955
-0.269547
-0.289069
-0.0695583
-0.204091
-0.159737
0.541379
0.539508
0.324692
0.321727
0.335757
0.356499
0.34798
0.0824099
0.390406
0.407382
0.395711
0.56188
0.558488
0.566305
0.682454
0.646274
0.745765
0.769015
-0.000677458
0.00167011
-0.23733
-0.21444
-0.237415
0.288581
0.281443
0.306836
0.295895
0.29829
0.0351614
-0.101179
0.206483
0.231128
-0.482991
-0.547813
-0.652958
-0.669069
-0.779961
0.375717
0.498901
0.499373
-0.400012
-0.318657
-0.458875
-0.244919
-0.30854
0.301737
0.308537
0.303627
0.318932
0.313463
0.315388
0.327447
0.324548
0.326085
0.275406
0.398012
0.139817
0.10728
-0.453399
-0.353995
-0.446823
-0.263128
-0.260105
-0.102249
-0.0854524
-0.124793
-0.118782
-0.253206
-0.257831
-0.254964
-0.324296
-0.324559
0.238113
0.22737
0.256973
0.264086
0.304463
0.305362
0.308109
0.306604
0.729022
0.751516
0.758972
0.732596
-3.75252
-6.56403
-0.159531
-0.0198958
-0.0333214
-0.0310596
-0.0160878
-0.0416512
-0.020806
-0.0210059
-0.100579
-0.102816
-0.104148
-0.124107
0.444464
0.444957
0.781768
0.776324
0.767707
0.718625
0.310951
0.313119
0.318684
0.314535
-0.336528
-0.313287
-0.324858
0.525713
0.533589
0.533592
0.0468339
-0.0369942
0.128934
0.156069
0.430092
0.413125
0.428079
0.458524
0.495492
0.776544
0.794811
0.792968
0.801314
0.845281
0.861625
0.8271
0.269396
0.278567
0.273784
0.310107
0.307777
0.308723
0.303828
0.305534
0.303195
-0.254253
-0.64018
0.29065
0.306921
0.279404
0.290754
0.451136
0.522115
0.48017
0.48855
0.490209
-0.178338
-0.237596
0.0681643
0.0417024
0.181479
0.215765
0.196293
0.700335
0.66042
0.710554
0.683894
0.645043
0.671361
-0.592312
-2.11124
-1.22002
0.337407
0.147401
0.236973
-0.131964
-0.12763
-0.116039
0.765507
0.8451
0.453006
0.614248
0.626214
0.531536
0.561172
0.620417
0.54572
0.580759
0.615008
0.593228
0.334424
0.301892
0.299106
0.590691
0.646403
-0.0645247
-0.117542
-0.16371
-0.0675321
-0.00995578
-0.0377004
0.812953
0.705425
0.779571
0.321445
0.322126
-0.05988
-0.103031
0.326209
0.326225
-0.0876181
-0.206393
0.218179
-1.05205
-0.076967
0.314614
0.30508
0.321846
-0.287671
0.174928
-0.243844
-0.108725
-0.149295
0.314145
0.254484
0.216785
-0.0953748
-0.2691
-0.286591
-0.412037
0.31911
0.317441
0.321319
0.322361
0.322995
-0.128971
-0.11549
-0.0850136
-0.289593
-0.182746
-0.219819
0.286898
0.303396
-0.368869
0.321475
0.323582
0.323418
0.31654
0.322211
0.320445
-0.233735
-0.221983
-0.2947
0.032856
0.149296
0.466368
0.563457
0.430604
0.203558
-0.03614
0.365785
0.431517
0.333468
0.492771
0.491093
0.507194
-0.0152161
-0.161904
-0.00633022
-0.0615281
0.312518
0.311155
0.303355
0.300519
0.316734
0.314821
0.319412
0.316335
0.319271
0.320699
-0.243453
-0.261186
-0.284008
-0.342549
0.133644
0.388436
0.0657668
0.0931826
-0.0339007
-0.266451
-0.27699
-0.23034
-0.250779
-0.16267
-0.16988
-0.120245
-0.117136
-0.162395
-0.160111
-0.16898
-0.190048
-0.188151
0.307863
0.306911
0.313104
0.320198
0.263645
0.26773
0.234195
0.253496
0.239192
0.182981
0.216433
0.191434
-0.0831741
-0.123223
-0.0741303
-0.264673
-0.185804
-0.26699
-0.21137
-0.304338
-0.188767
-0.192048
-0.346677
-0.332229
-0.37333
-0.487758
0.767063
0.711545
-0.0976964
0.308403
0.314739
0.311594
0.31622
0.319358
0.32028
0.318021
0.314573
0.304073
0.305909
0.302193
0.302528
-0.309387
-0.44566
-0.270291
-0.337452
-0.0726918
0.422283
0.162681
0.103564
0.0982253
0.316124
0.711819
0.50972
0.510948
0.535541
-0.555092
-0.157959
-0.487798
0.130651
-0.0462677
0.466114
0.51549
0.536218
0.484462
0.43619
-0.326431
0.333391
-0.256493
-0.212909
-0.0222543
-0.126854
0.509489
0.473584
0.478095
0.49457
0.513488
0.478792
0.456735
0.45299
0.491214
0.4969
0.289187
0.0652532
0.0207563
-0.0171666
0.456883
0.331016
0.389077
0.303272
0.307317
0.31021
0.308744
0.291671
0.298839
0.294673
0.300103
0.303234
0.312472
0.312789
0.308255
0.310527
-0.245847
-0.25551
-0.224119
-0.335618
-0.325785
-0.377007
-0.267727
-0.132685
-0.166212
0.0223068
0.129956
-0.158344
-0.274721
-0.244567
-0.216497
-0.031668
-0.00682275
-0.107133
-0.0204038
-0.0385573
-0.0481077
0.0477989
0.0554661
-0.239902
-0.207347
-0.225282
-0.230741
-0.139146
-0.082477
-0.0647675
-0.238156
-0.186746
-0.297367
-0.316197
-0.229126
-0.220334
-0.210467
-0.179731
-0.315315
-0.26577
-0.268798
-0.282387
-0.231296
-0.238264
0.302469
0.303989
0.304035
0.312311
0.326406
0.341132
0.305317
0.284968
0.276339
0.279224
0.254041
0.263392
0.259465
0.271967
0.291439
0.299146
0.298294
0.300687
0.283969
0.285786
0.273113
0.276102
0.253731
0.236265
0.225276
-0.262927
-0.192082
-0.25955
-0.212683
-0.133841
-0.170947
-0.177672
-0.239268
-0.219018
-0.191435
-0.153548
-0.380571
-0.34136
-0.285793
-0.210395
-0.393261
-0.425743
-0.494622
0.675388
0.787746
0.60291
0.384677
0.388821
0.62218
0.713567
0.352614
0.523964
0.553177
0.348115
0.608072
0.313115
0.312757
0.310411
0.309831
0.311124
-0.225484
-0.125918
-0.111717
-0.0608292
0.0583125
0.1739
0.08062
-0.0435958
0.0925398
0.0999064
0.416923
0.433439
0.378416
0.40337
0.401215
0.228623
0.305508
0.360325
0.314535
0.358552
0.380688
0.341949
0.372147
0.319143
0.277118
0.275868
0.221072
0.242249
0.219704
0.201706
0.302521
0.280967
0.291094
0.281922
0.301281
0.328909
0.323229
0.349941
0.361675
0.287285
0.247969
0.257215
0.284821
0.246535
0.259734
0.274773
0.0037878
-0.0973997
-0.00899904
-0.300321
-0.217476
-0.233516
-0.279538
-0.235848
0.0506721
-0.648487
-0.621771
-1.25629
0.273776
0.741826
0.464833
0.435752
0.50893
0.486881
0.489507
0.514222
0.52109
0.446355
0.463635
0.46789
0.42054
0.444574
0.468625
0.466315
0.302793
0.181212
0.172388
0.133267
0.0103467
0.0425009
0.246724
0.168452
0.095688
0.100831
0.26426
0.154807
0.220256
0.25846
0.190301
0.146357
0.346085
0.41385
0.405053
0.37917
0.295288
0.307392
0.33354
0.369047
0.395807
0.429991
0.300018
0.305654
0.306957
0.304581
0.301632
0.30447
0.304596
0.307095
0.307968
0.310917
0.309878
-0.246173
-0.227305
-0.247675
-0.255998
-0.21997
-0.226767
-0.180703
-0.185284
-0.206072
-0.19896
-0.229255
-0.229636
-0.226078
-0.217139
-0.0954882
-0.0792363
-0.0929495
-0.138033
0.0354392
0.171737
0.233966
0.117111
0.00802048
0.0373253
0.0656382
-0.211666
-0.159632
-0.171708
-0.136152
-0.150746
-0.287477
-0.318413
-0.316585
-0.217573
-0.257439
-0.369983
-0.35484
-0.365931
-0.363759
-0.335948
-0.344321
0.287186
0.280788
0.281806
0.276244
0.275127
0.288384
0.292538
0.294165
0.299255
0.300906
0.291941
0.297025
0.300362
-0.359802
-0.416957
-0.403214
-0.375779
-0.44008
-0.4316
-0.399682
-0.102269
-0.175384
-0.169938
-0.211477
-0.333399
-0.278337
0.258781
0.257049
0.269932
0.483465
0.337025
0.255725
0.350505
0.453695
0.0436747
0.243834
0.0747999
0.656394
0.545225
0.688743
0.314621
0.019403
0.173088
0.223771
0.0316128
0.102801
0.112948
0.00162261
0.0336049
0.0638164
0.163281
0.0429067
0.0160915
-0.229771
-0.0451677
0.0803373
0.0594807
0.193895
0.258912
0.0284499
-0.0471391
-0.0915224
0.408113
0.428247
0.446935
0.416687
0.441573
0.36368
0.355007
0.373462
0.382038
0.375919
-0.983725
-0.690921
-1.63592
-0.948582
-0.497746
0.307291
0.268474
0.541889
0.432847
0.500118
0.485028
0.44551
0.410517
0.421742
0.454866
0.156731
0.266951
0.24055
0.247827
0.150625
0.0842426
0.382492
0.375739
0.414438
0.438094
0.403123
0.43734
0.297702
0.297336
0.297049
0.293821
0.292161
0.294116
-0.130813
-0.161334
-0.135867
-0.152632
-0.173035
-0.179589
-0.341458
-0.363979
-0.385301
-0.41792
-0.359744
-0.323287
-0.0654368
-0.120974
-0.194064
-0.165702
-0.222851
-0.284952
-0.303808
-0.206537
-0.118999
-0.126259
0.176445
0.427636
0.252063
0.420886
0.258104
0.314696
0.262512
0.254977
0.285908
0.158178
0.234018
0.00562997
-0.500564
-0.40811
0.55863
0.578271
0.367174
0.1797
-0.050697
0.137415
0.331223
0.269637
0.309297
0.377834
0.371152
-0.211108
-0.143972
0.116672
0.344284
0.0109877
0.00343148
-0.00154519
0.171938
0.0959265
)
;

boundaryField
{
    wall-4
    {
        type            zeroGradient;
    }
    velocity-inlet-5
    {
        type            zeroGradient;
    }
    velocity-inlet-6
    {
        type            zeroGradient;
    }
    pressure-outlet-7
    {
        type            fixedValue;
        value           uniform 0;
    }
    wall-8
    {
        type            zeroGradient;
    }
    frontAndBackPlanes
    {
        type            empty;
    }
}


// ************************************************************************* //
