/*--------------------------------*- C++ -*----------------------------------*\
  =========                 |
  \\      /  F ield         | OpenFOAM: The Open Source CFD Toolbox
   \\    /   O peration     | Website:  https://openfoam.org
    \\  /    A nd           | Version:  13
     \\/     M anipulation  |
\*---------------------------------------------------------------------------*/
FoamFile
{
    format      ascii;
    class       surfaceScalarField;
    location    "29";
    object      phi;
}
// * * * * * * * * * * * * * * * * * * * * * * * * * * * * * * * * * * * * * //

dimensions      [0 3 -1 0 0 0 0];

internalField   nonuniform List<scalar> 
1300
(
3.75095
5.62643
-5.00764
3.75095
-5.08245
5.62643
-4.46064
4.46064
-1.08549
1.08549
1.87646
1.87449
-2.97749
2.97749
-2.35796
2.35796
-2.56318
2.56318
-5.24642
5.24642
-5.06796
5.06796
4.6704
-4.6704
-4.23496
4.23496
-1.47589
1.47589
-3.89314
3.89314
3.16981
-3.16981
-2.68121
2.68121
-0.293655
0.293655
-0.553554
4.30451
3.1974
3.1974
-2.12688
2.12688
-4.86201
4.86201
6.21815
-6.21815
7.16429
-7.16429
-2.15664
-3.35555
1.5331
-9.81622
-3.54935
-3.54935
-8.44041
8.44041
-2.81398
2.81245
2.94266
-2.94266
-1.78696
1.78696
-4.40122
-0.0594205
-4.40122
4.45677
0.0038689
4.45677
-1.20961
0.124129
-1.20961
3.96579
-3.96579
0.920744
0.164742
0.920744
3.06459
-3.06459
-1.87711
3.75357
1.87384
-1.87184
6.17635
-1.87911
3.75361
-5.91058
5.91058
-3.21583
0.238336
-3.21583
2.7706
0.206897
2.7706
-6.69023
6.69023
-2.47669
0.118738
-2.47669
2.26134
0.0966168
2.26134
2.86163
-2.86163
-2.66133
0.0981482
-2.66133
2.45609
0.107089
2.45609
0.353553
5.27288
-5.97998
8.79244
-5.27288
0.026459
5.20845
0.0379702
5.20845
-5.10586
0.0378941
-5.10586
5.01191
0.0560521
5.01191
4.76253
-0.0921297
4.76253
-4.78433
0.113927
-4.78433
-2.8701
-4.82955
-4.93212
0.697161
-4.93212
-1.47678
0.000894158
-1.47678
1.43026
0.045628
1.43026
-3.55056
3.55056
-4.25698
0.363833
-4.25698
3.12439
0.0454206
3.12439
1.86854
1.88241
5.61949
-5.61949
2.44969
-2.37753
-0.303679
-2.37753
-3.05124
-4.11304
3.05124
-0.370031
-0.563341
0.269686
-0.563341
3.15918
0.0382168
3.15918
2.32427
0.131822
-2.32427
0.197388
3.21474
-3.21474
1.51011
0.616774
1.51011
-5.56804
5.56804
4.95286
0.0590481
-4.95286
0.0908543
6.15646
0.0616895
6.15646
-6.19956
-0.0185851
-6.19956
2.0814
-5.43695
-4.01492
3.73457
0.500388
-3.73457
0.185222
2.9125
0.0301555
2.9125
-2.92191
2.92191
-2.98278
0.0401233
-2.98278
-2.18946
0.402507
-2.18946
1.48376
0.303192
1.48376
-4.2751
-0.126127
-4.2751
-4.38857
0.131594
4.38857
0.0682025
1.05094
-1.05094
-1.32006
0.110446
-1.32006
-4.11286
-0.162233
4.11286
-0.147072
-3.84449
-0.121297
-3.84449
-3.02336
0.0405767
3.02336
0.0412286
3.11238
0.0468049
-3.11238
0.0477904
-1.87084
3.75325
-1.88011
3.75395
-5.52717
-0.38341
-5.52717
6.21566
-0.305086
6.21566
3.55114
0.342003
-3.55114
0.335311
2.59077
0.17983
2.59077
-6.67416
-0.0160687
-6.67416
6.63981
0.0504116
6.63981
2.50031
0.0904546
-2.50031
0.0236177
2.22112
0.0402237
2.22112
2.86839
-0.00676284
2.86839
-2.86249
0.000858024
-2.86249
2.80397
-2.80397
2.73689
0.0670822
-2.73689
0.0755554
-11.1328
11.1142
-0.0350804
-11.0977
5.17337
5.17337
4.19353
0.569
4.19353
-4.99837
0.214038
-4.99837
2.23852
-6.25344
4.61028
-7.48038
4.57809
-14.3943
3.40508
-8.23463
6.19411
-6.19411
5.66685
0.527265
-5.66685
0.734723
-1.50193
0.0251455
-1.50193
-2.94048
-0.610075
-2.94048
4.20777
-0.657211
4.20777
-3.02936
3.02936
-3.07832
0.0489561
3.07832
0.0460664
2.26241
-0.0412974
-2.26241
-0.115119
0.744331
0.176412
-0.744331
0.18099
3.43461
-0.219871
3.43461
-3.01811
-0.196629
-3.01811
-1.50944
0.00751204
1.50944
0.000671447
-5.81614
0.248099
-5.81614
-11.1907
0.0930202
-11.1528
-6.10654
-6.10654
2.33386
11.1263
-2.88506
0.0225732
2.88506
0.0274429
2.9765
0.0528618
-2.9765
0.0545971
-2.86476
0.0607909
2.86476
0.0571452
-2.56707
0.377606
-2.56707
-1.06821
1.06821
-1.24819
0.179976
1.24819
0.235579
1.28893
-0.237982
1.28893
1.37919
0.0510672
-1.37919
0.0591326
-3.73458
-0.109915
-3.73458
6.45479
-0.239131
6.45479
-2.91378
-0.10433
2.91378
-0.0453927
-0.0333359
11.1475
-5.14003
0.0341747
5.14003
-11.2092
11.2434
-3.24066
0.673586
3.24066
0.952877
5.28925
0.278787
-5.28925
0.290884
6.49022
0.149591
-6.49022
0.296112
-2.44819
-0.492294
-2.44819
-4.93875
-0.588413
4.93875
-0.730985
-11.4754
-0.202294
11.6777
-11.4193
6.01843
0.138028
-6.01843
11.3814
-0.985978
-0.0649671
0.985978
0.0822324
1.59957
-0.310645
1.59957
3.62868
-0.19407
-3.62868
-0.105893
-6.60269
-0.0714692
6.60269
-0.147894
-2.00825
-0.439942
2.00825
-0.408674
-4.26694
4.30515
1.90941
-1.46674
-3.9702
-5.57979
1.85192
1.90133
4.30161
-9.26668
-5.12762
-9.08146
7.26703
-6.97615
-9.27494
9.18281
7.59426
-7.71556
-5.78531
5.83137
6.4816
-6.44037
1.87895
1.87462
7.91101
-7.67267
-15.6576
15.2742
7.15987
-7.04113
15.7725
-15.7885
-17.8417
17.9913
-5.73141
5.82956
-6.71579
6.71664
-6.8988
6.85341
-1.71254
-5.76785
13.2068
-12.5096
6.81169
-7.11537
-8.49551
8.85935
3.38236
0.922789
3.42917
-1.88233
3.76128
-1.87128
3.78069
4.41561
-6.12815
1.83784
-5.80804
3.75493
3.05676
-3.38489
-2.19489
-5.91804
5.9482
-5.82239
5.87953
8.91738
-8.9768
-1.88501
3.75964
-1.86894
3.77027
-3.42525
-2.36006
3.37983
0.921777
7.4612
5.74558
-7.96159
-1.11987
-7.81933
7.62526
-8.09191
7.89528
-0.442666
5.82097
-5.37831
4.41934
-1.5578
7.37877
5.70924
5.92327
5.86708
-5.5883
1.10907
-6.48738
-6.39652
-2.5509
2.66135
2.50599
-2.34125
5.96169
1.63257
5.81461
-5.55364
-2.16192
-5.66355
3.82116
2.01021
3.87012
4.07618
2.40542
4.11675
3.03092
-3.03544
0.00451766
-3.05619
6.08711
0.724202
-5.41625
-4.49447
4.91978
2.99123
5.12668
-5.48974
-2.18294
-5.15442
-9.53765
-6.11993
-10.1261
10.1021
5.17202
9.79706
-11.9637
11.8158
4.12704
3.03283
4.22366
-4.7979
-2.24323
-4.77428
11.7061
-2.65004
-9.0561
-10.291
-7.55067
10.2406
5.53183
10.8855
7.10584
11.1816
4.48028
7.22586
-10.0121
2.46144
-3.87244
-1.85898
-3.79688
3.70338
2.12618
3.81047
-4.21136
-2.50443
-4.18878
-4.27721
-2.62159
4.28397
2.43267
-4.35995
-3.73197
4.46428
2.38913
4.80594
-9.93356
3.42869
-9.19654
-9.43167
-3.07796
-8.69695
5.57783
1.3932
-6.97103
-0.550317
8.55325
-5.49649
6.35835
-3.96331
-3.15205
-4.07843
-6.78685
-1.70867
-6.65525
-8.88241
8.39012
-9.19215
8.53494
12.7147
-5.71112
-7.00357
-3.96796
-2.47241
3.92017
-0.490998
-3.7118
3.71632
0.0494761
3.83017
4.75295
4.26196
-3.88731
-1.93508
-3.83271
3.83334
2.04619
3.89413
6.72515
2.19223
6.72902
-6.43724
-2.53956
-6.56337
9.09005
-8.68754
2.93042
-2.92291
5.27298
2.62231
-5.05311
-2.76622
6.16895
-3.10252
-3.06643
-12.213
10.5629
1.65003
-4.8342
-0.414861
-0.121205
-5.50023
-3.77471
5.3863
0.536974
11.0999
7.32521
-5.51332
5.76142
6.16435
6.2234
-0.173126
5.84253
-5.16895
5.35249
-2.45487
-2.89762
5.30355
-5.46578
-1.25981
-5.31701
4.05719
0.34883
1.73666
-1.46698
-2.01394
-0.536959
-1.95481
1.48404
1.02195
1.66045
0.973651
1.68769
-2.93776
0.529428
2.40833
-1.96411
-1.81182
-3.69111
-1.01209
4.7032
5.56006
2.0652
-5.45417
-0.209387
2.72932
-2.68369
-0.809203
-2.88191
2.09011
-2.89931
-3.57373
-1.89755
5.47128
-3.3708
-0.461909
3.31794
0.552181
-3.8252
-2.09285
3.78507
0.331678
-3.12411
6.19002
-3.06592
-5.05919
2.52909
3.55802
4.5393
-4.79035
2.44641
2.34394
-1.23233
4.21596
0.910719
4.39579
-6.72205
4.53911
5.7231
3.13625
-6.0651
0.910679
-5.81137
8.46914
-7.26597
-1.20317
4.11354
4.3556
7.18661
5.52808
-5.75322
12.9398
-1.13076
-6.1352
6.94213
-3.80588
4.74436
-8.55024
-10.2724
4.13723
-9.22457
10.9623
-1.73775
-3.61384
-8.34985
12.8384
-1.20808
-11.6303
8.58898
-4.20237
-4.62432
8.82669
-6.85241
6.86755
-1.92602
-4.94154
-10.1025
-5.68603
10.174
1.64183
-10.6365
13.0979
-3.4106
3.22864
0.995016
3.26887
3.26941
-5.4074
2.13799
3.58301
-5.50902
2.11887
-7.52627
-7.73991
13.1112
-5.37127
-10.8179
-10.3544
-0.463451
2.58734
10.5106
-9.69318
7.34253
2.35065
3.31042
0.583712
-3.3775
-0.419384
0.275454
4.55859
-4.83404
4.08593
4.21775
3.40845
1.15014
3.83951
2.10869
-3.86695
-0.321833
-4.14314
1.52155
-1.71046
-3.64361
5.16515
-4.07587
0.432265
-2.72831
-3.52196
6.25027
-4.58729
3.04026
3.14976
5.08645
-4.90863
1.38668
-2.40467
-2.50396
2.6892
-4.39966
1.93862
3.22653
4.32775
0.595789
7.34838
5.7628
-8.74158
-0.454957
11.5084
-10.3885
2.82075
8.36082
-10.1633
-0.191138
-8.88808
0.141742
-5.63823
-6.82929
5.06419
-6.77286
-3.48605
6.13631
0.592708
-6.20451
-0.450739
-6.02949
-2.85292
-6.46943
-3.06359
-6.12856
-8.81681
-1.65149
-7.16532
6.73864
-6.675
-3.45106
7.40599
1.12896
-7.40757
7.3426
-7.48919
7.17855
0.0944995
3.62182
4.35646
1.88404
-2.38949
4.27353
-5.06387
7.25611
-8.51859
3.45472
4.02482
-6.56438
-4.49377
5.04663
4.04341
5.34982
8.96775
-10.4887
1.52095
-10.8213
12.1402
-1.31887
-16.6107
5.78936
-7.64291
2.66959
0.260834
2.69473
0.668337
2.4156
-3.08394
-2.25457
-2.2539
-2.33075
-3.39717
5.72792
1.15046
-3.39767
2.24721
-3.47535
4.62581
-0.0726616
-3.32501
5.26841
-2.85281
5.52924
-3.54801
1.98123
3.31614
5.65576
-2.33961
4.32806
-1.70575
1.83534
-4.17495
-1.56183
-2.98355
5.10973
-3.26672
3.69899
-0.275686
3.97467
-4.08092
0.978398
-0.672467
3.54528
3.74267
4.28217
-3.13203
2.95921
-4.66496
-1.21574
-4.06917
-0.842643
-0.288663
-3.8029
4.09157
6.0678
-6.35646
-5.26191
9.58037
-4.31845
7.72931
-5.40561
-2.3237
-4.28003
-4.40751
3.90242
1.94011
9.66943
0.212914
-5.61853
-4.95603
-4.00316
3.21818
2.13431
-1.94106
3.59109
2.06227
-0.325604
0.583411
1.07704
1.85486
-1.27145
0.208943
1.64591
-1.25803
1.99838
0.730936
-2.04945
0.0946383
-1.39483
3.48494
1.0135
-2.03546
0.76401
1.04831
-3.50318
4.82825
-2.4836
-2.34465
5.87656
1.15618
-3.63978
4.16083
-3.812
2.32571
-3.3378
-1.31407
-5.12607
-3.49349
-2.51029
4.7575
-3.21763
5.28283
1.18377
-5.07345
6.25721
-3.56301
1.66546
-3.05597
3.7869
-1.0628
-1.99317
2.77552
2.69576
-2.92215
0.0402393
-0.146623
2.31593
-2.46256
-0.58338
-2.54749
-4.57151
4.90318
-2.10745
4.55386
2.16608
-1.91433
6.46819
1.81156
-3.72589
-3.24763
-3.70954
-1.38195
3.15736
-0.518971
-4.25531
-5.46051
4.16486
0.230933
-6.88955
7.70901
-0.81946
-3.89832
-0.64079
4.75433
-6.01322
0.5042
-3.89435
3.81466
4.72538
4.95631
-11.4295
-0.200866
-6.25745
1.17441
-7.43186
5.53001
-3.63144
7.76868
-10.4373
6.98628
-9.30838
6.5655
-0.866355
6.21497
-4.07698
2.84114
-8.52717
-6.88534
5.51606
-2.48323
6.51108
-2.93286
9.44393
-6.34346
4.79313
4.6508
-0.98056
-3.09787
-4.92283
3.94227
-0.1297
3.13917
4.97477
-2.86608
4.65293
2.25116
-4.65583
-2.1485
-6.4963
1.84047
-3.34653
-1.91406
3.75453
3.1724
3.75611
1.25056
-3.33672
8.82528
-9.28874
-3.45402
-3.37527
4.65427
-0.711991
4.13602
-7.51129
-1.50221
4.88664
-0.823588
-4.06306
0.824476
-4.31053
1.65251
-5.96304
5.12034
-5.57108
2.19893
-9.84184
-5.20864
-5.12641
-2.24041
-5.24878
-7.64519
5.40478
-1.85583
5.48677
-8.64418
7.82059
-3.496
8.90078
-5.43139
-1.03805
5.84006
1.33849
10.2393
0.180404
-4.67418
-1.91338
3.99307
-2.07969
1.30481
-3.6225
0.37057
2.454
3.42256
-6.51119
-0.0531863
-4.72737
-3.92956
7.97298
5.65081
11.7186
1.22989
9.1716
-1.19862
10.4015
4.1512
4.38678
-3.06012
4.58108
1.03144
4.48616
-0.844657
2.82589
1.85007
1.85097
0.83272
2.29597
1.4467
3.27437
0.190429
-2.06347
4.63841
-8.64157
-0.980117
-8.07257
1.11024
5.72753
-4.61729
3.13779
-1.00348
1.0581
0.101033
-1.62803
1.527
-2.79659
-1.95364
-0.307725
-1.59878
2.36279
1.88616
-2.05507
-0.741525
0.311912
-3.80541
3.02588
-2.98564
-0.289887
5.96733
-2.73894
0.27638
-1.07348
-2.27111
-2.80807
2.71343
6.17631
0.291881
3.11039
5.19507
3.10222
0.236142
3.95213
-5.68988
-3.57414
-5.89074
-0.360733
4.3936
1.45126
9.0593
6.10206
5.39007
-2.12122
-11.41
6.57629
-1.99522
5.25742
-1.19437
-4.76867
4.97037
2.28574
-5.56307
-0.00801099
-4.77668
-6.7719
-0.539311
8.3599
-9.69996
8.66191
5.80899
1.35633
-4.41269
-0.713723
4.23271
0.154072
10.5556
-1.12462
-6.82253
7.94715
-4.60291
3.6228
0.843573
2.74752
2.37057
1.36709
-5.45544
-10.0727
-1.9125
-1.59068
-4.25715
0.446045
-2.3322
6.25834
-2.63554
3.93464
5.31161
6.3697
-2.15622
-4.20024
6.47467
-2.54003
3.82967
)
;

boundaryField
{
    wall-4
    {
        type            calculated;
        value           uniform 0;
    }
    velocity-inlet-5
    {
        type            calculated;
        value           uniform -3.75095;
    }
    velocity-inlet-6
    {
        type            calculated;
        value           uniform -5.62643;
    }
    pressure-outlet-7
    {
        type            calculated;
        value           nonuniform List<scalar> 8(5.00764 5.08245 5.5122 8.28312 7.69965 6.09632 6.84881 7.98317);
    }
    wall-8
    {
        type            calculated;
        value           uniform 0;
    }
    frontAndBackPlanes
    {
        type            empty;
    }
}


// ************************************************************************* //
