/*--------------------------------*- C++ -*----------------------------------*\
  =========                 |
  \\      /  F ield         | OpenFOAM: The Open Source CFD Toolbox
   \\    /   O peration     | Website:  https://openfoam.org
    \\  /    A nd           | Version:  13
     \\/     M anipulation  |
\*---------------------------------------------------------------------------*/
FoamFile
{
    format      ascii;
    class       surfaceScalarField;
    location    "14";
    object      phi;
}
// * * * * * * * * * * * * * * * * * * * * * * * * * * * * * * * * * * * * * //

dimensions      [0 3 -1 0 0 0 0];

internalField   nonuniform List<scalar> 
1300
(
3.75095
5.62643
-6.17115
3.75095
-6.0165
5.62643
-4.5009
4.5009
-1.44104
1.44104
1.877
1.87395
-4.13469
4.13469
-4.69221
4.69221
-2.8007
2.8007
-5.24649
5.24649
-5.06847
5.06847
4.68623
-4.68623
-4.89587
4.89587
-1.85886
1.85886
-3.78443
3.78443
3.17479
-3.17479
-5.02498
5.02498
-0.505519
0.505519
-0.554124
4.30508
3.19683
3.19683
-2.52159
2.52159
-4.85183
4.85183
6.21842
-6.21842
9.38253
-9.38253
-3.21138
-3.39605
1.34161
-8.12435
-4.6749
-4.6749
-8.44044
8.44044
-2.81401
2.81242
2.92749
-2.92749
-1.70037
1.70037
-4.49162
-0.0092776
-4.49162
4.48084
0.0200585
4.48084
-1.56243
0.121392
-1.56243
4.09166
-4.09166
1.2745
0.166542
1.2745
3.06707
-3.06707
-1.87719
3.75419
1.87376
-1.87234
6.17741
-1.87862
3.75257
-5.02449
5.02449
-3.88823
-0.246457
-3.88823
4.37291
-0.238225
4.37291
-5.23347
5.23347
-4.65535
-0.0368613
-4.65535
4.75185
-0.0596371
4.75185
3.0196
-3.0196
-2.83286
0.0321569
-2.83286
2.75078
0.0499215
2.75078
0.35362
5.27281
-5.98005
8.79247
-5.27281
0.0263247
5.20861
0.0378779
5.20861
-5.10618
0.0377115
-5.10618
5.00904
0.0594241
5.00904
4.78118
-0.0949518
4.78118
-4.79882
0.112593
-4.79882
-3.32453
-3.38912
-4.99363
0.097764
-4.99363
-1.91375
0.0548924
-1.91375
1.81564
0.0432169
1.81564
-3.49082
3.49082
-4.08472
0.300296
-4.08472
3.13004
0.0447507
3.13004
1.86844
1.88251
5.6194
-5.6194
2.44461
-4.97561
-0.0493745
-4.97561
-5.07769
-4.30484
5.07769
-0.0527084
-0.81153
0.306011
-0.81153
3.15787
0.0389599
3.15787
2.6789
0.0718802
-2.6789
0.157307
3.41933
-3.41933
1.87536
0.646237
1.87536
-5.57081
5.57081
4.94891
0.0601298
-4.94891
0.0970786
6.1575
0.0609188
6.1575
-6.19954
-0.018882
-6.19954
3.38242
-6.77847
-3.40291
4.79002
0.105843
-4.79002
0.115125
2.92751
-2.31949e-05
2.92751
-2.89887
2.89887
-2.96497
0.0374765
-2.96497
-2.13897
0.438601
-2.13897
1.36637
0.333997
1.36637
-4.39017
-0.101449
-4.39017
-4.31886
0.23414
4.31886
0.161977
0.849008
-0.849008
-1.67468
0.112247
-1.67468
-4.23473
-0.155436
4.23473
-0.143078
-3.97998
-0.111678
-3.97998
-3.01685
0.0518872
3.01685
0.0502189
3.11401
0.0438596
-3.11401
0.0469376
-1.87114
3.75365
-1.87982
3.75358
-4.78764
-0.236848
-4.78764
5.1769
-0.152416
5.1769
3.71766
0.0667686
-3.71766
-0.170572
4.51539
-0.142484
4.51539
-5.26973
0.0362638
-5.26973
5.21114
0.0223229
5.21114
4.60311
-0.0877132
-4.60311
-0.0522415
4.82806
-0.0762154
4.82806
3.07211
-0.0525028
3.07211
-2.98467
-0.0349283
-2.98467
2.85697
-2.85697
2.85219
0.00478693
-2.85219
0.0193285
-11.1327
11.1139
-0.0351615
-11.0976
5.17345
5.17345
4.20646
0.57472
4.20646
-5.0091
0.210274
-5.0091
3.32922
-6.73213
3.39041
-6.71494
3.37793
-11.5023
3.33898
-6.7281
5.15235
-5.15235
5.08065
0.0716956
-5.08065
0.0870259
-1.94129
0.0275323
-1.94129
-2.95734
-0.533477
-2.95734
3.95644
-0.465624
3.95644
-3.026
3.026
-3.08072
0.0547249
3.08072
0.0493169
4.90676
-0.0786991
-4.90676
-0.0688436
1.05998
0.214519
-1.05998
0.248451
3.61021
-0.190878
3.61021
-3.24888
-0.170456
-3.24888
-1.89702
-0.0442685
1.89702
-0.0216612
-5.81855
0.247738
-5.81855
-11.1906
0.0930462
-11.1527
-6.10649
-6.10649
2.33395
11.1264
-2.95021
-0.0344642
2.95021
-0.0226975
2.96368
0.0623129
-2.96368
0.0648123
-2.86376
0.00678722
2.86376
0.0351099
-2.54656
0.40759
-2.54656
-0.97515
0.97515
-1.13148
0.156331
1.13148
0.23489
1.10215
-0.253138
1.10215
1.74541
0.0702356
-1.74541
0.0707305
-3.87794
-0.102037
-3.87794
5.26567
-0.0887618
5.26567
-3.13639
-0.112487
3.13639
-0.0642836
-0.0332451
11.1471
-5.1402
0.0340231
5.1402
-11.208
11.242
-3.23993
0.693367
3.23993
0.966535
5.29561
0.275205
-5.29561
0.286512
5.19533
0.0158176
-5.19533
0.0429764
-2.45619
-0.50115
-2.45619
-4.42182
-0.36582
4.42182
-0.465376
-11.4761
-0.201996
11.6781
-11.4167
6.02055
0.136954
-6.02055
11.379
-0.841504
-0.00750384
0.841504
0.133646
1.4503
-0.348153
1.4503
3.77504
-0.164827
-3.77504
-0.102903
-5.28806
0.0183297
5.28806
-0.0223959
-1.92234
-0.533849
1.92234
-0.472045
-4.26649
4.30545
1.91092
-3.36307
-3.4154
-7.66791
1.85149
1.90216
4.29609
-7.10477
-4.39751
-6.98965
7.2751
-6.98859
-9.3046
9.20965
7.44141
-7.55309
-5.77481
5.82412
6.474
-6.42379
1.88003
1.87417
8.31032
-8.55677
-12.7202
12.4833
10.0656
-10.1025
11.1813
-11.145
-12.6404
12.6562
-5.74956
5.78172
-6.6126
6.57767
-6.79173
6.72745
-3.2905
-3.42444
9.1708
-9.07304
11.7381
-11.7874
-7.0346
7.3349
3.38505
0.920405
3.42891
-1.88123
3.76126
-1.87134
3.78226
3.39818
-6.68869
3.33395
-6.74935
6.07816
5.6599
-6.02545
-1.64246
-5.8528
5.85278
-5.84101
5.87612
8.91066
-8.91994
-1.88504
3.75921
-1.86854
3.7707
-3.42051
-2.3543
3.37575
0.920338
5.61953
3.55127
-5.72537
-1.26428
-7.64064
7.47581
-7.93519
7.76473
-0.459059
5.82875
-5.36969
4.39277
-1.55482
7.38357
5.72028
5.93055
5.86831
-5.5931
1.12028
-6.48997
-6.39289
-2.70849
2.82073
2.66351
-2.49696
5.86848
1.57293
5.7254
-5.44041
-2.11268
-5.54245
3.81402
2.0101
3.86874
4.03314
2.44086
4.08503
3.03087
-3.03684
0.00596965
-3.0591
6.08997
0.722368
-5.4134
-4.49306
6.01926
2.29106
5.78103
-5.06473
-3.49204
-5.23531
-7.99832
-4.72184
-8.36414
7.69755
4.78576
7.54514
-8.595
8.57261
6.73056
3.33507
6.67092
-6.53149
-3.57099
-6.58373
10.574
-2.44714
-8.12684
-7.14822
-5.49215
7.12589
4.05538
7.66455
4.99164
7.70753
3.5119
7.06208
-7.56728
2.07513
-3.8449
-1.90466
-3.82557
3.74191
2.03981
3.79183
-4.12918
-2.48342
-4.16364
-4.19736
-2.59437
4.24987
2.32781
-4.31114
-3.62405
4.42362
2.30382
3.09843
-7.49593
3.62967
-7.05411
-6.39778
-2.67526
-6.31076
4.14857
2.61054
-6.75911
-2.54011
10.9319
-5.27202
9.28946
-7.27551
-4.51193
-7.34435
-6.22409
-0.810515
-5.98995
-8.93841
8.43726
-8.65685
8.19123
14.6923
-7.05453
-7.63773
-3.97066
-2.45313
3.92372
-0.494809
-3.71168
3.71765
0.0495808
3.83184
4.75224
4.25743
-3.88252
-1.95849
-3.81771
3.86443
2.01169
3.87122
6.65292
2.25774
6.67298
-6.45121
-2.46873
-6.55266
9.07191
-8.63331
2.91769
-2.96196
5.17875
2.58598
-4.98787
-2.65276
6.01476
-3.03966
-2.9751
-12.2387
10.592
1.64671
-4.85517
-0.462398
0.043121
-5.51418
-3.79041
5.40159
0.528958
11.121
7.33058
-5.51352
5.76126
6.16461
6.22474
-0.168153
5.85922
-5.16585
5.1927
-2.24621
-2.94649
5.26333
-5.41876
-1.28933
-5.27799
3.98866
0.306636
1.88803
-1.58202
-2.10063
-0.607855
-2.0299
1.60228
1.06122
1.8168
0.986123
1.83461
-2.95724
0.540961
2.41628
-1.97112
-1.956
-3.58532
-0.907432
4.49275
5.46503
2.01078
-5.36213
-0.180318
2.74759
-2.70438
-0.864628
-2.72069
1.93662
-2.80124
-3.47539
-1.77308
5.24847
-3.37076
-0.446948
3.30845
0.560294
-3.76082
-2.09198
3.72334
0.361691
-3.1319
6.24467
-3.11277
-5.09038
2.53256
3.55742
4.54266
-4.80262
2.4416
2.36102
-1.2452
5.43694
0.344098
5.29445
-7.0299
3.53785
4.93475
2.40015
-5.00151
-0.23379
-7.26369
11.0392
-7.89253
-3.14667
7.1282
3.911
7.12552
7.56673
-6.40023
13.5258
1.02317
-8.9157
6.24051
-3.84036
4.31351
-8.15387
-11.8802
2.96454
-8.12513
8.99416
-0.869027
-2.41086
-6.18414
10.536
-1.27224
-9.26376
6.2729
-5.58492
-5.18187
10.7668
-8.03206
8.75286
-2.96413
-5.78873
-7.13079
-4.01422
7.11246
1.46014
-9.97938
12.0545
-2.9173
5.88069
0.790227
5.80448
4.33805
-6.02481
1.68676
3.69401
-6.65814
3.51259
-9.53739
-4.95315
9.65251
-4.69936
-7.62841
-6.84454
-0.783871
2.02941
10.0251
-7.02106
5.37608
1.64498
3.34744
0.523783
-3.35222
-0.473348
0.352808
4.44496
-4.79777
4.14464
4.21652
3.37286
1.0721
3.81479
2.03799
-3.79209
-0.371555
-4.02869
1.43432
-1.70088
-3.55793
4.99225
-3.97607
0.418135
-2.65053
-3.50046
6.15098
-4.55519
3.09154
3.15313
5.10323
-4.86344
1.36298
-2.40791
-2.45553
2.61309
-4.31396
1.9024
3.08985
4.20622
0.58217
4.91721
4.7353
-7.52775
0.473641
8.28657
-7.02229
1.73278
5.97474
-7.10886
0.264319
-6.04644
1.09104
-6.36306
-5.66807
5.02581
-5.83632
-3.12806
5.86912
0.803863
-6.0311
0.0411474
-5.97315
-2.96526
-6.507
-2.64557
-6.01128
-9.0458
-1.8925
-7.1533
6.54476
-5.96437
-2.39977
6.42974
1.76148
-7.21314
7.20564
-7.44613
7.09798
0.0937679
3.62388
4.3512
1.89807
-2.37867
4.27675
-5.01372
7.27146
-8.51132
3.4976
4.0335
-6.50223
-4.47782
4.95904
4.11288
5.29303
8.8386
-10.6613
1.82272
-10.7311
12.3848
-1.6537
-16.5101
5.77899
-7.67151
2.66226
0.255425
2.68979
0.678255
2.36965
-3.0479
-2.2837
-2.30536
-2.26869
-3.26878
5.53747
1.16694
-3.31296
2.14602
-3.41095
4.57789
-0.108063
-3.2049
5.15543
-2.78579
5.41086
-3.51901
1.89185
3.22898
5.47359
-2.24462
4.17292
-1.58694
1.74862
-3.99324
-1.52015
-2.97532
5.01513
-3.17567
3.5938
-0.217354
3.81115
-4.00645
0.966785
-0.633584
3.58294
3.74024
4.10008
-3.02798
2.86826
-4.45519
-1.12498
-3.87302
-0.783172
-0.577753
-3.62524
4.20299
5.97169
-6.54944
-5.38215
9.64351
-4.26136
7.74866
-5.45582
-2.29284
-4.27815
-4.35517
3.87056
1.98866
9.73732
0.188717
-5.64453
-4.97713
-4.0106
3.16632
2.02638
-2.06126
3.70797
2.01814
-0.130102
0.640807
1.17599
1.89853
-1.25772
0.157578
1.74095
-1.42444
2.03382
0.713775
-2.10406
0.0741532
-1.42576
3.36237
0.990522
-2.05175
0.794027
1.11043
-3.35664
4.66074
-2.29249
-2.36825
5.77117
1.21528
-3.50777
4.06271
-3.75608
2.2763
-3.18373
-1.23147
-4.98755
-3.41461
-2.44375
4.58977
-3.09372
5.1045
1.11438
-4.92418
6.03856
-3.45532
1.68224
-3.05473
3.7685
-1.12257
-1.93216
2.64283
2.60564
-2.78751
0.0668163
-0.144679
2.22121
-2.36589
-0.58003
-2.55115
-4.54603
4.90772
-2.17158
4.61317
2.10517
-1.92665
6.53982
1.82428
-3.75092
-3.26611
-3.71306
-1.3899
3.15276
-1.13258
-5.45116
-6.92131
5.53887
-0.244418
-7.73696
9.96719
-2.23023
-5.4459
1.90804
5.22016
-7.8299
1.17176
-4.31731
5.64987
5.99397
5.74955
-10.1046
0.840886
-5.31888
2.66461
-7.9835
6.57561
-5.28051
8.24505
-10.0067
7.60695
-8.24524
5.09838
-2.88511
5.59245
-3.90569
2.53439
-6.54861
-5.08847
6.9993
-3.66423
7.78952
-4.18526
11.9748
-7.10256
7.0138
4.96098
-1.4675
-5.87685
-6.86273
5.39523
0.15107
5.95555
4.93664
-2.89865
4.56509
2.2323
-4.64021
-2.08166
-6.49726
1.85706
-3.34414
-1.88708
3.74414
3.21614
3.73993
1.28861
-3.26658
6.77406
-7.55793
-2.07471
-3.59336
6.77878
-1.38355
4.09621
-7.68957
-2.26685
5.27565
-0.0328338
-5.24281
1.77888
-4.90694
0.761898
-5.66884
5.07443
-5.03328
2.16132
-9.83283
-5.05182
-4.91817
-2.32075
-5.12538
-7.60611
5.28535
-1.82712
5.37852
-8.62733
8.59449
-3.7575
9.04285
-5.37441
-1.13259
5.84645
1.25153
10.2944
0.113046
-4.59087
-1.83305
3.85599
-2.02293
1.33326
-3.51219
0.343793
2.47989
3.29129
-6.46855
-0.0336808
-4.62455
-3.84765
7.96052
5.79586
11.7675
1.10623
9.20952
-1.249
10.3157
4.04404
4.27893
-2.94427
4.76699
1.25872
4.75632
-0.857736
2.74958
1.83206
1.88695
0.817427
2.28491
1.45533
3.2517
0.203793
-2.10157
4.67513
-8.68573
-0.969401
-8.11101
1.09863
5.74451
-4.64588
3.08491
-1.05853
1.06197
0.242899
-1.83151
1.58861
-2.70359
-1.96162
-0.220668
-1.51004
2.30407
1.85234
-2.0834
-0.62019
0.257695
-3.67231
2.92603
-2.85922
-0.253578
5.78499
-2.69713
0.331243
-1.01489
-2.21991
-2.82776
2.75361
6.2554
0.284426
3.14262
5.19215
3.10016
0.201511
5.77444
-6.64347
-3.76295
-5.80258
0.773024
5.99318
2.12193
7.90316
7.08291
5.69936
-1.99021
-9.54814
7.37943
-2.61244
5.72573
-0.482912
-5.18593
4.78729
2.48417
-5.59115
0.557874
-4.62805
-7.24049
-0.223686
8.81818
-10.0707
8.9381
5.97284
1.18045
-4.25
-0.668175
4.09367
0.185263
10.501
-1.12191
-6.92275
8.04466
-4.6226
3.6532
0.914173
2.7938
2.50279
1.44426
-5.47849
-10.1244
-1.76088
-1.59576
-4.12914
0.363613
-2.21595
6.3032
-2.64999
4.01035
5.39467
6.45665
-2.27293
-4.2765
6.53429
-2.52394
3.93271
)
;

boundaryField
{
    wall-4
    {
        type            calculated;
        value           uniform 0;
    }
    velocity-inlet-5
    {
        type            calculated;
        value           uniform -3.75095;
    }
    velocity-inlet-6
    {
        type            calculated;
        value           uniform -5.62643;
    }
    pressure-outlet-7
    {
        type            calculated;
        value           nonuniform List<scalar> 8(6.17115 6.0165 6.60742 6.78274 6.71365 6.78533 6.71964 6.71691);
    }
    wall-8
    {
        type            calculated;
        value           uniform 0;
    }
    frontAndBackPlanes
    {
        type            empty;
    }
}


// ************************************************************************* //
