/*--------------------------------*- C++ -*----------------------------------*\
  =========                 |
  \\      /  F ield         | OpenFOAM: The Open Source CFD Toolbox
   \\    /   O peration     | Website:  https://openfoam.org
    \\  /    A nd           | Version:  13
     \\/     M anipulation  |
\*---------------------------------------------------------------------------*/
FoamFile
{
    format      ascii;
    class       volVectorField;
    location    "14";
    object      U;
}
// * * * * * * * * * * * * * * * * * * * * * * * * * * * * * * * * * * * * * //

dimensions      [0 1 -1 0 0 0 0];

internalField   nonuniform List<vector> 
918
(
(0.985249 -0.000416476 0)
(0.00499549 2.96626 0)
(-0.00109216 1.64466 0)
(0.979774 0.00205722 0)
(0.000337474 1.60391 -4.09102e-22)
(-0.00702188 2.94878 -1.85535e-18)
(0.851464 1.18638 7.35685e-19)
(0.49248 0.233847 -8.98989e-21)
(0.999945 -0.000418363 0)
(0.00510132 1.21066 0)
(-0.00450058 1.35837 0)
(0.822693 -0.00548061 0)
(0.0110707 2.93037 0)
(0.0013702 2.79482 0)
(-0.0173634 3.16941 1.09437e-18)
(-0.0036412 1.51771 -1.77254e-20)
(0.589026 0.103997 5.5898e-19)
(0.168967 1.19782 6.14171e-19)
(0.964925 0.00530193 0)
(-0.000941975 1.48314 0)
(0.168538 0.273118 -4.72761e-19)
(1.0014 -0.00526147 0)
(1.0002 -0.00988551 0)
(0.975561 -0.00659914 0)
(0.739918 -0.0241958 0)
(0.017571 2.63045 0)
(-0.0152237 2.9102 6.39648e-19)
(-0.010594 1.6665 0)
(-0.0098213 1.76186 0)
(-0.00892403 1.66248 0)
(0.00117247 1.8082 0)
(0.000891522 1.61802 3.23828e-22)
(-0.00305708 1.5266 0)
(-0.0206362 2.98757 -6.48297e-23)
(-0.0167182 3.00532 1.44248e-18)
(0.00210749 3.00024 0)
(0.869408 -0.00604208 0)
(0.373915 0.903894 -3.89889e-20)
(0.842592 1.20368 -1.0336e-18)
(0.98885 1.05709 9.70933e-19)
(0.706319 1.29265 -1.70729e-19)
(0.701204 1.27269 9.8135e-19)
(0.522849 0.304808 8.77149e-21)
(0.51601 0.206937 0)
(1.19273 0.573354 0)
(0.486543 0.320999 4.09092e-20)
(0.450611 0.229246 -4.24505e-20)
(0.919967 -0.00691164 0)
(1.00047 -9.8829e-06 0)
(0.999956 0.000367503 0)
(1.00392 -0.00769686 0)
(1.00073 -0.00089598 0)
(1.00012 8.27605e-05 0)
(0.0472267 1.56886 -5.26791e-19)
(-0.0232948 1.29372 0)
(0.00221629 1.13353 0)
(-0.0257122 1.38069 0)
(0.00111532 1.27198 0)
(-0.00248638 1.56995 0)
(-0.00532684 1.51562 0)
(0.00274773 1.35497 0)
(-0.0141771 1.54056 0)
(-0.00838386 1.37726 0)
(0.898116 -0.000922376 0)
(0.901509 0.00795365 0)
(0.8367 0.00104535 0)
(0.893473 0.0120336 0)
(0.809593 -0.00770656 0)
(0.0147188 3.00038 6.78909e-19)
(0.0115606 3.00772 0)
(0.0061706 3.00292 0)
(0.0135473 2.99727 7.56444e-24)
(0.00802014 2.95847 -1.00903e-18)
(0.0144966 2.98217 0)
(0.0107572 2.90366 0)
(0.0250526 2.93054 1.35008e-24)
(0.00410689 2.82505 0)
(0.0314254 2.91543 0)
(-0.00680778 2.74366 0)
(0.311659 3.57018 0)
(-0.132506 3.65217 0)
(0.141627 3.26036 -1.01848e-18)
(-0.0109424 2.99237 0)
(-0.00868487 1.78984 0)
(-0.00372702 1.6436 1.74863e-20)
(-0.00448594 1.53189 -2.67666e-20)
(0.651807 0.166097 -1.9235e-19)
(0.612704 0.0699302 -1.8577e-19)
(0.617862 0.195012 -5.74938e-19)
(0.57297 0.131684 -3.84131e-19)
(0.268012 1.04616 0)
(0.239454 1.27019 -6.14076e-19)
(0.328065 1.26446 1.01613e-18)
(0.988394 0.00861601 0)
(0.944241 0.00704192 0)
(1.00033 0.000594333 0)
(1.00277 0.00939288 0)
(1.00251 0.00850384 -1.05823e-18)
(0.992007 0.00980517 7.99218e-19)
(-0.00976954 1.59618 0)
(-0.00645268 1.4734 0)
(-0.0147689 1.67549 0)
(-0.0118466 1.6239 0)
(0.000290925 1.50197 0)
(0.246127 0.283743 1.45885e-19)
(0.287287 0.26626 0)
(0.99332 -0.00856732 0)
(0.953946 -0.00671062 0)
(0.869099 0.0176082 0)
(0.835359 0.0340096 0)
(0.787585 -0.0096007 0)
(1.02243 -0.00555046 0)
(0.78316 0.0408071 0)
(0.657479 -0.0173376 7.50759e-19)
(-0.0354309 2.8661 3.1914e-19)
(0.0438366 2.90729 0)
(0.0572645 2.88282 0)
(-0.00616235 2.69627 0)
(-0.0130434 2.98539 5.86612e-19)
(-0.0183188 2.89569 0)
(-0.0153278 2.98815 -1.85853e-18)
(-0.0135323 2.92528 6.42069e-19)
(-0.00738768 1.81447 0)
(-0.00571903 1.80899 0)
(-0.0014039 1.64498 -3.61216e-22)
(-0.00236545 1.61844 0)
(-0.00618006 1.51729 0)
(0.932154 -0.00197237 0)
(0.865966 -0.00102479 0)
(0.85663 0.00739274 0)
(0.938671 -0.00338213 0)
(0.881664 -0.00496362 0)
(0.486217 1.1029 3.85145e-20)
(0.540833 1.16672 0)
(0.334812 0.831365 2.47002e-21)
(0.278229 0.694197 0)
(0.957274 1.08574 -2.80561e-19)
(1.0719 0.898466 5.78518e-19)
(0.403824 1.3355 0)
(0.582574 1.3408 0)
(0.529649 1.28495 0)
(0.101286 0.110884 -1.05241e-19)
(0.555391 0.279125 0)
(0.542341 0.183322 1.10739e-19)
(1.0435 0.945686 0)
(1.11371 0.791994 0)
(1.14002 0.738813 -5.06609e-19)
(1.17145 0.631147 0)
(1.22315 0.41458 6.08043e-20)
(0.951686 -0.00667653 0)
(0.960841 -0.00956912 0)
(0.899697 -0.00776229 0)
(0.984068 -0.00885456 0)
(0.975753 -0.00823684 0)
(0.938144 -0.00609854 0)
(1.00009 0.00225179 0)
(1.00079 0.001422 0)
(0.999924 0.000785391 0)
(0.0482572 1.72991 2.85186e-19)
(0.0837205 1.52511 0)
(0.0247506 1.75562 4.63267e-19)
(0.0282386 1.59541 -3.9366e-19)
(0.0714768 1.2018 -5.07578e-19)
(-0.0285657 1.21188 0)
(0.0856852 1.11155 0)
(-0.0119698 1.4477 0)
(0.0070063 1.3088 0)
(-0.00809767 1.6918 -1.16936e-21)
(-0.00723 1.59271 0)
(-0.00243409 1.68352 -5.54158e-20)
(-0.00010658 1.57035 1.06806e-19)
(-0.008784 1.48585 0)
(-0.00480241 1.51032 0)
(0.00404275 1.33531 0)
(-0.0167197 1.55934 0)
(-0.0120118 1.40467 0)
(0.969418 0.0141086 0)
(0.917274 0.004309 0)
(0.952917 0.00801471 0)
(0.8889 0.00166317 0)
(0.838915 -0.00589937 0)
(0.920436 -0.00028756 0)
(0.913399 0.00709697 0)
(0.837415 -0.00227477 0)
(0.00605704 3.06482 -5.95247e-21)
(0.0163538 3.05818 0)
(0.0147828 2.96922 0)
(0.00859052 2.87638 0)
(0.929178 3.99035 0)
(1.24429 3.31866 1.01663e-18)
(0.071722 3.08432 0)
(-0.0259645 2.9123 0)
(-0.0096668 1.79379 0)
(-0.0109799 1.78982 0)
(-0.00923818 1.79144 0)
(-0.00378785 1.79713 5.49955e-21)
(-0.00981764 1.79212 0)
(-0.00420548 1.79075 0)
(-0.00342693 1.54866 1.67448e-21)
(-0.00530299 1.67037 3.42257e-20)
(-0.00503971 1.65846 2.73409e-20)
(-0.00371239 1.53701 0)
(0.684459 0.127618 2.81783e-19)
(0.642252 0.03715 -2.74204e-19)
(0.190459 1.38524 0)
(0.294323 0.806365 -2.50254e-19)
(0.153307 1.47852 -7.54653e-19)
(0.218398 1.22758 7.5269e-19)
(0.900815 0.0101439 0)
(0.967665 0.0132645 0)
(0.976256 0.0122651 0)
(0.924755 0.0095637 0)
(-0.0173471 1.576 0)
(-0.0148786 1.58853 0)
(-0.01126 1.43791 0)
(0.442075 0.339231 3.75666e-19)
(0.362255 0.317544 -4.56032e-19)
(0.380843 0.243699 0)
(1.13861 0.0832788 -3.65718e-21)
(1.12322 0.0385345 0)
(1.05602 0.0327514 0)
(0.971038 0.00437945 0)
(0.699224 0.0817943 0)
(0.723077 0.0589141 -1.20735e-18)
(0.644344 0.0116333 4.61629e-19)
(0.0100371 2.98261 4.10363e-19)
(-0.031738 2.86838 4.91233e-20)
(0.00390699 3.05006 -1.28712e-20)
(0.0198674 3.0437 4.6409e-19)
(-0.0150732 2.9965 2.13613e-20)
(-0.0129646 2.94939 -8.65968e-23)
(-0.0172818 3.01208 -4.05774e-19)
(0.014639 3.02444 2.92678e-19)
(0.00716162 3.03654 -4.57146e-19)
(0.947582 0.00781409 0)
(0.940979 0.00450388 0)
(0.873213 0.00262708 0)
(0.954871 0.0125504 0)
(0.939136 0.0136652 0)
(0.877655 0.00837109 0)
(0.921135 -1.12566e-05 0)
(0.921521 0.00750149 0)
(0.840943 -0.0016805 0)
(0.701528 1.40229 3.33242e-19)
(0.742018 1.51733 0)
(0.218887 0.387352 2.40904e-20)
(0.177194 0.527415 1.76276e-19)
(0.252192 0.645254 -9.08354e-20)
(0.209916 0.539135 1.6499e-19)
(0.290379 0.643894 6.04045e-19)
(0.120751 0.139606 1.87405e-19)
(0.599777 0.226255 4.15981e-19)
(0.575548 0.246767 1.01651e-19)
(0.552007 0.15886 2.11026e-19)
(1.21073 0.469823 2.98429e-19)
(1.22668 0.261731 3.12812e-19)
(0.0110915 1.75554 1.82187e-19)
(0.0162586 1.61357 0)
(1.01002 0.0248594 0)
(0.982273 0.0151959 0)
(0.938749 -0.00221437 0)
(0.0108579 3.07444 0)
(0.0199614 2.94416 7.92724e-19)
(0.0165738 2.95641 0)
(0.00615777 2.85084 -7.86213e-19)
(0.00614055 3.09162 1.87697e-19)
(0.00745649 3.08263 0)
(0.777709 1.82607 -2.38971e-19)
(1.25041 2.51414 6.57269e-19)
(0.762857 1.96899 -1.49516e-18)
(0.0212405 2.98465 -2.96276e-19)
(0.0374409 3.00828 0)
(-0.0315613 2.88296 0)
(-0.000498846 1.66518 -5.98614e-21)
(-0.00370343 1.67507 -7.57025e-20)
(-0.00103361 1.562 -5.83256e-21)
(0.277729 1.28318 7.16242e-19)
(0.253552 0.563363 -4.90007e-19)
(0.0663124 1.66713 4.87529e-19)
(0.099892 1.57813 -6.02022e-19)
(0.12157 1.40278 7.8633e-20)
(0.00351448 3.11789 -1.1045e-18)
(0.0177498 3.11788 1.18072e-18)
(-0.00862039 2.98103 5.07375e-19)
(-0.00249106 2.97783 -4.47192e-19)
(-0.0215468 2.88263 -5.16744e-19)
(0.00891288 3.0987 -1.37412e-18)
(0.00217255 3.10665 1.3349e-18)
(0.186494 0.563931 0)
(0.117838 0.525564 -3.86457e-19)
(0.154295 0.20448 1.64029e-19)
(0.330136 0.787851 5.77101e-19)
(0.186163 0.19626 -8.83168e-19)
(1.2206 0.170835 -5.72817e-20)
(1.22403 0.312795 0)
(1.20789 0.118914 1.22918e-19)
(-0.00763203 1.72624 -1.48415e-21)
(-0.00185614 1.74068 0)
(0.000853909 1.60239 0)
(0.361735 1.17235 -2.32038e-19)
(0.384706 1.00899 -5.05651e-19)
(0.183712 0.323084 8.52669e-19)
(1.00566 -0.0111184 0)
(1.00776 -0.00792867 1.92968e-19)
(-0.00661288 1.80255 0)
(-0.0133883 1.81023 0)
(1.00255 0.00373798 1.91076e-21)
(1.00284 0.00893852 3.96861e-19)
(-0.00445308 1.80129 -7.34022e-21)
(-0.00461478 1.80024 0)
(0.0401585 3.18432 1.01626e-19)
(0.400612 3.50492 0)
(1.09949 0.644467 6.46676e-20)
(1.01208 0.0126016 -2.5535e-21)
(1.01904 -0.0180418 0)
(1.00171 0.000327498 5.08564e-23)
(-0.148644 1.47212 0)
(-0.0131979 2.09739 0)
(-0.0213031 1.77081 0)
(-0.0345446 1.85942 7.26194e-20)
(-0.00720664 1.82997 4.44198e-20)
(1.00363 0.0105885 2.28782e-21)
(1.04581 0.0126327 0)
(1.07247 0.0229802 0)
(-0.0120582 1.79004 0)
(-0.00854759 1.81134 0)
(-0.0197451 1.79438 0)
(0.245295 1.18489 -4.2743e-19)
(1.01114 -0.00986415 0)
(1.00993 -0.0138302 0)
(1.00244 0.000748001 2.43736e-19)
(1.00603 -0.00526506 -2.90577e-19)
(1.00091 -0.000752097 0)
(-0.0131725 1.78923 0)
(-0.0104511 1.79514 0)
(-0.00963571 1.79472 0)
(-0.0169749 1.79776 0)
(-0.0117865 1.79424 0)
(-0.0151716 1.79738 0)
(1.02342 0.00369932 0)
(1.02308 0.0106571 -1.04845e-21)
(0.796782 1.25177 5.26833e-19)
(1.00264 0.000418119 -2.44665e-19)
(1.00346 0.00558574 2.95088e-19)
(1.00122 0.00197546 0)
(1.01054 0.00982217 2.39163e-19)
(1.008 0.00833274 -2.96456e-19)
(1.00762 0.0142858 0)
(-0.0075953 1.81158 0)
(-0.00643236 1.80699 1.52906e-20)
(-0.0064758 1.80666 -1.05729e-20)
(1.181 0.258086 -7.07925e-20)
(1.11878 0.0794926 0)
(0.0568275 3.07905 -5.05801e-19)
(0.0695505 2.85098 -4.10229e-20)
(0.147855 3.20034 7.7035e-19)
(0.142556 3.22879 4.06935e-21)
(0.140397 3.24414 0)
(0.0222109 3.13864 1.08685e-19)
(0.0813825 3.16363 4.93831e-19)
(0.0748035 3.19076 -2.10525e-19)
(0.0262036 3.12857 0)
(0.708968 0.332014 0)
(0.619942 0.393649 0)
(1.08091 0.672595 -2.49965e-19)
(1.0734 0.807075 3.90014e-19)
(1.13206 0.560742 0)
(1.1643 0.508962 0)
(1.01546 0.0134005 -4.43745e-19)
(1.01384 0.0147403 5.53571e-19)
(1.01953 -0.0200058 0)
(1.01412 -0.0216391 0)
(1.00723 0.00265628 0)
(1.01021 0.00305212 0)
(1.00392 0.00265192 0)
(1.00979 0.00705497 0)
(1.00698 0.0056836 0)
(1.0057 0.00491079 0)
(-0.137975 1.49051 0)
(-0.112826 1.54546 0)
(-0.156006 1.42383 0)
(-0.0722316 1.36306 0)
(-0.0452903 2.15239 0)
(0.0581567 2.15462 -3.08274e-19)
(-0.0125967 2.09151 0)
(-0.010058 2.02206 1.56333e-19)
(-0.0279642 1.92939 -1.40837e-19)
(-0.0207173 1.77212 0)
(-0.0180611 1.77449 0)
(-0.0316297 1.75916 0)
(-0.0248111 1.72865 0)
(-0.0563505 1.82856 -4.47975e-20)
(-0.0175373 1.83781 6.0752e-20)
(-0.0329046 1.85784 7.33035e-20)
(-0.0166477 1.84598 0)
(-0.0074612 1.83073 -9.65893e-20)
(-0.00721875 1.82593 -5.33427e-20)
(-0.0502051 1.82303 3.48035e-20)
(-0.0294993 1.83183 -7.92559e-20)
(-0.0337639 1.8429 -9.53961e-20)
(1.01093 0.0164714 4.36012e-19)
(1.01033 0.00378606 -5.37163e-19)
(1.00548 0.020267 -4.54735e-19)
(0.992727 0.0156931 5.74547e-19)
(1.03946 0.0180108 0)
(1.03979 0.0115335 0)
(1.06094 0.041598 0)
(1.04744 0.0230851 0)
(1.05813 0.0125646 0)
(1.10363 0.0725484 0)
(1.07966 0.0466934 0)
(1.09154 0.036855 0)
(-0.00969057 1.80221 -1.7764e-21)
(-0.0120283 1.79207 0)
(-0.0109577 1.79491 0)
(-0.00894311 1.81493 1.58908e-20)
(-0.00915202 1.81508 -7.16445e-22)
(-0.0160633 1.78827 1.64614e-20)
(-0.0153619 1.79018 -1.67786e-20)
(-0.0178951 1.79435 0)
(-0.0141346 1.79494 0)
(-0.0139298 1.79547 0)
(-0.0203995 1.79318 0)
(-0.0220481 1.79086 0)
(0.42417 1.24107 8.96121e-19)
(0.397459 1.35629 3.28199e-19)
(0.581736 2.43469 -1.76733e-19)
(0.280743 2.37601 4.57244e-19)
(0.432042 2.39147 -1.69207e-19)
(1.01965 -0.0116854 0)
(1.01605 -0.00895182 0)
(1.01608 -0.0163056 0)
(1.00839 -0.00117148 0)
(1.00454 -0.00143368 0)
(1.00703 -0.00479867 0)
(1.01036 -0.00349381 0)
(1.01286 -0.00518513 0)
(1.02305 0.0123454 4.27665e-19)
(1.01514 0.020196 -5.42233e-19)
(1.02497 0.00581122 -4.27527e-19)
(1.02136 0.00370357 5.3706e-19)
(0.758676 1.27494 0)
(0.668322 1.35515 6.32477e-19)
(0.874669 1.1832 3.71675e-19)
(0.90717 1.16321 -4.93857e-19)
(1.11995 2.61375 -5.69393e-19)
(0.828698 0.0974458 2.88828e-19)
(1.12049 0.0930829 0)
(1.16001 0.170043 6.3215e-20)
(1.15427 0.149399 2.69094e-21)
(0.969448 0.125587 0)
(0.148105 2.97166 1.07953e-19)
(0.128461 2.87802 -6.37826e-19)
(0.0427597 2.3493 4.71759e-19)
(0.116906 0.132523 -1.93962e-19)
(0.345978 3.43252 -4.48098e-19)
(0.199422 3.32347 0)
(0.239881 3.36827 5.83564e-19)
(0.258551 3.04185 -6.8052e-19)
(0.348315 3.19925 0)
(0.00659647 3.12079 2.59006e-20)
(0.017619 3.12966 -3.3339e-19)
(0.0152798 3.12543 4.90701e-19)
(0.0381281 3.14033 0)
(0.0370395 3.15196 0)
(1.20499 2.61912 0)
(0.507063 0.83521 -2.21098e-19)
(1.01337 0.979499 -2.06586e-19)
(0.961913 1.06082 0)
(0.805844 0.957921 6.21981e-20)
(1.03703 0.869205 3.20979e-20)
(0.405538 0.477939 -5.30742e-19)
(0.73307 0.323892 -2.25181e-20)
(0.720629 0.282349 2.20346e-19)
(0.619519 0.429826 1.75922e-20)
(0.560093 0.423023 -7.24079e-19)
(0.7099 0.359979 0)
(0.699357 0.435 3.65873e-19)
(0.708988 0.429719 0)
(0.663043 0.412788 0)
(0.675002 0.350098 0)
(0.733699 0.602033 1.28488e-19)
(1.17299 0.270011 3.86605e-20)
(1.17419 0.405388 0)
(1.18779 0.367817 0)
(0.775243 0.212296 3.28057e-19)
(0.777661 0.529965 -1.83289e-19)
(0.691794 0.510296 2.95255e-19)
(0.891101 0.398087 -2.75354e-19)
(1.01824 0.0182598 2.92442e-19)
(1.01746 0.0140905 -2.98068e-19)
(1.01307 0.0196437 0)
(1.02138 -0.00170645 0)
(1.01891 -0.0164526 -2.68211e-19)
(1.00773 -0.0169185 2.65481e-19)
(1.03526 0.00515733 0)
(1.03011 0.00807692 0)
(1.01187 0.00379958 0)
(1.01481 0.00843742 0)
(1.01938 0.00264432 0)
(1.01491 0.000810103 0)
(-0.0990268 1.59373 0)
(-0.0676044 1.62866 0)
(-0.247188 1.40398 1.87838e-19)
(0.189363 1.25097 2.38921e-19)
(-0.0540964 1.30731 4.69308e-19)
(0.0908613 1.23077 -7.82391e-19)
(-0.168393 1.40085 0)
(-0.335938 1.97246 2.5211e-19)
(-0.328214 1.9427 0)
(0.219129 2.44482 2.49027e-19)
(0.0731161 2.52992 2.40727e-19)
(-0.334167 1.93626 -2.22083e-19)
(0.0965761 1.186 2.6992e-19)
(-0.161564 1.36635 -2.11637e-19)
(0.113944 1.19485 7.40423e-19)
(-0.170293 1.95253 0)
(-0.0111277 2.0045 -5.26113e-19)
(-0.103472 1.8923 -3.20285e-20)
(-0.0268365 1.94744 0)
(-0.0930858 1.94689 1.3186e-19)
(-0.0904787 1.91286 0)
(-0.0148273 2.00124 -1.67129e-19)
(-0.0140062 1.97685 0)
(-0.050069 1.79269 -3.41257e-20)
(-0.0638588 1.80541 0)
(-0.0664413 1.7639 0)
(-0.0552256 1.77813 3.84611e-20)
(-0.0394471 1.87255 -4.21196e-21)
(-0.0328427 1.91512 1.65921e-19)
(-0.0323374 1.89665 1.14666e-21)
(-0.0268625 1.81326 3.00669e-20)
(-0.0340154 1.80893 1.9271e-20)
(-0.0218148 1.77769 0)
(-0.0229403 1.77823 0)
(-0.103135 1.84726 7.5958e-20)
(-0.0949903 1.76855 4.9756e-20)
(-0.0923728 1.8088 -7.10895e-20)
(-0.142176 1.86512 0)
(-0.013651 1.806 -5.37014e-20)
(-0.0129139 1.81437 2.50165e-20)
(-0.0132554 1.81338 -8.16768e-21)
(-0.0217485 1.81321 -3.65589e-20)
(-0.0144765 1.81874 -1.26372e-20)
(-0.0150063 1.82436 6.46241e-20)
(1.02201 0.00283563 -2.85914e-19)
(1.01729 0.00965443 2.8964e-19)
(1.01729 0.00265461 0)
(0.997161 0.0455097 4.0614e-19)
(0.992382 0.0322988 -4.8264e-19)
(0.964782 0.0241351 5.58548e-19)
(0.992484 0.0815626 -5.39109e-20)
(1.02499 0.0088805 0)
(1.03191 0.0117003 2.46417e-19)
(1.02948 0.00826131 -2.41524e-19)
(1.03341 0.040513 -1.34188e-20)
(1.03666 0.0263522 1.1814e-19)
(1.02754 0.0523807 0)
(1.02297 0.0432589 -4.43621e-20)
(1.01956 0.022097 0)
(1.0186 0.0206225 0)
(1.03604 0.00608845 0)
(1.02947 0.00476146 0)
(1.02671 0.0227536 9.1444e-20)
(1.02891 0.0164022 -2.05252e-19)
(1.02787 0.0289517 -9.27574e-20)
(1.0276 0.0295958 -1.08051e-19)
(1.02519 0.0528764 1.94117e-19)
(1.0621 0.0492363 0)
(1.05312 0.0891898 0)
(-0.0138035 1.80614 -2.22499e-20)
(-0.0130605 1.79594 -2.03628e-21)
(-0.0145292 1.79478 0)
(-0.00950091 1.80774 2.31209e-20)
(-0.0094897 1.80329 3.65121e-21)
(-0.00954785 1.80655 -3.95327e-21)
(-0.00880958 1.82411 4.72987e-20)
(-0.0135266 1.81724 -2.82763e-21)
(-0.0137062 1.8172 1.33797e-20)
(-0.0098219 1.81945 -2.4339e-20)
(-0.00964574 1.82012 2.8776e-20)
(-0.0181612 1.79005 4.14468e-22)
(-0.0178513 1.79041 2.52452e-20)
(0.451637 1.14601 -4.94563e-19)
(0.45862 1.32955 -7.571e-19)
(0.6497 1.36314 -6.11644e-19)
(0.536427 1.37105 -3.14827e-19)
(0.530032 1.40013 0)
(0.620781 2.4016 1.21854e-19)
(0.670982 2.4091 2.21038e-19)
(0.294085 2.46792 9.17783e-20)
(0.265015 2.62273 -1.86732e-19)
(0.365487 2.59576 1.95282e-19)
(0.511643 2.4665 0)
(0.486092 2.40258 -3.76059e-19)
(0.027139 2.27529 7.8707e-19)
(0.184211 2.39101 -5.63967e-20)
(0.171533 2.26684 -1.03264e-18)
(0.911446 2.3373 1.67902e-19)
(0.838516 2.36882 0)
(1.01043 -0.00082932 9.66565e-21)
(1.01343 -0.00572821 -7.96442e-21)
(1.01559 -0.00736784 -1.44048e-19)
(1.01408 -0.00791562 1.44485e-19)
(1.01309 -0.00120083 0)
(0.656357 1.26649 0)
(0.650585 1.17453 0)
(0.755056 1.05506 0)
(0.635337 1.12055 0)
(1.15368 2.6324 5.30661e-20)
(1.02755 2.34575 0)
(0.773506 2.22944 -6.81938e-22)
(0.87672 2.47101 0)
(0.928991 2.54619 -2.50724e-20)
(0.929029 2.50618 1.70226e-20)
(0.833982 0.137497 0)
(0.800624 0.15957 8.32121e-20)
(0.903006 0.120393 4.25508e-19)
(0.859986 0.108386 -1.71701e-19)
(0.857341 0.0710948 -5.1116e-19)
(1.02074 0.216666 -2.4447e-19)
(0.955162 0.259962 -1.56959e-20)
(0.894801 0.25414 3.75528e-19)
(0.965236 0.206092 2.86751e-19)
(0.926118 0.16312 -5.32814e-19)
(0.893265 0.175125 6.84814e-20)
(0.914532 0.236167 -1.34139e-19)
(0.896092 0.195533 0)
(0.969993 0.165463 2.55076e-19)
(0.999919 0.166919 0)
(0.996433 0.198568 0)
(1.05099 0.0950929 8.23714e-20)
(1.0169 0.152414 -1.23918e-20)
(1.01232 0.215777 -4.51518e-20)
(1.04558 0.182859 0)
(1.01184 0.0242911 2.19473e-19)
(1.018 0.0434579 2.59372e-19)
(1.0175 0.0279526 -2.17693e-19)
(1.01053 0.047976 -1.74597e-19)
(1.00016 0.0488188 -2.87327e-19)
(0.974309 0.128029 0)
(0.986833 0.0803431 0)
(0.966204 0.0474315 -2.02582e-19)
(0.929468 0.0553984 8.37989e-20)
(0.996059 0.0782632 2.46528e-19)
(1.01517 0.0946312 -2.49557e-19)
(1.02409 0.123662 2.27155e-19)
(0.996831 0.119419 0)
(1.02687 0.0850334 0)
(1.01463 0.0717803 -1.05469e-19)
(1.01166 0.0745541 -1.98649e-19)
(0.530844 1.08963 -1.04766e-19)
(0.597892 1.55154 1.97651e-19)
(1.13062 2.79424 1.49133e-19)
(1.21627 3.11244 -7.61624e-20)
(1.22364 2.74368 5.81674e-19)
(1.26359 2.72569 -3.4721e-19)
(1.18167 2.34288 -3.5654e-21)
(1.19899 3.01819 2.25614e-19)
(1.21037 2.98407 -2.69041e-19)
(1.21026 3.26199 -2.74498e-19)
(1.37066 2.99087 3.80548e-19)
(1.3666 2.90133 0)
(0.510366 0.843926 -1.03415e-20)
(0.155333 1.29906 3.55358e-19)
(0.514734 0.550253 3.51423e-19)
(0.336395 0.320262 3.80459e-19)
(0.555913 0.453799 4.04983e-19)
(0.54009 0.501165 -6.39083e-19)
(0.541921 0.528605 5.2282e-19)
(0.514661 0.483013 -2.09896e-19)
(0.479583 0.435369 4.85617e-19)
(0.776447 0.256171 -1.82734e-19)
(0.74526 0.298328 0)
(0.742872 0.255248 1.15177e-20)
(0.683281 0.523622 1.87514e-19)
(0.664864 0.489405 -6.92962e-19)
(0.600951 0.504318 1.9826e-20)
(0.621531 0.481415 0)
(0.629091 0.729794 1.39736e-19)
(0.773413 0.774741 5.00343e-20)
(0.705429 0.846483 -6.68234e-20)
(0.813199 0.800264 -1.69519e-20)
(0.868601 0.833491 1.56722e-20)
(0.874782 0.842908 -1.60369e-20)
(0.78182 0.62337 -2.21403e-19)
(0.866241 0.683206 1.57477e-20)
(0.928937 0.694064 0)
(0.91988 0.668113 -1.47072e-20)
(0.974998 0.295928 6.16029e-20)
(1.06808 0.275719 9.1378e-21)
(1.00593 0.255265 9.97203e-20)
(0.949603 0.327811 -1.42232e-19)
(0.986584 0.397196 0)
(1.0517 0.384199 0)
(0.880311 0.325854 5.54592e-21)
(0.84006 0.27241 0)
(0.83836 0.251397 1.97208e-19)
(0.889824 0.257153 -5.34083e-21)
(0.880264 0.401305 7.53888e-19)
(0.825342 0.46619 1.93661e-19)
(0.83361 0.430814 -2.43919e-19)
(0.776986 0.418846 2.62021e-19)
(0.761153 0.420922 1.81266e-19)
(0.75637 0.415071 -1.77317e-19)
(1.02513 -0.00844994 2.28356e-19)
(1.02726 -0.00787742 0)
(1.0253 -0.0106242 1.55119e-19)
(1.0236 -0.0135563 -3.41614e-19)
(1.03516 0.000478946 1.68288e-19)
(1.02889 0.00937688 -3.55514e-19)
(1.02721 0.0131104 0)
(1.02129 0.0139784 -7.40699e-20)
(1.02267 0.00654602 1.84792e-19)
(1.01785 0.0116818 -9.39823e-20)
(1.02125 0.0136165 7.00108e-20)
(-0.0440334 1.72117 0)
(-0.0764631 1.75215 0)
(-0.0590888 1.67033 0)
(-0.0379426 1.68307 0)
(-0.221095 1.68466 -1.26272e-19)
(-0.216763 1.56147 2.83546e-20)
(-0.293926 1.93131 1.79956e-20)
(-0.373014 1.70124 -1.38889e-19)
(-0.128274 1.77078 -2.88962e-20)
(-0.143395 1.76499 1.96174e-20)
(-0.179638 1.67455 1.83107e-20)
(-0.155651 1.68965 4.15697e-20)
(-0.109813 1.71366 3.29767e-21)
(-0.101759 1.73554 -2.43622e-21)
(-0.124819 2.0188 -1.38572e-19)
(-0.133358 2.0812 0)
(-0.255343 2.11779 3.20516e-20)
(-0.298601 1.9714 9.61614e-21)
(-0.209506 2.28674 2.73334e-20)
(-0.107145 2.41089 0)
(-0.0773317 2.44793 -1.75228e-19)
(-0.0185313 2.50899 1.24675e-19)
(-0.241668 2.21783 -1.08609e-20)
(-0.2503 2.17836 -3.34002e-20)
(-0.176776 2.28153 0)
(-0.0811674 1.83609 -1.00921e-19)
(-0.0672786 1.83998 -1.48514e-19)
(-0.0692964 1.83304 0)
(-0.0737083 1.87512 -4.82438e-21)
(-0.0910544 1.87214 5.42689e-20)
(-0.0267315 1.79019 5.83221e-21)
(-0.0226377 1.78976 -8.89346e-20)
(-0.026217 1.79428 1.88074e-20)
(-0.0303827 1.79597 3.6752e-20)
(-0.0364398 1.79759 0)
(-0.0257177 1.79397 0)
(-0.02522 1.78739 2.7674e-20)
(-0.0258032 1.79131 -8.8052e-21)
(-0.0261274 1.79221 0)
(-0.024717 1.78202 2.07074e-20)
(-0.0236566 1.78332 -4.08339e-20)
(1.0301 0.0181864 0)
(1.03192 0.0176214 -2.2093e-20)
(1.03221 0.0174346 -1.65333e-19)
(1.03083 0.0186398 0)
(1.03066 0.0208053 0)
(1.03443 0.0109604 -5.00681e-21)
(1.03451 0.0103571 2.73121e-19)
(1.03022 0.00899305 3.36732e-19)
(1.02938 0.00607577 0)
(1.02341 0.00483011 0)
(1.02702 0.0154856 1.67945e-19)
(1.02193 0.0125801 0)
(1.02301 0.00966552 0)
(-0.0166751 1.80748 0)
(-0.0186608 1.79082 1.93484e-21)
(-0.0179882 1.7989 1.26914e-20)
(-0.0254418 1.79246 0)
(-0.0211159 1.7932 1.68056e-20)
(-0.0200978 1.79221 -8.32727e-21)
(-0.0227837 1.7912 0)
(0.644011 1.69865 0)
(0.537965 1.32455 1.12732e-18)
(0.479048 1.76557 0)
(0.627433 1.22141 -1.19798e-18)
(0.554337 1.25871 0)
(0.580405 1.22087 5.14951e-19)
(1.01503 2.67862 -3.91963e-21)
(0.938503 2.35554 -2.1044e-19)
(0.848906 2.06652 3.49057e-19)
(0.847337 2.35429 9.52813e-20)
(0.893226 2.49778 0)
(0.920991 2.48745 0)
(0.888268 2.33783 0)
(0.888529 2.30232 -3.73935e-19)
(0.757462 2.51375 8.25308e-21)
(0.882714 2.47053 -1.1563e-20)
(0.879823 2.45209 8.76984e-21)
(0.711168 2.38188 0)
(0.803694 2.3713 0)
(0.763245 2.39206 -2.10613e-19)
(0.852794 2.50752 0)
(0.59084 1.08133 0)
(0.480183 0.905825 4.06937e-20)
(0.528663 0.939488 1.61198e-21)
(0.491452 1.03055 0)
(0.509002 0.980876 -6.22085e-20)
(0.72323 0.868498 1.80714e-20)
(0.764542 0.990497 0)
(0.74179 0.969669 -7.18221e-20)
(0.635016 1.00101 0)
(0.616246 0.919503 0)
(1.13416 2.79718 6.40708e-20)
(1.1123 2.86528 1.23112e-19)
(0.882726 2.4055 -2.8473e-19)
(0.852374 2.38301 2.87321e-20)
(1.09511 2.75409 0)
(1.05251 2.71784 -3.56457e-20)
(1.05256 2.47489 -5.66821e-20)
(0.930785 2.18546 -2.4401e-20)
(0.483012 1.43269 0)
(0.459223 1.09614 9.22042e-20)
(0.551025 1.19823 0)
(0.835899 0.217974 0)
(0.808275 0.181076 0)
(0.77247 0.193655 0)
(0.83047 0.218858 -3.12997e-19)
(0.785984 0.219997 1.92265e-19)
(0.930661 0.0530353 -1.66501e-19)
(0.938351 0.101723 0)
(0.923026 0.103857 7.93437e-20)
(0.885552 0.0777133 3.25344e-19)
(0.886602 0.0578661 -2.00567e-19)
(1.16377 3.38274 -9.92116e-19)
(1.20897 3.30449 0)
(1.16582 3.40621 -1.94696e-18)
(0.655859 3.56616 1.67352e-18)
(0.883797 3.12443 3.93723e-19)
(0.494957 0.861029 2.0373e-19)
(0.44278 0.838504 0)
(0.344759 0.5683 -7.96485e-20)
(0.406133 0.687206 3.58744e-19)
(0.510622 0.546432 -1.08857e-19)
(0.496321 0.566579 1.22875e-19)
(0.619499 0.542631 2.62588e-19)
(0.635561 0.55484 0)
(0.586933 0.628588 0)
(0.552849 0.565514 0)
(0.912258 0.58103 -5.25807e-20)
(0.832048 0.518038 -1.8705e-19)
(0.859404 0.558821 8.85791e-20)
(0.899727 0.493734 -1.35049e-19)
(1.00656 0.463187 0)
(1.01305 0.547015 -5.94409e-21)
(0.821489 0.364533 -3.93091e-19)
(0.828596 0.351264 -4.51413e-19)
(0.810539 0.367579 3.07829e-19)
(0.803984 0.333113 -3.50013e-19)
(0.832356 0.295852 -2.61607e-19)
(0.80377 0.298097 3.20081e-19)
(1.03815 0.00185924 -1.76146e-19)
(1.03949 0.00281394 3.58062e-19)
(1.02717 -0.00190875 2.19179e-19)
(1.03295 0.00270511 -2.61273e-19)
(1.03195 0.0151352 0)
(1.03528 0.0115166 -4.30543e-19)
(-0.146711 1.86705 3.09384e-20)
(-0.16323 1.86304 0)
(-0.227538 1.93379 1.97912e-20)
(-0.254535 1.96226 -4.59586e-21)
(-0.278697 1.91494 -3.26586e-20)
(-0.238776 1.90206 0)
(-0.0193715 1.81012 0)
(-0.0247729 1.79925 -9.28589e-21)
(-0.024232 1.79491 8.28296e-21)
(-0.0229311 1.79541 1.97805e-21)
(-0.0195423 1.8069 -1.65696e-20)
(-0.0178087 1.80942 1.06265e-20)
(0.58787 1.42444 3.84213e-19)
(0.625095 1.47156 -4.10543e-19)
(0.630557 1.27449 4.96127e-19)
(0.754536 1.4132 -2.63615e-20)
(0.644614 1.28116 0)
(0.613952 1.30601 5.5961e-19)
(0.615587 1.33078 -5.52301e-19)
(0.606175 1.24058 -4.85465e-19)
(0.637352 1.26453 0)
(0.592015 1.26486 0)
(0.799218 2.52042 -1.24458e-20)
(0.759303 2.52304 3.96152e-19)
(0.819439 2.53865 -2.68867e-19)
(0.719239 2.54616 -1.0927e-19)
(0.590985 2.71264 -4.23439e-21)
(0.472401 2.74673 -1.20543e-19)
(0.951443 2.31157 -1.94795e-19)
(0.982907 2.35672 0)
(0.861172 2.07443 -2.08746e-19)
(1.0284 2.69871 0)
(1.01211 2.67104 0)
(0.632806 2.28469 2.72915e-19)
(1.04259 3.18076 5.01831e-19)
(0.920772 3.04667 -4.55407e-19)
(0.291471 0.975705 0)
(0.346582 0.850697 -1.4584e-19)
(0.497009 0.778268 -5.4668e-20)
(0.429919 2.05472 0)
(0.47162 2.7882 -2.73937e-19)
(0.441987 2.55751 0)
(0.633739 0.68727 -2.9016e-19)
(0.709962 0.674262 3.78281e-19)
(0.735243 0.619365 -3.6875e-19)
(0.605875 0.644517 -4.42629e-20)
(0.669552 0.596432 -1.83737e-19)
(1.00922 2.7974 -3.8133e-19)
(1.02715 2.85569 3.319e-19)
(0.673115 2.22516 -2.42978e-20)
(0.593963 1.73148 -1.59838e-20)
(0.710425 1.95485 1.91913e-19)
(0.985341 2.50087 -3.72058e-20)
(0.985925 2.5202 -2.21614e-19)
(0.69327 1.89982 -9.60131e-21)
(0.454866 1.35274 -1.26548e-19)
)
;

boundaryField
{
    wall-4
    {
        type            noSlip;
    }
    velocity-inlet-5
    {
        type            fixedValue;
        value           uniform (1 0 0);
    }
    velocity-inlet-6
    {
        type            fixedValue;
        value           uniform (0 3 0);
    }
    pressure-outlet-7
    {
        type            zeroGradient;
    }
    wall-8
    {
        type            noSlip;
    }
    frontAndBackPlanes
    {
        type            empty;
    }
}


// ************************************************************************* //
