/*--------------------------------*- C++ -*----------------------------------*\
  =========                 |
  \\      /  F ield         | OpenFOAM: The Open Source CFD Toolbox
   \\    /   O peration     | Website:  https://openfoam.org
    \\  /    A nd           | Version:  13
     \\/     M anipulation  |
\*---------------------------------------------------------------------------*/
FoamFile
{
    format      ascii;
    class       volScalarField;
    location    "31";
    object      p;
}
// * * * * * * * * * * * * * * * * * * * * * * * * * * * * * * * * * * * * * //

dimensions      [0 2 -2 0 0 0 0];

internalField   nonuniform List<scalar> 
918
(
0.467698
1.12118
0.0247897
0.466966
-0.0178587
1.0882
-0.592126
0.639337
0.447802
-0.175243
-0.119891
0.44138
0.948889
0.713698
-1.21892
-0.00943585
0.590731
-0.469871
0.446794
-0.208201
0.672745
0.454423
0.457461
0.448054
0.507806
0.694915
0.82955
-0.0560907
0.0125657
-0.0373152
-0.0920217
-0.129048
-0.136632
0.971848
1.02293
1.04561
0.416348
0.243147
-0.450507
-0.522405
-0.513873
-0.640872
0.631298
0.633763
-0.257624
0.639618
0.649805
0.435083
0.447165
0.448068
0.449178
0.448114
0.44952
0.330192
-0.184174
-0.212175
-0.153241
-0.147157
0.0056108
-0.116781
-0.121362
-0.123205
-0.134473
0.368531
0.437751
0.434902
0.446001
0.453264
1.06073
1.03265
1.05879
0.972462
0.988943
0.926874
0.899386
0.735277
0.75702
0.697835
0.685522
-1.65727
-2.62114
-0.622305
-0.367745
-0.0410254
0.0324981
-0.000303573
0.581043
0.581918
0.591297
0.603617
0.988959
-0.466858
-0.596458
0.446935
0.445723
0.454115
0.454802
0.450811
0.449905
-0.219834
-0.206338
-0.124148
-0.204252
-0.174948
0.661121
0.660009
0.4486
0.445624
0.460831
0.480703
0.472843
0.20372
0.513234
0.528807
0.515495
0.682443
0.678391
0.686585
0.803147
0.765857
0.866742
0.890134
-0.028983
-0.0230636
-0.0120115
-0.0867832
-0.0556498
0.412321
0.405102
0.430831
0.419683
0.422084
0.158238
0.0222921
0.329747
0.355079
-0.360367
-0.424076
-0.527598
-0.545352
-0.659901
0.507858
0.619607
0.620452
-0.277051
-0.196845
-0.335434
-0.123261
-0.185594
0.425569
0.4324
0.427497
0.442819
0.437333
0.439263
0.451387
0.44848
0.450029
0.392655
0.515288
0.256223
0.223257
-0.329307
-0.232117
-0.329263
-0.136901
-0.131348
0.00888448
0.0288135
0.000128666
-0.00988703
-0.128147
-0.124136
-0.12819
-0.148316
-0.157008
0.361296
0.350711
0.380393
0.387352
0.428664
0.429667
0.432543
0.431203
0.850237
0.872696
0.88006
0.85377
-3.6238
-6.43046
-0.038079
0.101419
-0.0768905
-0.0815419
-0.0379505
-0.0739946
-0.0356261
-0.0150975
-0.00456357
-0.0176037
0.0110263
0.0108244
0.56626
0.566377
0.905574
0.901512
0.89035
0.84065
0.434949
0.437094
0.442657
0.438505
-0.178814
-0.196038
-0.186007
0.647754
0.655136
0.654981
0.167809
0.0840688
0.251242
0.278414
0.551904
0.53441
0.549131
0.577897
0.613231
0.897665
0.915836
0.914092
0.922379
0.966425
0.982834
0.94816
0.392793
0.40216
0.397427
0.434111
0.431762
0.432734
0.427973
0.42963
0.427339
-0.130424
-0.515246
0.414848
0.43066
0.404107
0.414077
0.583664
0.654693
0.602749
0.611098
0.611986
-0.057066
-0.115112
0.17857
0.147615
0.304387
0.338882
0.319037
0.821415
0.78166
0.831715
0.805255
0.766575
0.792884
-0.467247
-1.98315
-1.09331
0.457456
0.268266
0.357215
-0.0205813
-0.0220562
-0.0112581
0.89236
0.972059
0.572572
0.734866
0.746365
0.652302
0.683085
0.738976
0.661772
0.698312
0.73547
0.716792
0.465665
0.426826
0.427371
0.722654
0.777989
0.057147
0.00360185
-0.0411772
0.0458627
0.104609
0.0787463
0.939472
0.835753
0.908478
0.445362
0.446048
-0.116107
-0.1475
0.45015
0.450164
-0.118094
-0.178454
0.339122
-0.928656
0.0454342
0.438581
0.428943
0.445806
-0.165289
0.285276
-0.110069
0.000503335
-0.0409785
0.438815
0.377957
0.33991
-0.191324
-0.0525433
-0.221761
-0.291457
0.443033
0.441348
0.445272
0.446291
0.446939
-0.225244
-0.191362
-0.152994
-0.276216
-0.21562
-0.225636
0.410715
0.42749
-0.245269
0.4454
0.447537
0.447351
0.440502
0.446145
0.4444
-0.0914241
-0.144527
-0.0982873
0.153888
0.270993
0.586761
0.683021
0.551528
0.324726
0.0854223
0.486407
0.55219
0.4542
0.613187
0.61268
0.630367
0.107613
-0.0399353
0.116183
0.0600508
0.436465
0.435118
0.427205
0.424337
0.440683
0.438776
0.443335
0.440279
0.443228
0.444671
-0.119649
-0.135997
-0.161777
-0.219931
0.245465
0.505718
0.178816
0.210394
0.0844328
-0.105391
-0.111041
-0.11109
-0.121984
-0.0639755
-0.0629279
-0.010947
0.00439499
-0.0179979
-0.0360306
-0.0646679
-0.0722794
-0.0811621
0.432681
0.431585
0.437631
0.445227
0.38702
0.391045
0.35766
0.377226
0.36306
0.305148
0.339193
0.314205
-0.112019
-0.188815
-0.104682
-0.079147
-0.0265243
-0.271836
-0.297249
-0.316801
-0.248433
-0.263712
-0.208064
-0.208331
-0.251395
-0.365015
0.891985
0.833802
0.029037
0.432276
0.438645
0.435479
0.440208
0.443311
0.444204
0.441953
0.438471
0.42812
0.429935
0.426268
0.426747
-0.185603
-0.322921
-0.146622
-0.213787
0.0514203
0.544451
0.284522
0.225633
0.219416
0.439074
0.834235
0.630995
0.629699
0.653435
-0.432706
-0.0361569
-0.365696
0.252487
0.0749475
0.586269
0.636506
0.657839
0.605305
0.556801
-0.201624
0.457549
-0.133259
-0.089
0.102636
-0.00400409
0.630092
0.595699
0.600604
0.617673
0.636348
0.601343
0.579793
0.574801
0.614299
0.619998
0.413313
0.186542
0.141966
0.103886
0.579546
0.454743
0.51308
0.426715
0.431331
0.434183
0.432756
0.415456
0.422606
0.418409
0.424015
0.427161
0.436408
0.436736
0.432193
0.434391
-0.123573
-0.130132
-0.102937
-0.216319
-0.204243
-0.260189
-0.14554
-0.0113349
-0.0432766
0.144803
0.251377
-0.037592
-0.150635
-0.120735
-0.0915192
0.089373
0.114927
0.00265954
0.101056
0.0784897
0.0655217
0.166245
0.175657
-0.0970981
-0.0942969
-0.106169
-0.104707
-0.0304961
0.0338233
0.0465999
-0.0888425
-0.061939
-0.109644
-0.132869
-0.0967645
-0.0964849
-0.0896031
-0.0575412
-0.222086
-0.129836
-0.102139
-0.0978424
-0.0612228
-0.0687492
0.42672
0.428456
0.428326
0.43563
0.451319
0.465983
0.428644
0.408785
0.399956
0.402865
0.37726
0.386951
0.383515
0.395723
0.415616
0.423718
0.422223
0.424709
0.408038
0.409652
0.397261
0.40041
0.377614
0.359472
0.348157
-0.212414
-0.201676
-0.217036
-0.141154
-0.138297
-0.128557
-0.0434889
-0.0557529
-0.0545168
-0.0352846
-0.0346155
-0.293671
-0.281315
-0.162595
-0.0857149
-0.269782
-0.301763
-0.370762
0.798796
0.913824
0.7253
0.504701
0.511364
0.747612
0.836947
0.470629
0.646308
0.674312
0.480007
0.739001
0.437053
0.436621
0.434289
0.43376
0.434991
-0.0987791
0.000619016
0.0122727
0.0656961
0.183348
0.297984
0.21294
0.0854198
0.220219
0.226775
0.538949
0.555289
0.501371
0.525645
0.523251
0.351217
0.42839
0.483795
0.43695
0.482225
0.504528
0.465249
0.495628
0.441857
0.399396
0.398164
0.343986
0.364865
0.342718
0.324914
0.426643
0.404751
0.41505
0.405682
0.425346
0.45193
0.446333
0.4728
0.484321
0.410973
0.371312
0.380795
0.408795
0.36982
0.382758
0.398232
0.132894
0.0327575
0.118134
-0.174292
-0.0930802
-0.108832
-0.155385
-0.109915
0.176586
-0.52256
-0.496114
-1.12961
0.398363
0.865446
0.584698
0.555606
0.63179
0.609983
0.612719
0.636081
0.643357
0.569255
0.586579
0.591088
0.544867
0.56865
0.591214
0.589647
0.429797
0.3055
0.296565
0.257509
0.134177
0.167012
0.370122
0.291894
0.219329
0.224234
0.386828
0.276853
0.342681
0.380887
0.312607
0.268144
0.469728
0.536813
0.527453
0.502701
0.418531
0.430712
0.456551
0.492049
0.519105
0.551473
0.423863
0.42966
0.430945
0.428524
0.425647
0.428494
0.428539
0.431079
0.431958
0.434885
0.433857
-0.119613
-0.109946
-0.117483
-0.125932
-0.0963263
-0.103404
-0.0547325
-0.0657773
-0.0815324
-0.0737453
-0.102478
-0.106683
-0.0978732
-0.0908205
0.0194004
0.0354077
0.0252904
-0.0204451
0.15759
0.291331
0.356833
0.237598
0.130667
0.156829
0.183213
-0.0849882
-0.0384207
-0.0584214
-0.0215963
-0.0383316
-0.111898
-0.128591
-0.13521
-0.0823917
-0.0925904
-0.159847
-0.200606
-0.183017
-0.170097
-0.141952
-0.1761
0.41108
0.404733
0.405766
0.399989
0.398894
0.412273
0.416402
0.418176
0.423359
0.425105
0.415925
0.42123
0.424598
-0.155049
-0.244652
-0.217977
-0.175785
-0.203076
-0.249662
-0.213666
0.0235282
-0.0498345
-0.0438669
-0.0856208
-0.207814
-0.153212
0.388346
0.387913
0.396705
0.613466
0.465896
0.385912
0.482303
0.586093
0.169804
0.370419
0.201808
0.783945
0.674602
0.818864
0.440706
0.145891
0.300704
0.350171
0.159526
0.23219
0.237111
0.1267
0.159109
0.189829
0.288934
0.169783
0.144438
-0.099302
0.0869768
0.206741
0.187042
0.318299
0.382937
0.159484
0.0832091
0.0375327
0.53099
0.551016
0.56982
0.539483
0.564357
0.486551
0.478326
0.496465
0.504556
0.498465
-0.857492
-0.564977
-1.51014
-0.82515
-0.374681
0.429401
0.393244
0.665828
0.556629
0.622084
0.607717
0.568417
0.534064
0.545841
0.578388
0.280129
0.38984
0.364108
0.370673
0.273519
0.207049
0.505583
0.498945
0.536015
0.559985
0.526409
0.560106
0.42173
0.421385
0.420772
0.41748
0.416049
0.418072
-0.0123216
-0.0437701
-0.0115149
-0.0339672
-0.058113
-0.0669656
-0.110465
-0.129171
-0.149065
-0.159598
-0.145001
-0.105326
0.0632957
0.00643443
-0.0685605
-0.0396005
-0.0965873
-0.159705
-0.17945
-0.0810226
0.00794434
0.000176071
0.302674
0.55373
0.376825
0.545994
0.384207
0.440117
0.388005
0.378972
0.409566
0.285736
0.362543
0.129706
-0.374692
-0.283309
0.682569
0.701455
0.486519
0.300125
0.0702089
0.258197
0.457269
0.394942
0.434054
0.50239
0.494888
-0.0849312
-0.0182581
0.244337
0.472576
0.138905
0.129821
0.125215
0.300096
0.223873
)
;

boundaryField
{
    wall-4
    {
        type            zeroGradient;
    }
    velocity-inlet-5
    {
        type            zeroGradient;
    }
    velocity-inlet-6
    {
        type            zeroGradient;
    }
    pressure-outlet-7
    {
        type            fixedValue;
        value           uniform 0;
    }
    wall-8
    {
        type            zeroGradient;
    }
    frontAndBackPlanes
    {
        type            empty;
    }
}


// ************************************************************************* //
