/*--------------------------------*- C++ -*----------------------------------*\
  =========                 |
  \\      /  F ield         | OpenFOAM: The Open Source CFD Toolbox
   \\    /   O peration     | Website:  https://openfoam.org
    \\  /    A nd           | Version:  13
     \\/     M anipulation  |
\*---------------------------------------------------------------------------*/
FoamFile
{
    format      ascii;
    class       surfaceScalarField;
    location    "31";
    object      phi;
}
// * * * * * * * * * * * * * * * * * * * * * * * * * * * * * * * * * * * * * //

dimensions      [0 3 -1 0 0 0 0];

internalField   nonuniform List<scalar> 
1300
(
3.75095
5.62643
-4.23538
3.75095
-4.73869
5.62643
-4.45278
4.45278
-1.05093
1.05093
1.87645
1.8745
-2.98748
2.98748
-2.43804
2.43804
-2.56299
2.56299
-5.24639
5.24639
-5.06841
5.06841
4.66826
-4.66826
-5.06084
5.06084
-1.42272
1.42272
-3.85947
3.85947
3.16976
-3.16976
-2.34725
2.34725
-0.278034
0.278034
-0.553545
4.3045
3.19741
3.19741
-2.08613
2.08613
-4.86227
4.86227
6.21805
-6.21805
5.92001
-5.92001
-1.68463
-3.18628
1.20099
-10.1621
-3.5377
-3.5377
-8.44039
8.44039
-2.81396
2.81247
2.94305
-2.94305
-1.78444
1.78444
-4.39504
-0.0577356
-4.39504
4.44378
0.00899454
4.44378
-1.15879
0.107857
-1.15879
3.95132
-3.95132
0.894158
0.156776
0.894158
3.06462
-3.06462
-1.87707
3.75352
1.87388
-1.87185
6.17635
-1.8791
3.7536
-5.92032
5.92032
-3.20176
0.214285
-3.20176
2.78076
0.206719
2.78076
-6.70918
6.70918
-2.44292
0.00488617
-2.44292
2.35723
0.0808066
2.35723
2.86446
-2.86446
-2.66078
0.0977913
-2.66078
2.45343
0.109561
2.45343
0.35354
5.27289
-5.97997
8.79244
-5.27289
0.0264993
5.20837
0.0380176
5.20837
-5.106
0.0375878
-5.106
5.01225
0.056167
5.01225
4.75963
-0.0913686
4.75963
-4.78302
0.114766
-4.78302
-2.98756
-5.30347
-5.7263
0.665463
-5.7263
-1.42597
0.003245
-1.42597
1.38141
0.0413118
1.38141
-3.56914
3.56914
-4.23096
0.371493
-4.23096
3.12424
0.0455271
3.12423
1.86853
1.88243
5.61948
-5.61948
2.44972
-2.27006
-0.0771881
-2.27006
-2.47923
-3.44078
2.47923
-0.13198
-0.547672
0.269638
-0.547672
3.15921
0.0381979
3.15921
2.30513
0.148295
-2.30513
0.219
3.20211
-3.20211
1.46465
0.621477
1.46465
-5.56754
5.56754
4.95346
0.0587823
-4.95346
0.0911895
6.1567
0.0613554
6.1567
-6.19959
-0.0184576
-6.19959
1.67652
-4.8628
-3.9414
4.21854
0.842299
-4.21854
0.680837
2.91317
0.0298786
2.91317
-2.92135
2.92135
-2.98288
0.0398302
-2.98288
-2.18574
0.401302
-2.18574
1.4832
0.30124
1.4832
-4.26995
-0.125092
-4.26995
-4.36711
0.136146
4.36711
0.0766784
1.07016
-1.07016
-1.26273
0.103941
-1.26273
-4.10341
-0.166542
4.10341
-0.152089
-3.82597
-0.125347
-3.82597
-3.02331
0.0404374
3.02331
0.0413049
3.11248
0.046733
-3.11248
0.047859
-1.87084
3.75327
-1.88011
3.75399
-5.53798
-0.382344
-5.53798
6.23342
-0.313103
6.23342
3.53906
0.320404
-3.53906
0.337302
2.60474
0.176015
2.60474
-6.69576
-0.013413
-6.69576
6.65433
0.0548494
6.65433
2.49639
0.10835
-2.49639
0.0534662
2.29655
0.0606839
2.29655
2.87726
-0.0127964
2.87726
-2.86316
-0.00130014
-2.86316
2.80285
-2.80285
2.73587
0.0669819
-2.73587
0.0750892
-11.1327
11.1143
-0.0349928
-11.0978
5.17338
5.17338
4.18947
0.570151
4.18947
-4.99813
0.215105
-4.99813
2.07163
-6.01303
4.94415
-7.93172
5.17405
-15.3362
3.60842
-8.91189
6.43011
-6.43011
6.18851
0.241603
-6.18851
0.462211
-1.44871
0.0227361
-1.44871
-2.96102
-0.608123
-2.96102
4.22595
-0.656812
4.22595
-3.0293
3.0293
-3.07812
0.0488228
3.07812
0.0461136
2.21535
0.0811926
-2.21535
-0.0547064
0.724308
0.16985
-0.724308
0.176636
3.41308
-0.210969
3.41308
-3.01621
-0.185905
-3.01621
-1.46008
0.0113736
1.46008
0.00457551
-5.81483
0.247294
-5.81483
-11.1908
0.0930424
-11.1528
-6.10655
-6.10655
2.33384
11.1263
-2.88578
0.0226153
2.88578
0.0273916
2.97637
0.0529323
-2.97637
0.0550212
-2.86388
0.0610328
2.86388
0.0574617
-2.56279
0.377045
-2.56279
-1.07275
1.07275
-1.24823
0.17548
1.24823
0.234973
1.31201
-0.241853
1.31201
1.33028
0.0511286
-1.33028
0.0675516
-3.716
-0.109978
-3.716
6.46422
-0.230793
6.46422
-2.92185
-0.0943598
2.92185
-0.0445923
-0.0333465
11.1476
-5.14003
0.0340335
5.14003
-11.209
11.243
-3.23639
0.673597
3.23639
0.953089
5.28945
0.27809
-5.28945
0.291318
6.58381
0.0705136
-6.58381
0.153701
-2.46968
-0.491341
-2.46968
-4.95623
-0.581751
4.95623
-0.730273
-11.4744
-0.204216
11.6786
-11.4183
6.01905
0.137649
-6.01905
11.3807
-0.998003
-0.0721558
0.998003
0.074745
1.62386
-0.311851
1.62386
3.60787
-0.194789
-3.60787
-0.108123
-6.61366
-0.0821058
6.61366
-0.149441
-2.03155
-0.438128
2.03155
-0.407686
-4.26697
4.30517
1.90938
-1.23397
-3.62882
-4.67476
1.85205
1.90122
4.30176
-10.0389
-5.29729
-9.35807
7.26693
-6.97561
-9.27214
9.18077
7.60469
-7.73004
-5.78539
5.8315
6.48174
-6.44044
1.87876
1.87476
7.89419
-7.6799
-15.6885
15.3062
7.3947
-7.38981
15.7883
-15.8017
-17.8077
17.8782
-5.72656
5.82435
-6.72378
6.72248
-6.92163
6.87703
-1.98699
-5.94473
13.2853
-12.6198
6.94332
-7.02051
-8.49888
8.87038
3.3824
0.922774
3.42913
-1.88232
3.76108
-1.87128
3.78066
4.31822
-6.30521
1.69481
-5.32364
3.3005
3.64282
-3.16852
-1.50624
-5.91842
5.9483
-5.82223
5.87969
8.94007
-8.99781
-1.88508
3.75985
-1.86891
3.77013
-3.42523
-2.36016
3.37971
0.922058
7.52095
5.76436
-8.36325
-0.994824
-7.84193
7.64714
-8.11359
7.92768
-0.441863
5.82025
-5.37839
4.42041
-1.559
7.37924
5.70794
5.92304
5.86703
-5.58894
1.10858
-6.48697
-6.39578
-2.54441
2.64835
2.49648
-2.3397
5.97782
1.62687
5.82573
-5.56624
-2.1638
-5.67622
3.82128
2.01023
3.8701
4.07654
2.4052
4.11697
3.03075
-3.03563
0.00487896
-3.05625
6.087
0.72422
-5.41641
-4.49435
4.92193
2.97226
5.12865
-5.48124
-2.19866
-5.14394
-9.56059
-6.12795
-10.1423
10.1209
5.18528
9.80782
-11.9689
11.8194
4.53891
2.85579
4.61972
-4.8865
-2.50332
-4.83303
11.5938
-2.52613
-9.06772
-10.3148
-7.49285
10.26
5.52833
10.9065
6.97172
11.0602
4.39992
7.19393
-9.92824
2.43539
-3.87046
-1.8561
-3.79537
3.69805
2.1263
3.80761
-4.21292
-2.51086
-4.19031
-4.28264
-2.63899
4.29543
2.42705
-4.38109
-3.7325
4.47545
2.40159
5.18664
-10.4839
3.72525
-9.66997
-9.27666
-3.34319
-8.81445
5.12594
2.2327
-7.35864
-1.17927
8.00915
-4.36633
6.50291
-4.13335
-2.88716
-4.18806
-6.78925
-1.70963
-6.65311
-8.89454
8.40319
-9.2056
8.54879
12.6926
-5.7136
-6.97899
-3.96798
-2.47245
3.92013
-0.490997
-3.71137
3.71625
0.0497046
3.83037
4.75314
4.26214
-3.88739
-1.93484
-3.83237
3.83322
2.04647
3.89426
6.73275
2.20732
6.74175
-6.45016
-2.54765
-6.57525
9.07863
-8.67732
2.91616
-2.90478
5.28155
2.64613
-5.07058
-2.77134
6.19605
-3.12553
-3.07053
-12.2118
10.5603
1.6515
-4.83258
-0.412173
-0.134139
-5.4993
-3.77284
5.38453
0.538513
11.0988
7.326
-5.51382
5.76111
6.16483
6.22361
-0.172167
5.83605
-5.16246
5.33341
-2.42869
-2.90472
5.31635
-5.4829
-1.2589
-5.32768
4.06878
0.342833
1.73168
-1.46204
-2.01347
-0.530942
-1.94592
1.48214
1.01434
1.65199
0.960469
1.68788
-2.94525
0.543962
2.40129
-1.98478
-1.79574
-3.69299
-1.01829
4.71128
5.57583
2.07131
-5.46771
-0.208512
2.7116
-2.67028
-0.796845
-2.89614
2.1052
-2.90205
-3.60024
-1.89246
5.49271
-3.37088
-0.46149
3.31795
0.552153
-3.82495
-2.09347
3.78512
0.331849
-3.12471
6.18992
-3.06521
-5.05954
2.52894
3.55806
4.53916
-4.7902
2.44616
2.34405
-1.23214
4.21462
0.914025
4.39064
-6.71633
4.51768
5.73069
3.13968
-6.0511
0.907155
-5.80918
8.47052
-7.27045
-1.20007
4.09899
4.37153
7.17953
5.51306
-5.74573
12.9253
-1.14053
-6.12992
6.94971
-3.81002
4.76042
-8.57045
-10.2735
4.14356
-9.2427
10.9837
-1.74097
-3.61489
-8.35399
12.8576
-1.22303
-11.6346
8.58479
-4.24214
-4.34712
8.58926
-6.76827
6.85044
-2.00463
-4.84581
-10.1073
-5.6944
10.1894
1.63
-10.0705
12.5059
-2.8766
3.61856
1.00115
3.67925
3.2689
-5.41734
2.14844
3.49937
-5.50399
2.0985
-7.51584
-7.43845
13.1517
-5.71321
-10.7816
-9.85631
-0.925332
2.52518
9.98074
-9.4969
7.36896
2.12794
3.31038
0.583873
-3.37737
-0.418001
0.265298
4.55236
-4.81766
4.07291
4.2212
3.3857
1.16665
3.83931
2.10899
-3.8667
-0.323608
-4.15056
1.51157
-1.72351
-3.6487
5.16027
-4.06848
0.419787
-2.72906
-3.51229
6.24135
-4.58516
3.04006
3.14986
5.08653
-4.90838
1.39609
-2.39992
-2.50846
2.6724
-4.3959
1.93868
3.22159
4.34026
0.607764
7.14544
6.00622
-9.37815
-0.291826
11.7706
-10.7758
2.60091
8.45928
-9.96987
0.113557
-8.70089
1.14942
-5.51575
-6.20921
5.07731
-6.78694
-3.49314
6.13375
0.607993
-6.21043
-0.442675
-6.04153
-2.853
-6.47966
-3.06407
-6.14153
-8.8098
-1.65355
-7.15625
6.74965
-6.68816
-3.45419
7.41843
1.13036
-7.41089
7.33873
-7.49519
7.18334
0.0946413
3.62161
4.35679
1.88433
-2.38947
4.27381
-5.06495
7.27227
-8.56133
3.49638
4.04931
-6.59696
-4.51202
5.0415
4.03712
5.34274
8.95452
-10.4564
1.50184
-10.7849
12.1168
-1.33192
-16.5706
5.78569
-7.61607
2.65491
0.261248
2.67765
0.66358
2.42165
-3.08523
-2.2412
-2.23663
-2.34346
-3.41703
5.76049
1.15444
-3.41843
2.26399
-3.48434
4.63878
-0.0727231
-3.34571
5.28156
-2.85991
5.5428
-3.55707
1.98574
3.33615
5.68917
-2.35302
4.34604
-1.69991
1.84233
-4.19535
-1.5747
-2.97355
5.09985
-3.2678
3.68759
-0.282196
3.96978
-4.08715
0.96162
-0.701445
3.51976
3.73876
4.29055
-3.1239
2.97533
-4.67524
-1.22002
-4.06748
-0.845889
-0.289542
-3.78831
4.07785
6.05002
-6.33956
-5.25715
9.56823
-4.31108
7.72138
-5.40268
-2.31869
-4.27432
-4.403
3.89728
1.93878
9.66016
0.211014
-5.6137
-4.95144
-3.99835
3.21642
2.11699
-1.92921
3.5807
2.06335
-0.331672
0.576824
1.07517
1.85563
-1.2788
0.210232
1.6454
-1.2518
1.99052
0.721073
-2.04165
0.0957337
-1.37672
3.48193
1.02457
-2.03891
0.760101
1.06448
-3.49317
4.8386
-2.48522
-2.35338
5.90308
1.15839
-3.64361
4.16929
-3.82646
2.33151
-3.3498
-1.3121
-5.13857
-3.51169
-2.52685
4.79084
-3.23364
5.30495
1.1906
-5.09644
6.28703
-3.56942
1.67696
-3.06571
3.78678
-1.06936
-1.99634
2.78993
2.70277
-2.93163
0.0354842
-0.141695
2.32717
-2.46886
-0.574884
-2.55967
-4.57078
4.90263
-2.10823
4.55439
2.16558
-1.91433
6.46872
1.81168
-3.72601
-3.24787
-3.70936
-1.38196
3.1572
-0.569953
-4.26308
-5.41577
4.15473
0.235912
-6.87791
7.67132
-0.793411
-3.90565
-0.612025
4.71101
-5.99645
0.492457
-3.89795
3.77337
4.6874
4.92331
-11.4452
-0.189347
-6.25994
1.15703
-7.41696
5.52856
-3.62024
7.7638
-10.4354
6.98118
-9.30501
6.56373
-0.853231
6.25277
-4.10433
2.81495
-8.50934
-6.87935
5.52983
-2.67404
6.53099
-3.03862
9.56961
-5.91522
4.95387
4.61574
-0.736975
-3.45108
-5.26323
4.52626
-0.309359
3.36989
4.97362
-2.86463
4.65001
2.25675
-4.65667
-2.13915
-6.4979
1.84122
-3.34804
-1.91465
3.75588
3.17187
3.75575
1.24742
-3.33775
7.91325
-8.83858
-2.20004
-4.00918
5.13068
-0.604422
3.27223
-7.28141
-2.24352
4.87981
-0.811945
-4.06786
0.833787
-4.32693
1.65472
-5.98165
5.13222
-5.5749
2.20453
-9.8206
-5.20636
-5.13161
-2.24469
-5.2505
-7.63207
5.38738
-1.84638
5.49235
-8.6193
7.80736
-3.49751
8.88489
-5.43927
-1.04039
5.84696
1.33639
10.2213
0.182605
-4.69463
-1.8967
3.9677
-2.071
1.31972
-3.6057
0.362001
2.46987
3.43321
-6.53866
-0.0583001
-4.75293
-3.92685
7.96397
5.64138
11.6914
1.23504
9.15755
-1.19357
10.3926
4.14917
4.38414
-3.0671
4.56894
1.01075
4.50713
-0.841062
2.8268
1.83658
1.83983
0.830456
2.30363
1.43512
3.26525
0.180027
-2.0566
4.63744
-8.6358
-0.976258
-8.06564
1.11512
5.72727
-4.61215
3.11254
-0.99555
1.04154
0.108287
-1.62405
1.51577
-2.79644
-1.95572
-0.310327
-1.60136
2.36146
1.88057
-2.05113
-0.745304
0.314266
-3.82596
3.03553
-3.00005
-0.297279
5.98976
-2.7458
0.276938
-1.06884
-2.28273
-2.81367
2.71794
6.17647
0.292242
3.11126
5.19487
3.10141
0.236778
3.92852
-5.6695
-3.58732
-5.85884
-0.330282
4.38073
1.57392
8.40681
6.18966
5.58524
-1.69617
-10.5348
6.59182
-2.02289
5.2599
-1.19203
-4.78961
4.9644
2.30787
-5.57239
-0.00250136
-4.79211
-6.815
-0.533253
8.34061
-9.68803
8.64764
5.79464
1.36162
-4.41094
-0.720669
4.23546
0.14868
10.5413
-1.1279
-6.81478
7.94268
-4.59937
3.62311
0.837597
2.74311
2.35336
1.35781
-5.45697
-10.0691
-1.90789
-1.58528
-4.26126
0.450019
-2.33059
6.25223
-2.62912
3.93353
5.31356
6.3551
-2.15511
-4.18445
6.46618
-2.53265
3.82245
)
;

boundaryField
{
    wall-4
    {
        type            calculated;
        value           uniform 0;
    }
    velocity-inlet-5
    {
        type            calculated;
        value           uniform -3.75095;
    }
    velocity-inlet-6
    {
        type            calculated;
        value           uniform -5.62643;
    }
    pressure-outlet-7
    {
        type            calculated;
        value           nonuniform List<scalar> 8(4.23538 4.73869 4.87091 8.96116 8.29103 5.61792 7.01578 8.78247);
    }
    wall-8
    {
        type            calculated;
        value           uniform 0;
    }
    frontAndBackPlanes
    {
        type            empty;
    }
}


// ************************************************************************* //
