/*--------------------------------*- C++ -*----------------------------------*\
  =========                 |
  \\      /  F ield         | OpenFOAM: The Open Source CFD Toolbox
   \\    /   O peration     | Website:  https://openfoam.org
    \\  /    A nd           | Version:  13
     \\/     M anipulation  |
\*---------------------------------------------------------------------------*/
FoamFile
{
    format      ascii;
    class       volVectorField;
    location    "31";
    object      U;
}
// * * * * * * * * * * * * * * * * * * * * * * * * * * * * * * * * * * * * * //

dimensions      [0 1 -1 0 0 0 0];

internalField   nonuniform List<vector> 
918
(
(0.985168 -0.000495033 0)
(0.00500948 2.96625 0)
(-0.0551266 1.12732 0)
(0.979698 0.00215274 0)
(-0.0267224 1.26121 1.05646e-19)
(-0.00704274 2.94879 -2.32582e-18)
(0.834044 1.17833 5.20949e-19)
(0.34958 0.160686 -1.41718e-20)
(0.999905 -0.000293501 0)
(0.0592993 0.85632 0)
(0.0117171 0.685692 0)
(0.734303 -0.0102302 0)
(0.0111417 2.93032 0)
(0.00248566 2.79498 0)
(-0.0176451 3.15748 8.64869e-19)
(-0.12006 1.59522 -1.02542e-20)
(0.429896 0.0547845 9.20986e-19)
(0.189344 1.19961 4.02194e-19)
(0.962774 0.00502816 0)
(-0.0290236 0.665651 0)
(0.0840261 0.198378 -6.71823e-19)
(1.00198 -0.00498478 0)
(1.00022 -0.00980209 0)
(0.975711 -0.0064384 0)
(0.593896 -0.0429874 0)
(0.0164288 2.63755 0)
(-0.0149124 2.91007 8.45461e-19)
(-0.110235 0.983233 0)
(-0.20291 1.29713 0)
(-0.0781053 1.05002 0)
(-0.135673 2.39113 0)
(0.0248523 1.37815 -8.31301e-20)
(-0.0196068 1.03895 0)
(-0.0206068 2.9876 -8.31678e-23)
(-0.0166905 3.0053 1.8076e-18)
(0.0021045 3.00018 0)
(0.870331 -0.00940192 0)
(0.404713 0.939438 1.21051e-19)
(0.815297 1.19432 -6.36698e-19)
(0.965266 1.03316 6.52253e-19)
(0.684669 1.2878 -1.20674e-19)
(0.683172 1.27341 6.8958e-19)
(0.390231 0.248787 1.38261e-20)
(0.371661 0.132555 0)
(1.14687 0.557326 0)
(0.351934 0.249564 6.33378e-20)
(0.308164 0.165885 -6.57308e-20)
(0.919646 -0.00747801 0)
(1.00027 0.000132677 0)
(0.999911 0.000328309 0)
(1.00364 -0.00778218 0)
(1.00096 -0.000929972 0)
(1.00017 2.57955e-05 0)
(0.0769097 1.7846 -6.30908e-19)
(0.030439 1.01097 0)
(0.0818365 0.917234 0)
(0.0289941 0.950461 0)
(0.0253919 0.785226 0)
(0.0287882 2.00563 0)
(-0.0182009 0.819833 0)
(0.0046639 0.682683 0)
(-0.00828756 0.79978 0)
(-0.00723105 0.658567 0)
(0.835667 -0.014555 0)
(0.852143 0.0266191 0)
(0.768316 -0.000800154 0)
(0.826626 0.0353184 0)
(0.701443 -0.0147741 0)
(0.0146918 3.0004 8.60088e-19)
(0.0115072 3.00803 0)
(0.00611512 3.00279 0)
(0.0135523 2.99737 9.72668e-24)
(0.00797154 2.95846 -1.2783e-18)
(0.014485 2.982 0)
(0.0108392 2.9036 0)
(0.0246718 2.93037 1.91081e-24)
(0.0044289 2.82521 0)
(0.0313212 2.91605 0)
(-0.00552461 2.74536 0)
(0.308877 3.55484 0)
(-0.131928 3.63647 0)
(0.139781 3.24799 -8.04862e-19)
(-0.0125755 2.983 0)
(-0.311196 2.21101 0)
(-0.128389 1.77499 1.00561e-20)
(-0.110285 1.78415 -4.64866e-21)
(0.511018 0.150658 -3.18302e-19)
(0.428515 0.0319457 -3.07582e-19)
(0.495331 0.175021 -9.59343e-19)
(0.413862 0.0775168 -6.35173e-19)
(0.216253 0.925007 0)
(0.270644 1.33754 -4.55798e-19)
(0.379532 1.28285 7.5733e-19)
(0.98748 0.00851892 0)
(0.941957 0.00583973 0)
(1.0003 0.000572245 0)
(1.00287 0.00929858 0)
(1.00303 0.00845451 -2.28921e-18)
(0.991919 0.00970334 1.72872e-18)
(-0.0117458 0.776064 0)
(-0.00846114 0.623958 0)
(-0.103938 0.972827 0)
(-0.0228407 0.798054 0)
(-0.00706131 0.705096 0)
(0.131212 0.206319 2.07783e-19)
(0.186498 0.184935 0)
(0.993527 -0.0084026 0)
(0.954379 -0.00652714 0)
(0.780492 0.0414025 0)
(0.724904 0.0502454 0)
(0.659933 -0.0321428 0)
(0.948975 -0.00676486 0)
(0.65052 0.0628766 0)
(0.483829 -0.0208301 1.31145e-18)
(-0.0363114 2.86418 5.8516e-19)
(0.041871 2.90952 0)
(0.0549396 2.88467 0)
(-0.00444743 2.69895 0)
(-0.0131375 2.98516 7.96065e-19)
(-0.018039 2.89514 0)
(-0.015432 2.98808 -2.47782e-18)
(-0.0132949 2.9252 8.49886e-19)
(-0.283515 1.29783 0)
(-0.299338 1.49754 0)
(-0.139692 1.56455 1.56495e-21)
(-0.0895718 1.37663 0)
(-0.0996342 1.3059 0)
(0.937608 -0.00765456 0)
(0.855715 -0.00964311 0)
(0.863721 0.00681406 0)
(0.948911 -0.0080789 0)
(0.883448 -0.00811407 0)
(0.517021 1.13326 -1.56149e-19)
(0.566632 1.18462 0)
(0.368308 0.883773 2.56132e-20)
(0.310418 0.743803 0)
(0.924801 1.07117 -1.82162e-19)
(1.03829 0.874085 3.66806e-19)
(0.373961 1.38126 0)
(0.536751 1.35119 0)
(0.545333 1.30716 0)
(0.10793 0.180701 -2.53067e-19)
(0.426349 0.229539 0)
(0.395024 0.118556 1.79631e-19)
(1.00839 0.928298 0)
(1.07431 0.775974 0)
(1.10001 0.718181 -2.94515e-19)
(1.12656 0.617245 0)
(1.17194 0.401101 5.57737e-20)
(0.957348 -0.00888227 0)
(0.962269 -0.0101011 0)
(0.901339 -0.00802733 0)
(0.98414 -0.00919554 0)
(0.974579 -0.00936478 0)
(0.936996 -0.00641469 0)
(1.00019 0.00232764 0)
(1.00091 0.00141268 0)
(0.999908 0.000845434 0)
(0.0357121 2.05122 3.55899e-19)
(0.121759 1.72711 0)
(0.0182717 2.16649 5.16225e-19)
(0.0514252 1.8451 -4.13636e-19)
(0.115922 1.1983 -3.30964e-19)
(0.044183 1.08127 0)
(0.137421 1.06553 0)
(0.0222233 0.906276 0)
(0.0230391 0.721466 0)
(-0.0128558 2.18612 -8.17782e-23)
(0.0353335 1.99538 0)
(-0.0169378 2.15276 4.24555e-21)
(0.0321034 2.00314 -1.7477e-20)
(0.0192168 0.863456 0)
(-0.00141301 0.831315 0)
(0.0101362 0.691321 0)
(-0.0121326 0.77981 0)
(-0.0260257 0.639714 0)
(0.933378 0.00817648 0)
(0.842471 -0.0153685 0)
(0.924244 -0.000435106 0)
(0.838432 -0.011561 0)
(0.813395 0.00326071 0)
(0.903296 0.0188167 0)
(0.881185 0.0226593 0)
(0.790169 0.00208222 0)
(0.00565229 3.06475 -7.93e-21)
(0.0165262 3.05784 0)
(0.0146052 2.96908 0)
(0.00856278 2.87631 0)
(0.926188 3.97194 0)
(1.24103 3.30411 9.55844e-19)
(0.0701352 3.07535 0)
(-0.0283216 2.90632 0)
(-0.360289 1.5822 0)
(-0.371821 2.1289 0)
(-0.355173 1.87031 0)
(-0.212102 2.43506 -8.39899e-20)
(-0.280323 2.37488 0)
(-0.230408 2.34101 0)
(-0.0130544 1.96276 -1.91821e-21)
(-0.0547811 2.03547 -9.49367e-21)
(-0.113206 1.93885 4.62558e-21)
(-0.0627588 1.91242 0)
(0.538724 0.123149 4.75272e-19)
(0.444196 0.00802928 -4.6631e-19)
(0.261098 1.5586 0)
(0.264181 0.700896 -2.82132e-19)
(0.1777 1.64475 -9.50839e-19)
(0.225064 1.17248 9.53284e-19)
(0.902458 0.0066565 0)
(0.967597 0.0109497 0)
(0.974667 0.0107283 0)
(0.923573 0.00653632 0)
(0.00766103 0.761395 0)
(-0.0111621 0.76046 0)
(-0.0145801 0.617086 0)
(0.298081 0.243006 5.808e-19)
(0.243046 0.221072 -6.88308e-19)
(0.257073 0.177892 0)
(1.07609 0.0854314 1.95533e-20)
(1.05793 0.039774 0)
(0.992364 0.038983 0)
(0.888869 -0.00570565 0)
(0.562162 0.0955596 0)
(0.59178 0.0723726 -2.10208e-18)
(0.460349 -0.00270207 7.92434e-19)
(0.00916575 2.98106 6.45653e-19)
(-0.0330024 2.86587 4.57915e-20)
(0.00369122 3.05025 -1.68565e-20)
(0.0201057 3.04338 6.00812e-19)
(-0.0149753 2.99656 2.79807e-20)
(-0.0129857 2.94946 -1.12676e-22)
(-0.0172853 3.01195 -5.20075e-19)
(0.0148976 3.02376 3.76683e-19)
(0.00739888 3.0369 -5.95438e-19)
(0.931898 -0.00247862 0)
(0.937974 -0.00380751 0)
(0.843281 -0.00868212 0)
(0.956891 0.0115733 0)
(0.943327 0.0127638 0)
(0.882006 0.00633579 0)
(0.919009 0.0154821 0)
(0.927025 0.014192 0)
(0.839436 0.0048583 0)
(0.720705 1.41196 1.23545e-19)
(0.754303 1.52115 0)
(0.196492 0.344132 5.97711e-20)
(0.210614 0.648372 4.81311e-19)
(0.256563 0.717868 -2.77764e-19)
(0.270318 0.548878 5.47594e-19)
(0.320168 0.761973 1.34307e-18)
(0.125336 0.212025 3.22859e-19)
(0.470772 0.198898 6.75734e-19)
(0.447663 0.214245 1.7382e-19)
(0.404909 0.1023 3.36646e-19)
(1.16127 0.458869 1.0402e-19)
(1.17254 0.253308 1.02975e-19)
(0.00593094 2.20714 1.86826e-19)
(0.0510092 1.91478 0)
(0.956614 0.0272777 0)
(0.93466 0.0116785 0)
(0.855375 -0.0178191 0)
(0.011348 3.07463 0)
(0.0198972 2.94413 1.08639e-18)
(0.0164448 2.95648 0)
(0.00617922 2.85063 -1.07786e-18)
(0.00619436 3.0913 2.62613e-19)
(0.00708742 3.08223 0)
(0.787394 1.82406 -1.83421e-19)
(1.24877 2.50273 4.82094e-19)
(0.769556 1.96394 -1.31332e-18)
(0.0203834 2.98258 -5.41116e-19)
(0.0358626 3.00284 0)
(-0.0335129 2.87951 0)
(-0.011843 2.12914 -6.82975e-22)
(-0.0296252 2.09147 2.64329e-20)
(0.0122666 1.9918 -6.56095e-22)
(0.275209 1.36562 9.19841e-19)
(0.217529 0.48313 -6.31591e-19)
(0.0622631 1.97322 6.84958e-19)
(0.137685 1.86371 -8.20239e-19)
(0.177924 1.4666 8.79331e-20)
(0.00317527 3.11906 -1.61594e-18)
(0.0121327 3.11925 1.76692e-18)
(-0.0088948 2.9811 7.23358e-19)
(-0.00415268 2.97762 -6.73434e-19)
(-0.0212618 2.88109 -7.36729e-19)
(0.00853514 3.10022 -1.94867e-18)
(0.00217397 3.10479 1.94056e-18)
(0.264624 0.671138 0)
(0.222844 0.659809 -9.88682e-19)
(0.101572 0.221344 4.38734e-19)
(0.339241 0.884919 9.65073e-19)
(0.180022 0.25328 -1.48615e-18)
(1.16248 0.173232 3.65707e-20)
(1.17332 0.307704 0)
(1.15009 0.1209 1.82803e-20)
(-0.00663219 2.20602 -6.4128e-22)
(-0.00187983 2.20965 0)
(0.0371128 1.96066 0)
(0.336939 1.26817 -3.32642e-19)
(0.360569 1.09359 -7.14297e-19)
(0.192574 0.347021 1.26143e-18)
(1.00587 -0.010877 0)
(1.00766 -0.00767004 4.21871e-19)
(-0.273794 1.30557 0)
(-0.218262 1.1044 0)
(1.00221 0.00346871 1.77314e-21)
(1.00367 0.0094307 8.6196e-19)
(-0.221684 2.46099 1.05561e-19)
(-0.22816 2.47513 0)
(0.0361852 3.17958 3.34264e-19)
(0.396241 3.49311 0)
(1.13231 0.65277 -3.33836e-20)
(1.013 0.0129863 -2.15443e-21)
(1.02117 -0.0105159 0)
(1.0017 0.000129206 6.82141e-23)
(0.0978789 1.35385 0)
(0.144234 2.58198 0)
(0.0359824 1.29141 0)
(0.00246087 2.6223 -1.53982e-20)
(-0.0280536 2.57577 -2.16156e-20)
(1.00446 0.0277671 2.59253e-21)
(1.06157 0.00238759 0)
(1.09048 0.0155305 0)
(-0.339168 2.11856 0)
(-0.176729 2.55043 0)
(-0.0300346 1.07834 0)
(0.279839 1.46327 -2.38377e-19)
(1.01124 -0.00969422 0)
(1.00938 -0.0149507 0)
(1.00237 0.000711815 5.38336e-19)
(1.00547 -0.00485106 -6.33564e-19)
(1.00117 -0.001034 0)
(-0.332774 1.8336 0)
(-0.291794 1.34599 0)
(-0.335721 1.61492 0)
(-0.033803 1.03896 0)
(-0.094982 1.00906 0)
(-0.0435977 0.933253 0)
(1.03416 -0.0068119 0)
(1.02092 0.015682 -9.57453e-22)
(0.79358 1.25715 3.2338e-19)
(1.00232 0.000294054 -5.38042e-19)
(1.00406 0.00521662 6.29127e-19)
(1.00117 0.00204679 0)
(1.01284 0.0102659 5.3283e-19)
(1.00808 0.00828389 -6.47664e-19)
(1.00861 0.0146966 0)
(-0.218136 2.57637 0)
(-0.237209 2.53933 -1.47508e-19)
(-0.250162 2.50857 1.04234e-19)
(1.20766 0.261068 4.28895e-19)
(1.14551 0.079637 0)
(0.0455554 3.07755 -8.20272e-19)
(0.0658954 2.85318 -6.08447e-20)
(0.14251 3.19406 1.26045e-18)
(0.137151 3.22294 -1.48529e-19)
(0.135805 3.23575 0)
(0.0202404 3.13792 2.05681e-19)
(0.0771292 3.16064 8.0747e-19)
(0.0696499 3.18709 -3.89125e-19)
(0.0235196 3.12908 0)
(0.660344 0.301975 0)
(0.575872 0.364732 0)
(1.10412 0.683275 5.58629e-20)
(1.10111 0.814829 -1.49921e-20)
(1.16148 0.5703 0)
(1.19123 0.512337 0)
(1.01621 0.0132132 -9.92247e-19)
(1.01499 0.0142145 1.24445e-18)
(1.02507 -0.0100058 0)
(1.02312 -0.0119762 0)
(1.00643 0.00262118 0)
(1.01037 0.00367499 0)
(1.00449 0.0018976 0)
(1.00985 0.00601206 0)
(1.00793 0.00598556 0)
(1.00447 0.00463873 0)
(0.0897117 1.34917 0)
(0.081935 1.31832 0)
(0.113176 1.38273 0)
(0.127321 1.40265 0)
(0.144981 2.60526 0)
(0.186233 2.66696 -3.70429e-19)
(0.0994104 2.66189 0)
(0.0865768 2.66364 1.42638e-19)
(0.0413439 2.67774 -7.58267e-20)
(0.0475744 1.279 0)
(0.0590871 1.19611 0)
(0.0181273 1.31875 0)
(0.031179 1.26657 0)
(-0.0160465 1.98393 5.42773e-20)
(-0.0347864 2.60336 -6.22176e-20)
(-0.0125063 2.66543 -5.61806e-20)
(-0.025687 2.67389 0)
(-0.0431109 2.60773 7.23708e-20)
(-0.0375374 2.60216 5.01887e-20)
(-0.0143212 1.98423 -4.19119e-20)
(-0.0313647 2.41162 8.34323e-20)
(-0.0236015 2.42976 6.3737e-20)
(1.01345 0.0346198 1.00423e-18)
(1.00851 0.0172417 -1.24252e-18)
(1.00542 0.0415797 -1.01104e-18)
(0.984779 0.023172 1.28736e-18)
(1.06236 0.00620524 0)
(1.04767 -0.00919469 0)
(1.08885 0.026881 0)
(1.07094 0.00906656 0)
(1.06805 -0.00165444 0)
(1.12855 0.0713964 0)
(1.10225 0.035022 0)
(1.10381 0.0242489 0)
(-0.237552 2.50166 1.90262e-20)
(-0.320355 2.37024 0)
(-0.289698 2.40525 0)
(-0.150184 2.59952 -6.5897e-20)
(-0.0838813 2.56009 1.61203e-22)
(-0.153118 1.97179 -3.35933e-19)
(-0.234406 1.84184 3.40073e-19)
(-0.0296313 1.34331 0)
(-0.155974 1.36439 0)
(-0.232352 1.38884 0)
(0.0263392 1.07528 0)
(-0.0225543 0.961467 0)
(0.373527 1.47692 4.24773e-19)
(0.40888 1.486 1.94063e-19)
(0.594348 2.45194 -2.12906e-19)
(0.405369 2.5451 6.17257e-19)
(0.354984 2.07994 3.5486e-20)
(1.02082 -0.00828332 0)
(1.01539 -0.00985345 0)
(1.01483 -0.0156528 0)
(1.00745 -0.00129302 0)
(1.00496 -0.000995977 0)
(1.00775 -0.00482193 0)
(1.00922 -0.00385921 0)
(1.0141 -0.00456351 0)
(1.02162 0.0158316 9.67133e-19)
(1.01828 0.015777 -1.24191e-18)
(1.02211 0.0176724 -9.72857e-19)
(1.01973 0.0163828 1.21993e-18)
(0.761835 1.30623 0)
(0.695347 1.36097 3.4182e-19)
(0.870302 1.20335 1.58905e-19)
(0.913683 1.15859 -2.115e-19)
(1.15923 2.6097 4.60008e-20)
(0.818862 0.095525 5.17525e-19)
(1.14523 0.098319 0)
(1.18767 0.186275 -3.42687e-19)
(1.17272 0.153403 -1.4364e-20)
(1.00568 0.132656 0)
(0.139084 2.96292 4.27461e-19)
(0.115857 2.86873 -1.04338e-18)
(0.0276166 2.3697 7.13718e-19)
(0.0933503 0.0121164 -3.15372e-19)
(0.34094 3.422 -2.76771e-19)
(0.194995 3.31457 0)
(0.23777 3.35682 3.60447e-19)
(0.247212 3.03588 -1.5082e-18)
(0.342082 3.19474 0)
(0.00772107 3.12066 4.1369e-20)
(0.017651 3.12966 -4.94112e-19)
(0.0160482 3.12565 7.27265e-19)
(0.0364211 3.13964 0)
(0.0347234 3.15096 0)
(1.21711 2.60948 0)
(0.533958 0.842771 -4.47957e-19)
(1.0328 0.986655 -4.92149e-20)
(0.971451 1.05666 0)
(0.816504 0.958177 -6.75633e-20)
(1.05603 0.874648 2.96612e-20)
(0.368402 0.415005 -8.22297e-19)
(0.701762 0.326306 -2.26103e-20)
(0.685785 0.253946 3.76821e-19)
(0.591737 0.395903 2.80794e-20)
(0.511111 0.371238 -1.13364e-18)
(0.67293 0.340621 0)
(0.699231 0.427614 6.34558e-19)
(0.706526 0.42606 0)
(0.629574 0.378741 0)
(0.608359 0.305729 0)
(0.784046 0.616888 3.46739e-19)
(1.20412 0.280185 -3.69939e-19)
(1.20008 0.415473 0)
(1.21247 0.364436 0)
(0.763291 0.195998 5.61118e-19)
(0.829553 0.538565 -3.41679e-19)
(0.735338 0.5154 5.94208e-19)
(0.929404 0.419733 -6.41482e-19)
(1.01992 0.0145487 6.66443e-19)
(1.01798 0.0140954 -6.71968e-19)
(1.01595 0.0156839 0)
(1.03556 -0.00635646 0)
(1.02939 -0.00890155 -6.25199e-19)
(1.02721 -0.012411 6.18943e-19)
(1.02515 0.00953783 0)
(1.02373 0.013029 0)
(1.01138 0.00399651 0)
(1.01431 0.00883703 0)
(1.01507 0.00377611 0)
(1.01419 0.00268908 0)
(0.0681196 1.33341 0)
(0.0685565 1.29471 0)
(0.14658 1.34163 9.06792e-20)
(0.259984 1.46097 1.29937e-19)
(0.150937 1.43283 2.72382e-19)
(0.181722 1.44103 -4.45745e-19)
(0.164636 1.37026 0)
(0.12538 1.59026 2.59557e-20)
(0.108466 1.55847 0)
(0.352316 2.03497 -5.15728e-20)
(0.351585 2.36706 5.09686e-19)
(0.183801 1.44008 -2.26452e-20)
(0.261189 1.36457 7.12178e-20)
(0.191771 1.3523 -5.7468e-20)
(0.268875 1.30508 2.25635e-20)
(0.236621 1.5737 0)
(0.260971 1.61539 1.71195e-20)
(0.0251219 2.27552 3.15417e-21)
(0.0383197 2.67114 0)
(0.0627129 2.41227 5.15707e-20)
(0.0569094 2.43318 0)
(0.0672806 2.67603 -1.58373e-19)
(0.0502254 2.69982 0)
(0.0302575 1.42543 1.03587e-19)
(0.0177167 1.46523 0)
(0.0227552 1.38992 0)
(0.0349352 1.39565 -1.15145e-19)
(-0.00170196 2.65045 -1.93539e-20)
(0.0260304 2.6973 7.6001e-20)
(0.010976 2.71849 5.11338e-22)
(0.0313793 1.8747 -6.76199e-20)
(-0.00463188 1.65366 -2.37379e-20)
(0.0717009 1.19245 0)
(0.0482942 1.07865 0)
(0.0313446 1.57626 -1.28475e-19)
(0.019733 1.44729 -1.27234e-19)
(0.0331999 1.50918 1.6284e-19)
(0.0305598 1.60083 0)
(-0.153224 2.46415 4.64311e-19)
(-0.163679 2.60137 -2.00461e-19)
(-0.0794855 2.54285 3.37645e-20)
(-0.0047582 1.89094 8.13481e-20)
(-0.0749188 2.51348 2.89532e-20)
(-0.0253603 2.45103 -6.8194e-20)
(1.02053 0.0202726 -6.61331e-19)
(1.01721 0.0253426 6.63707e-19)
(1.015 0.0163921 0)
(1.01782 0.0640142 9.09423e-19)
(0.99612 0.0552307 -1.05327e-18)
(0.958122 0.0420253 1.18291e-18)
(1.01762 0.0972379 -1.24253e-19)
(1.04178 -0.006414 0)
(1.0497 -0.0022624 5.92211e-19)
(1.03804 -0.0105085 -5.93959e-19)
(1.06865 0.0359771 -3.49538e-20)
(1.06302 0.0192638 3.02789e-19)
(1.06105 0.0468578 0)
(1.05524 0.0408559 -1.08938e-19)
(1.03258 0.0379343 0)
(1.02653 0.0346126 0)
(1.02763 0.0123249 0)
(1.02437 0.0152353 0)
(1.03864 0.0286649 2.25003e-19)
(1.03824 0.0245513 -4.98755e-19)
(1.0507 0.0298646 -2.3804e-19)
(1.04747 0.0296874 -2.62186e-19)
(1.07008 0.0526714 5.09162e-19)
(1.08946 0.0415766 0)
(1.09616 0.0871778 0)
(-0.16375 2.47524 2.36886e-19)
(-0.251358 2.35534 2.61718e-20)
(-0.239681 2.37326 0)
(-0.234661 2.53145 -2.20503e-19)
(-0.249674 2.51254 -4.31373e-20)
(-0.230877 2.53312 3.91991e-20)
(-0.0529247 2.60839 -3.99528e-20)
(-0.0948063 2.56567 3.68051e-21)
(-0.0627883 2.53942 -1.72738e-20)
(-0.0814761 2.59182 2.25035e-20)
(-0.0462958 2.59099 -2.83717e-20)
(0.0277306 1.61495 6.65685e-21)
(-0.0268257 1.97461 -3.36818e-19)
(0.363872 1.41509 -1.95789e-19)
(0.361716 1.35535 -9.50653e-20)
(0.64282 1.40655 -3.30536e-19)
(0.509616 1.47202 -1.87831e-19)
(0.561075 1.44554 0)
(0.590271 2.42672 1.85658e-19)
(0.657429 2.41735 3.04082e-19)
(0.410938 2.52143 8.12013e-20)
(0.405269 2.55639 -4.86793e-19)
(0.515477 2.50718 5.02877e-19)
(0.548854 2.46536 0)
(0.488184 2.51726 -5.00409e-19)
(0.247237 2.59376 1.00378e-18)
(0.353076 2.5703 -8.16107e-20)
(0.284341 2.65434 -1.39961e-18)
(0.937093 2.38405 5.84741e-19)
(0.831515 2.38791 0)
(1.01106 0.000279616 2.17775e-20)
(1.01534 -0.00556229 -1.77292e-20)
(1.01749 -0.00368193 -3.22232e-19)
(1.01488 -0.00115679 3.24519e-19)
(1.01235 0.000804247 0)
(0.630228 1.27322 0)
(0.651966 1.1684 0)
(0.752186 1.07568 0)
(0.643307 1.13589 0)
(1.18714 2.625 5.8669e-20)
(1.07759 2.36954 0)
(0.843754 2.19273 2.20206e-21)
(0.82814 2.46103 0)
(0.923131 2.54864 -2.88539e-19)
(0.959906 2.50287 1.92197e-19)
(0.830473 0.146172 0)
(0.801218 0.131668 1.43192e-19)
(0.924913 0.122955 8.09212e-19)
(0.849152 0.119658 -3.08443e-19)
(0.829541 0.0611864 -9.37038e-19)
(1.06401 0.222394 -7.38357e-19)
(0.983639 0.276833 -1.56349e-20)
(0.911676 0.27283 7.53339e-19)
(0.997707 0.204999 6.16954e-19)
(0.94779 0.163634 -1.06755e-18)
(0.91762 0.169907 1.34322e-19)
(0.945408 0.233071 -2.84073e-19)
(0.924279 0.19362 0)
(0.993828 0.165311 5.24486e-19)
(1.04073 0.171082 0)
(1.03679 0.197587 0)
(1.09435 0.108861 2.3596e-19)
(1.06778 0.162065 -1.35674e-20)
(1.05809 0.226206 -1.28846e-19)
(1.09002 0.194819 0)
(1.02327 0.0422641 5.11784e-19)
(1.04299 0.0514738 6.3283e-19)
(1.03354 0.0394907 -5.08011e-19)
(1.04436 0.0566094 -4.24258e-19)
(1.01876 0.0653153 -6.43665e-19)
(0.991417 0.137347 0)
(1.00296 0.0921466 0)
(0.973633 0.0579865 -4.22025e-19)
(0.92571 0.0744674 1.67785e-19)
(1.04173 0.092406 5.88689e-19)
(1.0688 0.109735 -6.84436e-19)
(1.07322 0.141069 6.13581e-19)
(1.03438 0.130117 0)
(1.07448 0.0955301 0)
(1.06027 0.0776073 -2.79032e-19)
(1.04957 0.0859697 -4.80919e-19)
(0.586407 1.08649 7.28046e-20)
(0.616544 1.41376 2.62036e-20)
(1.15847 2.74144 -1.33316e-19)
(1.22453 3.08263 -1.9537e-20)
(1.25045 2.72382 6.96282e-20)
(1.28053 2.70762 -1.20824e-19)
(1.20897 2.34815 -9.8914e-21)
(1.21185 2.98654 -9.80958e-21)
(1.23135 2.95163 1.04681e-19)
(1.2155 3.23646 -1.80433e-19)
(1.37665 2.96835 2.49564e-19)
(1.36737 2.88673 0)
(0.540443 0.849598 -3.92512e-20)
(0.139973 1.26227 5.15546e-19)
(0.526815 0.470838 5.34393e-19)
(0.361198 0.22287 5.86367e-19)
(0.530582 0.401274 6.38529e-19)
(0.538632 0.489567 -1.04225e-18)
(0.541458 0.495413 8.52582e-19)
(0.49569 0.420924 -3.22381e-19)
(0.424923 0.359789 7.35675e-19)
(0.766282 0.252869 -3.1979e-19)
(0.725906 0.290801 0)
(0.722175 0.225419 9.94475e-21)
(0.714792 0.514263 3.32551e-19)
(0.686649 0.487392 -1.21469e-18)
(0.607255 0.488309 1.6504e-20)
(0.623029 0.471535 0)
(0.666963 0.739243 3.30727e-19)
(0.812936 0.769191 3.0825e-19)
(0.742334 0.853123 -3.62933e-19)
(0.855135 0.800861 -1.22682e-19)
(0.888373 0.841421 -2.55058e-20)
(0.896688 0.842945 2.61065e-20)
(0.823407 0.643399 -5.77734e-19)
(0.900237 0.695912 1.13977e-19)
(0.958468 0.709716 0)
(0.947446 0.686004 -1.56421e-19)
(1.00922 0.317987 1.79457e-19)
(1.11742 0.289638 2.24765e-19)
(1.04844 0.260387 3.01662e-19)
(0.990043 0.351222 -3.65752e-19)
(1.03124 0.417825 0)
(1.08523 0.40523 0)
(0.899646 0.349053 4.61995e-21)
(0.838292 0.283072 0)
(0.860809 0.274858 3.59603e-19)
(0.896181 0.279135 -6.27875e-21)
(0.920654 0.422977 1.78349e-18)
(0.877134 0.484631 4.58878e-19)
(0.882714 0.449403 -5.00395e-19)
(0.813312 0.437268 5.36126e-19)
(0.795213 0.43139 3.28113e-19)
(0.767463 0.417288 -3.22454e-19)
(1.02704 -0.000730291 5.35531e-19)
(1.02005 -0.000366802 0)
(1.01858 0.000541993 3.49548e-19)
(1.02127 -0.00208104 -7.91119e-19)
(1.02246 0.00401701 3.84554e-19)
(1.02051 0.01081 -8.05384e-19)
(1.02153 0.0102307 0)
(1.02084 0.0105195 -1.68091e-19)
(1.0161 0.00738368 4.21677e-19)
(1.01679 0.0101781 -2.10367e-19)
(1.01748 0.00955197 1.54973e-19)
(0.0407867 1.31955 0)
(0.0334671 1.36161 0)
(0.0522017 1.31661 0)
(0.0352372 1.27772 0)
(0.0761843 1.36979 -2.14326e-19)
(0.0816636 1.34111 7.28467e-20)
(0.10327 1.4916 3.30806e-20)
(0.0881771 1.3369 -4.60867e-20)
(0.0294872 1.45236 1.12836e-19)
(0.0350159 1.44335 -8.67351e-20)
(0.0670736 1.35115 -6.13471e-21)
(0.0590676 1.35361 1.38789e-19)
(0.0504021 1.33159 1.97792e-20)
(0.0360262 1.35883 1.54279e-20)
(0.105168 2.38741 -5.57438e-20)
(0.0932801 2.42943 0)
(0.163908 2.06465 6.87533e-20)
(0.110855 1.7093 1.22374e-21)
(0.227163 2.05962 -5.45267e-20)
(0.211017 2.45594 0)
(0.268197 2.40859 -4.50059e-19)
(0.304422 2.40733 3.20462e-19)
(0.22866 2.0181 -1.51184e-19)
(0.149908 2.18463 1.13928e-19)
(0.145624 2.30659 0)
(0.0216933 1.88638 1.19546e-19)
(-0.0105509 2.40406 6.20597e-20)
(-0.00433891 2.1577 0)
(0.00520231 2.46416 -1.27764e-20)
(0.0199821 2.31392 -4.65584e-20)
(0.0620915 1.42694 -2.18007e-20)
(0.111648 1.37819 3.87593e-19)
(0.0997805 1.42667 -1.31559e-19)
(0.0512456 1.4313 -1.04813e-19)
(0.047666 1.44121 0)
(0.0956542 1.40384 0)
(0.00969748 1.0997 -2.14186e-19)
(0.107665 1.35285 6.44639e-20)
(0.122138 1.3607 0)
(0.054599 1.11262 -1.32174e-19)
(0.0379434 0.947977 2.89573e-19)
(1.04035 0.0106693 0)
(1.04548 0.00713152 -5.56093e-20)
(1.03837 0.0205266 -4.01257e-19)
(1.04757 0.0190852 0)
(1.05206 0.0187121 0)
(1.03592 0.0104658 -6.41517e-21)
(1.03141 0.0103273 6.45084e-19)
(1.0316 0.0152469 7.84699e-19)
(1.02606 0.0191009 0)
(1.02351 0.0198164 0)
(1.03481 0.0234056 4.00785e-19)
(1.02609 0.02477 0)
(1.02534 0.02437 0)
(0.0114557 2.15081 0)
(0.00348706 1.95837 2.10394e-20)
(-0.007031 2.05468 -1.15561e-19)
(0.081271 1.35491 0)
(0.112103 1.68837 -1.19837e-19)
(0.11015 1.49227 1.16372e-19)
(0.0717567 1.34553 0)
(0.395265 1.69015 0)
(0.362184 1.28219 1.45679e-19)
(0.305703 1.33711 0)
(0.417635 1.28181 -2.42231e-19)
(0.461596 1.44495 0)
(0.442975 1.38934 1.30088e-19)
(1.033 2.69436 -1.22886e-20)
(0.959933 2.41512 -7.35667e-19)
(0.907172 2.18626 8.52345e-19)
(0.844276 2.38015 2.06285e-19)
(0.84557 2.5084 0)
(0.915953 2.50229 0)
(0.920403 2.37795 0)
(0.897977 2.36319 -7.98459e-19)
(0.692995 2.48061 -2.78395e-19)
(0.802002 2.4722 -7.16781e-20)
(0.81379 2.44325 5.48182e-20)
(0.691909 2.39397 0)
(0.795813 2.39135 0)
(0.754793 2.40284 -3.25149e-19)
(0.769872 2.4994 0)
(0.614139 1.09041 0)
(0.486923 0.931825 -3.60334e-19)
(0.555751 0.965149 -2.32437e-20)
(0.527748 1.06291 0)
(0.526582 1.0118 5.41718e-19)
(0.766239 0.87768 -9.17334e-20)
(0.777706 1.01 0)
(0.750512 0.965254 1.21503e-19)
(0.640961 1.03151 0)
(0.644844 0.942962 0)
(1.16582 2.7629 -1.49813e-19)
(1.14385 2.82649 -3.49562e-20)
(0.935246 2.34834 -8.17986e-21)
(0.902385 2.32762 -4.9456e-20)
(1.13064 2.7372 0)
(1.08351 2.7079 5.96257e-20)
(1.09003 2.49038 -2.50927e-19)
(0.985643 2.2359 -3.07954e-20)
(0.505369 1.36807 0)
(0.518959 1.08187 -6.42776e-20)
(0.558926 1.15676 0)
(0.860064 0.213224 0)
(0.807243 0.169254 0)
(0.764667 0.148336 0)
(0.854495 0.222625 -5.65904e-19)
(0.784165 0.21359 3.35696e-19)
(0.935803 0.0608169 -3.46008e-19)
(0.950286 0.10607 0)
(0.92667 0.111331 1.50303e-19)
(0.872944 0.0884233 6.04371e-19)
(0.854562 0.0493848 -3.76947e-19)
(1.16263 3.36209 -7.98522e-19)
(1.21033 3.28127 0)
(1.16111 3.39029 -1.62157e-18)
(0.648335 3.55116 1.38217e-18)
(0.872973 3.11853 1.63182e-19)
(0.514099 0.855854 4.93973e-19)
(0.433292 0.851208 0)
(0.339586 0.503908 -1.32539e-19)
(0.441538 0.687916 7.26355e-19)
(0.529281 0.476708 -1.82149e-19)
(0.504504 0.526917 2.07348e-19)
(0.650391 0.542577 4.50224e-19)
(0.678599 0.560891 0)
(0.631862 0.624716 0)
(0.589602 0.562234 0)
(0.956374 0.595822 5.99913e-20)
(0.880456 0.534557 -4.46116e-19)
(0.903096 0.566297 3.24631e-19)
(0.938466 0.501871 -3.43744e-19)
(1.04256 0.475869 0)
(1.05177 0.565077 -7.81024e-20)
(0.837517 0.38702 -7.45185e-19)
(0.841736 0.371946 -9.08766e-19)
(0.790554 0.385679 5.81846e-19)
(0.784538 0.356443 -6.07356e-19)
(0.83733 0.310585 -4.68446e-19)
(0.792357 0.308945 5.75974e-19)
(1.02668 0.00555343 -4.14752e-19)
(1.0263 0.00586171 8.49465e-19)
(1.02936 -0.000402641 5.17668e-19)
(1.03313 0.000578601 -6.23433e-19)
(1.03295 0.00763168 0)
(1.02998 0.00857911 -1.00843e-18)
(0.0541308 1.64409 -3.76909e-23)
(0.0374406 1.57163 0)
(0.0778632 1.69295 -4.39805e-20)
(0.0823977 1.67775 4.57991e-20)
(0.0824985 1.5216 -6.20724e-20)
(0.0892695 1.50504 0)
(0.0820987 1.76959 0)
(0.0716275 1.60536 4.57797e-20)
(0.100719 1.48875 -4.11056e-20)
(0.092491 1.66484 1.73959e-20)
(0.0360156 2.02081 8.41554e-20)
(0.0303609 2.01227 -2.21843e-20)
(0.499829 1.37897 -6.6856e-20)
(0.492868 1.38481 7.62157e-20)
(0.439525 1.27988 1.01138e-19)
(0.435414 1.29509 -2.05023e-21)
(0.624317 1.28751 0)
(0.538658 1.37512 2.2235e-19)
(0.556658 1.38382 -2.16541e-19)
(0.446002 1.26935 -9.76042e-20)
(0.503842 1.2224 0)
(0.56018 1.19328 0)
(0.659452 2.44002 4.09059e-19)
(0.669804 2.47308 1.04355e-18)
(0.717369 2.48811 -7.18146e-19)
(0.619756 2.46901 -1.8099e-19)
(0.563349 2.55899 2.2814e-19)
(0.512802 2.53151 -6.14644e-19)
(0.973745 2.38043 -4.74169e-19)
(1.01239 2.396 0)
(0.919623 2.16595 -5.57855e-19)
(1.0528 2.68811 0)
(1.05506 2.67509 0)
(0.61319 2.27814 -1.38993e-20)
(1.0431 3.16485 2.36709e-19)
(0.914207 3.03522 -1.54006e-19)
(0.283766 0.921608 0)
(0.322655 0.782639 -2.70669e-19)
(0.479632 0.736775 -2.47833e-19)
(0.389989 2.02667 0)
(0.468996 2.78755 -1.13611e-19)
(0.424239 2.5518 0)
(0.677124 0.687738 -6.99076e-19)
(0.757033 0.680242 9.48996e-19)
(0.775869 0.624823 -9.38469e-19)
(0.657348 0.650001 -9.25194e-20)
(0.712866 0.600614 -3.83593e-19)
(1.00555 2.76851 -1.79987e-19)
(1.0426 2.82414 -3.30852e-20)
(0.640125 2.15291 4.96979e-19)
(0.598398 1.7212 -3.63734e-19)
(0.702045 1.91123 -2.58201e-19)
(0.991716 2.45165 -1.01712e-19)
(0.99632 2.44403 1.65097e-19)
(0.661317 1.85003 1.85839e-20)
(0.454772 1.34116 8.13369e-20)
)
;

boundaryField
{
    wall-4
    {
        type            noSlip;
    }
    velocity-inlet-5
    {
        type            fixedValue;
        value           uniform (1 0 0);
    }
    velocity-inlet-6
    {
        type            fixedValue;
        value           uniform (0 3 0);
    }
    pressure-outlet-7
    {
        type            zeroGradient;
    }
    wall-8
    {
        type            noSlip;
    }
    frontAndBackPlanes
    {
        type            empty;
    }
}


// ************************************************************************* //
