/*--------------------------------*- C++ -*----------------------------------*\
  =========                 |
  \\      /  F ield         | OpenFOAM: The Open Source CFD Toolbox
   \\    /   O peration     | Website:  https://openfoam.org
    \\  /    A nd           | Version:  13
     \\/     M anipulation  |
\*---------------------------------------------------------------------------*/
FoamFile
{
    format      ascii;
    class       volScalarField;
    location    "2.5";
    object      Ma;
}
// * * * * * * * * * * * * * * * * * * * * * * * * * * * * * * * * * * * * * //

dimensions      [];

internalField   nonuniform List<scalar> 
5250
(
3
2.99998
2.99992
2.99979
2.99944
2.99869
2.9965
2.99202
2.97868
2.95022
2.87163
2.68403
2.23731
1.3857
0.558793
0.235224
0.315181
0.336736
0.300091
0.24248
0.192122
0.153007
0.114154
0.0713228
0.0410509
3
2.99998
2.99992
2.9998
2.99943
2.99875
2.9965
2.99222
2.97907
2.95102
2.87402
2.68949
2.24948
1.40509
0.56881
0.237916
0.318745
0.341435
0.305749
0.249607
0.200457
0.162165
0.124531
0.085524
0.0630229
3
2.99998
2.99992
2.99981
2.99947
2.99877
2.99668
2.99245
2.97983
2.95295
2.87865
2.70138
2.27548
1.44931
0.592617
0.247597
0.328796
0.353656
0.319782
0.266207
0.219095
0.182882
0.148687
0.116552
0.101043
3
2.99998
2.99993
2.9998
2.99954
2.99874
2.99708
2.99242
2.98181
2.95425
2.88712
2.7172
2.3147
1.51723
0.629163
0.266105
0.346445
0.374038
0.34235
0.291583
0.246473
0.212562
0.182053
0.155611
0.143892
3
2.99998
2.99994
2.99982
2.99955
2.99886
2.9972
2.99314
2.9827
2.95817
2.89459
2.73902
2.36331
1.60771
0.679477
0.297272
0.372981
0.401673
0.371399
0.322992
0.279665
0.248237
0.221478
0.19962
0.190497
3
2.99998
2.99994
2.99984
2.99958
2.99896
2.99738
2.9937
2.98388
2.96158
2.90254
2.76011
2.41211
1.6986
0.732625
0.326762
0.397167
0.425682
0.398313
0.354782
0.315651
0.288109
0.266111
0.249291
0.243344
3
2.99998
2.99995
2.99984
2.99964
2.99897
2.99775
2.99377
2.98596
2.96301
2.91182
2.77628
2.45482
1.7741
0.792319
0.360482
0.418602
0.442465
0.421203
0.386064
0.353501
0.331983
0.316301
0.306015
0.30543
3
2.99999
2.99995
2.99985
2.99966
2.99907
2.99787
2.99441
2.98677
2.96647
2.91817
2.79481
2.49574
1.85321
0.872016
0.413752
0.438224
0.452855
0.443598
0.418534
0.393568
0.379527
0.372662
0.371901
0.382598
3
2.99999
2.99995
2.99988
2.99966
2.99922
2.9979
2.99527
2.98722
2.9707
2.92392
2.81501
2.53847
1.94084
0.973097
0.478479
0.453937
0.467159
0.468351
0.452264
0.43664
0.431552
0.435481
0.450649
0.485469
3
2.99999
2.99996
2.99988
2.99973
2.99923
2.99831
2.9953
2.98954
2.97206
2.93425
2.83197
2.58708
2.03566
1.09721
0.553971
0.471076
0.485968
0.495613
0.488337
0.482647
0.487311
0.507612
0.553649
0.660495
3
2.99999
2.99996
2.99991
2.99973
2.99941
2.99833
2.99631
2.99001
2.97694
2.94041
2.85521
2.63626
2.14195
1.24987
0.642015
0.491785
0.508868
0.525166
0.525938
0.529155
0.546047
0.588523
0.677175
0.851546
3
3
2.99997
2.99992
2.99978
2.99947
2.99865
2.99668
2.99188
2.97959
2.95054
2.87567
2.692
2.25963
1.43709
0.744941
0.523555
0.540506
0.559458
0.566187
0.576822
0.605505
0.665661
0.777183
0.964366
3
3
2.99998
2.99993
2.99984
2.99953
2.99896
2.99712
2.99353
2.98289
2.95983
2.89768
2.74908
2.38892
1.66569
0.865007
0.576255
0.58699
0.601862
0.611971
0.627004
0.66261
0.729562
0.841207
1.00423
3.00001
3
2.99998
2.99995
2.99985
2.99966
2.99905
2.99787
2.99432
2.98686
2.96625
2.91894
2.79643
2.50465
1.8839
0.994684
0.639527
0.634432
0.646534
0.660808
0.678438
0.715535
0.78021
0.880838
1.01936
3.00001
3
2.99999
2.99996
2.99988
2.99972
2.99922
2.99827
2.99534
2.98928
2.97232
2.93374
2.83305
2.5902
2.05002
1.15552
0.718775
0.669994
0.684195
0.702182
0.724488
0.762062
0.821562
0.909442
1.02795
3.00001
3
2.99999
2.99997
2.99992
2.99975
2.99944
2.99848
2.99649
2.99096
2.97833
2.94579
2.86654
2.66799
2.21257
1.37849
0.829273
0.701921
0.714014
0.73474
0.762776
0.801393
0.856726
0.932961
1.03418
3.00001
3
3
2.99998
2.99993
2.99982
2.99952
2.9989
2.99705
2.99337
2.98232
2.95908
2.89499
2.74389
2.37807
1.65178
0.965912
0.749685
0.748245
0.766974
0.797319
0.835633
0.887282
0.955002
1.04134
3.00001
3
3
2.99998
2.99995
2.99985
2.99967
2.9991
2.99794
2.99465
2.98737
2.96827
2.92304
2.80886
2.53548
1.95079
1.13195
0.819347
0.79191
0.805639
0.833069
0.869076
0.915432
0.975408
1.05047
3.00001
3.00001
3
2.99999
2.99996
2.9999
2.99973
2.99936
2.99837
2.99602
2.99032
2.97577
2.94154
2.85386
2.64179
2.16114
1.33605
0.906746
0.829608
0.840487
0.865154
0.899932
0.942157
0.995196
1.06025
3.00001
3.00001
3
2.99999
2.99998
2.99992
2.99982
2.99948
2.99886
2.99689
2.99302
2.9816
2.95695
2.8907
2.73304
2.35687
1.62334
1.04149
0.876994
0.874758
0.893183
0.926367
0.967242
1.01524
1.07215
3.00001
3.00001
3
3
2.99998
2.99995
2.99985
2.99967
2.99911
2.99794
2.99472
2.98745
2.96884
2.92416
2.81304
2.54736
1.97794
1.22128
0.948425
0.916306
0.927242
0.954968
0.993113
1.03569
1.08576
3.00001
3.00001
3.00001
3
2.99999
2.99996
2.99991
2.99974
2.9994
2.99846
2.99627
2.99089
2.97744
2.94543
2.8645
2.66876
2.22258
1.44657
1.03807
0.955355
0.961005
0.983558
1.01824
1.05675
1.10089
3.00001
3.00001
3.00001
3
3
2.99998
2.99993
2.99984
2.99954
2.99899
2.99724
2.99379
2.98378
2.96206
2.90418
2.76708
2.43772
1.77434
1.18403
1.00946
0.99706
1.01145
1.04057
1.07758
1.11753
3.00001
3.00001
3.00001
3
3
2.99999
2.99996
2.99988
2.99972
2.99924
2.99825
2.99552
2.98936
2.97367
2.93604
2.84284
2.61845
2.122
1.38965
1.09009
1.03774
1.04403
1.06586
1.09858
1.13588
3.00001
3.00001
3.00001
3.00001
3
2.99999
2.99997
2.99993
2.99979
2.99951
2.99876
2.997
2.99273
2.98195
2.9567
2.89247
2.73813
2.37581
1.68636
1.21422
1.08575
1.07721
1.08934
1.11717
1.15341
3.00001
3.00001
3.00001
3.00001
3
3
2.99998
2.99995
2.99987
2.99969
2.99916
2.99814
2.99496
2.9889
2.97074
2.93245
2.83005
2.59571
2.07704
1.40474
1.15679
1.11556
1.1198
1.14057
1.17061
3.00001
3.00001
3.00001
3.00001
3.00001
3
2.99999
2.99997
2.99992
2.99979
2.99946
2.99874
2.99674
2.99259
2.98063
2.9555
2.88691
2.72913
2.35561
1.67545
1.26413
1.15869
1.15064
1.16121
1.18605
3.00001
3.00001
3.00001
3.00001
3.00001
3
3
2.99998
2.99995
2.99986
2.99968
2.99914
2.99811
2.99488
2.98872
2.97044
2.93174
2.82909
2.59506
2.07973
1.44907
1.22331
1.18649
1.18869
1.20731
3.00001
3.00001
3.00001
3.00001
3.00001
3.00001
3
2.99999
2.99997
2.99991
2.99979
2.99947
2.99872
2.99687
2.99236
2.98168
2.95475
2.89111
2.73314
2.37216
1.71381
1.32471
1.22655
1.21716
1.22684
3.00001
3.00001
3.00001
3.00001
3.00001
3.00001
3
3
2.99999
2.99995
2.99988
2.99966
2.99925
2.99797
2.99552
2.9883
2.97315
2.93257
2.83952
2.61269
2.12192
1.5137
1.29119
1.2527
1.25343
3.00001
3.00001
3.00001
3.00001
3.00001
3.00001
3.00001
3
2.99999
2.99997
2.99992
2.9998
2.9995
2.99883
2.99698
2.99314
2.98221
2.95925
2.89707
2.75505
2.41676
1.79477
1.39773
1.2932
1.28086
3.00001
3.00001
3.00001
3.00001
3.00001
3.00001
3.00001
3
3
2.99999
2.99996
2.99988
2.99972
2.99924
2.99832
2.99557
2.98997
2.97456
2.94033
2.853
2.65057
2.19704
1.60079
1.36543
1.31911
3.00001
3.00001
3.00001
3.00001
3.00001
3.00001
3.00001
3.00001
3
3
2.99998
2.99993
2.99982
2.99956
2.99896
2.99734
2.99397
2.98437
2.9645
2.90996
2.78766
2.49099
1.92226
1.49104
1.36314
3.00001
3.00001
3.00001
3.00001
3.00001
3.00001
3.00001
3.00001
3
3
2.99999
2.99997
2.99989
2.99976
2.99934
2.99856
2.99619
2.99142
2.97817
2.94905
2.87441
2.70131
2.30423
1.71945
1.45013
3.00001
3.00001
3.00001
3.00001
3.00001
3.00001
3.00001
3.00001
3.00001
3
3
2.99998
2.99995
2.99985
2.99966
2.99909
2.99796
2.99476
2.98797
2.97006
2.92931
2.82797
2.59313
2.10241
1.61239
3.00001
3.00001
3.00001
3.00001
3.00001
3.00001
3.00001
3.00001
3.00001
3.00001
3
2.99999
2.99997
2.99992
2.9998
2.99949
2.99881
2.99695
2.99316
2.98225
2.96
2.89881
2.76328
2.43785
1.88161
3.00001
3.00001
3.00001
3.00001
3.00001
3.00001
3.00001
3.00001
3.00001
3.00001
3
3
2.99999
2.99996
2.99989
2.99972
2.99931
2.99838
2.99591
2.99072
2.97637
2.94601
2.866
2.68618
2.27955
3.00001
3.00001
3.00001
3.00001
3.00001
3.00001
3.00001
3.00001
3.00001
3.00001
3.00001
3
3
2.99998
2.99994
2.99984
2.99963
2.99903
2.99788
2.99437
2.98771
2.96811
2.92744
2.82059
2.58111
3.00001
3.00001
3.00001
3.00001
3.00001
3.00001
3.00001
3.00001
3.00001
3.00001
3.00001
3.00001
3
2.99999
2.99997
2.99992
2.99978
2.9995
2.99875
2.99703
2.99291
2.98268
2.95945
2.90044
2.76571
3.00001
3.00001
3.00001
3.00001
3.00001
3.00001
3.00001
3.00001
3.00001
3.00001
3.00001
3.00001
3
3
2.99999
2.99996
2.99989
2.99972
2.99934
2.99838
2.99613
2.99086
2.97763
2.9479
2.873
3.00001
3.00001
3.00001
3.00001
3.00001
3.00001
3.00001
3.00001
3.00001
3.00001
3.00001
3.00001
3.00001
3
3
2.99998
2.99994
2.99986
2.99964
2.99916
2.99786
2.99525
2.98769
2.97277
2.93106
3.00001
3.00001
3.00001
3.00001
3.00001
3.00001
3.00001
3.00001
3.00001
3.00001
3.00001
3.00001
3.00001
3.00001
3
2.99999
2.99997
2.99993
2.9998
2.99956
2.99886
2.99739
2.99358
2.98486
2.96377
3.00001
3.00001
3.00001
3.00001
3.00001
3.00001
3.00001
3.00001
3.00001
3.00001
3.00001
3.00001
3.00001
3.00001
3.00001
3
2.99999
2.99996
2.9999
2.99977
2.9994
2.99866
2.9965
2.99242
2.98023
3.00001
3.00001
3.00001
3.00001
3.00001
3.00001
3.00001
3.00001
3.00001
3.00001
3.00001
3.00001
3.00001
3.00001
3.00001
3
3
2.99998
2.99996
2.99988
2.9997
2.99928
2.99826
2.99598
2.99004
3.00001
3.00001
3.00001
3.00001
3.00001
3.00001
3.00001
3.00001
3.00001
3.00001
3.00001
3.00001
3.00001
3.00001
3.00001
3.00001
3
3
2.99998
2.99994
2.99986
2.99961
2.99915
2.99782
2.99506
3.00001
3.00001
3.00001
3.00001
3.00001
3.00001
3.00001
3.00001
3.00001
3.00001
3.00001
3.00001
3.00001
3.00001
3.00001
3.00001
3.00001
3
2.99999
2.99997
2.99993
2.9998
2.99957
2.99886
2.99752
3.00001
3.00001
3.00001
3.00001
3.00001
3.00001
3.00001
3.00001
3.00001
3.00001
3.00001
3.00001
3.00001
3.00001
3.00001
3.00001
3.00001
3.00001
3
2.99999
2.99996
2.99991
2.99976
2.99946
2.99864
3.00001
3.00001
3.00001
3.00001
3.00001
3.00001
3.00001
3.00001
3.00001
3.00001
3.00001
3.00001
3.00001
3.00001
3.00001
3.00001
3.00001
3.00001
3
3
2.99999
2.99995
2.99988
2.99971
2.99927
3.00001
3.00001
3.00001
3.00001
3.00001
3.00001
3.00001
3.00001
3.00001
3.00001
3.00001
3.00001
3.00001
3.00001
3.00001
3.00001
3.00001
3.00001
3.00001
3
2.99999
2.99998
2.99993
2.99983
2.99955
3.00001
3.00001
3.00001
3.00001
3.00001
3.00001
3.00001
3.00001
3.00001
3.00001
3.00001
3.00001
3.00001
3.00001
3.00001
3.00001
3.00001
3.00001
3.00001
3
3
2.99998
2.99995
2.99986
2.99966
1.12654
1.33146
1.39351
1.3528
1.27659
1.18439
1.10006
1.05907
1.05247
1.05526
1.05783
1.05821
1.05675
1.05425
1.05119
1.04915
1.0493
1.05038
1.05161
1.05327
1.05523
1.05708
1.05903
1.06124
1.06373
1.06635
1.06887
1.0705
1.07139
1.07133
1.06885
1.06054
1.03888
0.987332
0.870554
0.620793
0.267194
0.109906
0.145251
0.192227
0.225416
0.206396
0.157254
0.104764
0.0563601
0.0410513
0.0807095
0.124494
0.166923
0.206654
0.243731
0.277693
0.309975
0.342622
0.375562
0.407188
0.437751
0.466947
0.495572
0.523083
0.550145
0.576189
0.601928
0.626815
0.651531
0.675401
0.69916
0.721986
0.744753
0.766516
0.788279
0.809021
0.829828
0.849638
0.869581
0.888525
0.907672
0.925769
0.944138
0.961391
0.979004
0.995461
1.01237
1.02811
1.04438
1.05947
1.07518
1.08972
1.10498
1.11901
1.13395
1.14766
1.16238
1.17576
1.19016
1.203
1.2166
1.22788
1.23828
1.24416
1.13848
1.25586
1.32029
1.36295
1.40729
1.44188
1.45076
1.44602
1.42912
1.40523
1.38834
1.38321
1.38392
1.38574
1.38723
1.38768
1.38789
1.38767
1.38756
1.38817
1.38893
1.39006
1.39175
1.39379
1.39573
1.39767
1.39945
1.40069
1.40117
1.40098
1.39857
1.39127
1.37291
1.3296
1.23163
1.01722
0.66296
0.400948
0.289037
0.218001
0.174789
0.167028
0.1994
0.242093
0.284668
0.323293
0.360174
0.396277
0.431748
0.46583
0.498575
0.528803
0.557802
0.586409
0.615781
0.644139
0.671691
0.69802
0.723924
0.748844
0.773481
0.797111
0.820579
0.843036
0.865569
0.887069
0.908835
0.92944
0.950451
0.970147
0.990421
1.00928
1.02887
1.04699
1.06593
1.08337
1.10166
1.11843
1.13607
1.15217
1.16919
1.18464
1.20101
1.21588
1.23167
1.24604
1.26136
1.27535
1.29023
1.30386
1.31829
1.33149
1.34542
1.35819
1.37163
1.38387
1.3965
1.4073
1.417
1.42219
1.1355
1.2432
1.34006
1.43317
1.51976
1.58818
1.62036
1.62243
1.61733
1.60213
1.58219
1.56633
1.55793
1.55526
1.55587
1.55661
1.55757
1.55822
1.55863
1.55904
1.5595
1.56009
1.56096
1.56222
1.56385
1.56556
1.56709
1.56835
1.5688
1.56866
1.56714
1.56217
1.54933
1.51834
1.44681
1.2884
0.983529
0.684187
0.54537
0.461711
0.424974
0.431208
0.465437
0.503498
0.539046
0.569125
0.596924
0.62385
0.651774
0.678937
0.706257
0.731502
0.756155
0.779933
0.804914
0.828865
0.852564
0.874639
0.896862
0.917704
0.939082
0.959106
0.979828
0.999024
1.01903
1.03747
1.0568
1.07457
1.09316
1.11019
1.12807
1.14445
1.16184
1.1778
1.19487
1.2105
1.22722
1.24246
1.25876
1.27355
1.28941
1.30376
1.31926
1.33321
1.34833
1.36186
1.37651
1.3896
1.40378
1.41652
1.4303
1.44265
1.45603
1.46796
1.48091
1.49228
1.50455
1.51462
1.5244
1.52921
1.14188
1.24974
1.3495
1.44096
1.52248
1.5902
1.64312
1.6816
1.70215
1.70713
1.70524
1.69739
1.68552
1.67449
1.66863
1.66681
1.66757
1.66875
1.67057
1.67225
1.67328
1.67389
1.67441
1.67511
1.67624
1.67772
1.67967
1.68152
1.68235
1.68245
1.68173
1.67865
1.67014
1.64923
1.60014
1.49036
1.25272
0.93246
0.716335
0.609374
0.58727
0.604776
0.648634
0.693636
0.731301
0.762488
0.787614
0.808201
0.829741
0.851322
0.873988
0.89525
0.916071
0.93495
0.955107
0.974404
0.994364
1.01256
1.03137
1.04847
1.06627
1.08253
1.09962
1.11525
1.13181
1.14698
1.16325
1.1782
1.19431
1.20899
1.22476
1.239
1.25433
1.26815
1.28317
1.29674
1.31162
1.32502
1.33978
1.35306
1.36774
1.38083
1.3953
1.40808
1.42228
1.43474
1.4487
1.46086
1.47457
1.48646
1.49998
1.5116
1.52493
1.53622
1.54932
1.56014
1.57275
1.58251
1.59295
1.59785
1.14414
1.249
1.34477
1.43251
1.51229
1.58425
1.64751
1.70111
1.74279
1.7697
1.77988
1.78004
1.77767
1.77069
1.76167
1.754
1.74934
1.7472
1.74742
1.74797
1.74892
1.75026
1.75135
1.75229
1.75311
1.75381
1.75473
1.75581
1.75668
1.75686
1.75648
1.75447
1.74869
1.7342
1.69986
1.62163
1.45182
1.13781
0.829754
0.688166
0.67583
0.703967
0.76572
0.828789
0.877003
0.913424
0.943136
0.965651
0.982754
0.997188
1.01257
1.02767
1.04369
1.05753
1.07175
1.08532
1.10058
1.11487
1.12988
1.1434
1.15774
1.17085
1.18498
1.19785
1.21172
1.22437
1.23819
1.25084
1.2647
1.27726
1.29102
1.30341
1.31708
1.32939
1.34311
1.35545
1.36931
1.3817
1.39557
1.40777
1.4215
1.43351
1.44715
1.45899
1.47254
1.48417
1.4976
1.50901
1.52232
1.53352
1.54674
1.55779
1.57091
1.58184
1.59475
1.60548
1.61793
1.62791
1.6384
1.64386
1.14098
1.24122
1.33335
1.41807
1.49589
1.56691
1.63083
1.68735
1.73529
1.77472
1.8051
1.82457
1.83267
1.83304
1.8314
1.82627
1.81907
1.8122
1.80776
1.80579
1.80611
1.80677
1.80804
1.80999
1.81196
1.81339
1.81483
1.81595
1.81681
1.81698
1.81666
1.81509
1.81049
1.79901
1.77208
1.71073
1.57858
1.30843
0.942269
0.735468
0.728563
0.774014
0.85526
0.935427
0.995953
1.03976
1.06991
1.09167
1.10784
1.11887
1.12609
1.13246
1.13979
1.14771
1.15683
1.16524
1.17547
1.18587
1.19759
1.20834
1.22012
1.23087
1.24272
1.25354
1.26564
1.2768
1.28938
1.30092
1.31375
1.32532
1.33812
1.34956
1.36233
1.37374
1.38666
1.39821
1.41126
1.42278
1.43587
1.44731
1.4604
1.47173
1.48486
1.49613
1.50929
1.52047
1.5336
1.54465
1.55768
1.56864
1.58156
1.5925
1.60531
1.61624
1.62889
1.63974
1.65199
1.66227
1.67275
1.67866
1.13649
1.23003
1.31792
1.3993
1.47511
1.54477
1.60913
1.66733
1.71995
1.76606
1.80537
1.8374
1.86044
1.87393
1.87879
1.87877
1.87719
1.87292
1.86738
1.86256
1.85954
1.85827
1.85845
1.85884
1.85966
1.86088
1.86234
1.86368
1.86426
1.86428
1.86381
1.86206
1.85737
1.84618
1.8208
1.76475
1.64767
1.42035
1.10491
0.873398
0.856542
0.898362
0.956238
1.02278
1.08045
1.12439
1.15656
1.17743
1.1908
1.19961
1.20563
1.20882
1.21035
1.21274
1.21672
1.22202
1.22815
1.2349
1.24408
1.25341
1.26409
1.27392
1.28487
1.29482
1.30604
1.31627
1.32794
1.33852
1.35047
1.3612
1.37332
1.38414
1.39647
1.40748
1.42002
1.43109
1.44377
1.45485
1.46759
1.47859
1.49134
1.50226
1.51503
1.52591
1.53869
1.54955
1.56225
1.57308
1.58563
1.59642
1.60885
1.61963
1.63197
1.64278
1.65499
1.66576
1.67769
1.68791
1.69831
1.70427
1.13449
1.21986
1.30241
1.38027
1.45326
1.52144
1.58467
1.6433
1.69677
1.74549
1.78855
1.82603
1.85721
1.88231
1.90004
1.91043
1.91429
1.91424
1.91282
1.90907
1.90408
1.89939
1.89619
1.895
1.89535
1.89607
1.89747
1.89939
1.90029
1.90027
1.89953
1.89693
1.89021
1.87462
1.84024
1.76772
1.6259
1.42416
1.24132
1.08133
0.996525
0.992701
1.01816
1.05536
1.10224
1.14505
1.18484
1.2148
1.23549
1.24857
1.25687
1.26252
1.2663
1.26781
1.26857
1.27051
1.274
1.2783
1.28381
1.29058
1.29983
1.30894
1.31954
1.32907
1.33991
1.34963
1.36077
1.37076
1.38219
1.39241
1.40416
1.41468
1.42673
1.43737
1.44961
1.46034
1.47274
1.48349
1.49593
1.50661
1.51906
1.52967
1.54216
1.55279
1.56528
1.57592
1.58835
1.59894
1.61126
1.62177
1.63399
1.64445
1.65661
1.6671
1.67918
1.68963
1.70151
1.71142
1.72188
1.72756
1.13442
1.21168
1.28824
1.36187
1.43174
1.49765
1.55945
1.61724
1.6709
1.7204
1.7657
1.80652
1.84286
1.8741
1.9
1.92038
1.93419
1.94175
1.94423
1.94408
1.94282
1.93966
1.9359
1.93272
1.9306
1.92959
1.9295
1.92978
1.92987
1.92945
1.92766
1.92269
1.91073
1.88389
1.82644
1.70884
1.53009
1.39199
1.31592
1.24364
1.16516
1.10644
1.08949
1.10251
1.12528
1.15776
1.19504
1.22695
1.25551
1.277
1.29183
1.30152
1.3082
1.31265
1.31552
1.3167
1.31763
1.31993
1.32343
1.3275
1.33344
1.34085
1.35087
1.36008
1.3707
1.38011
1.39086
1.40036
1.41135
1.42114
1.43252
1.44258
1.45427
1.46457
1.47654
1.48698
1.49913
1.50961
1.52186
1.53234
1.54462
1.55505
1.56731
1.57773
1.58997
1.6004
1.61257
1.62296
1.63508
1.64538
1.65744
1.66768
1.67965
1.68984
1.70172
1.71182
1.72355
1.73317
1.74362
1.7491
1.13722
1.20666
1.27697
1.34594
1.4122
1.47546
1.53524
1.59169
1.64461
1.69411
1.73999
1.78235
1.82084
1.85552
1.88591
1.91188
1.93299
1.94966
1.96071
1.9668
1.96868
1.96848
1.96727
1.96437
1.96062
1.95727
1.95496
1.95378
1.95285
1.95079
1.94613
1.93575
1.91303
1.86458
1.76262
1.59512
1.44659
1.38126
1.35754
1.33533
1.30212
1.25713
1.21222
1.18551
1.1797
1.19284
1.21093
1.23563
1.26414
1.28797
1.30996
1.32735
1.33936
1.34733
1.35352
1.35733
1.35972
1.36131
1.36312
1.3658
1.36933
1.37372
1.38062
1.38856
1.39867
1.40798
1.41871
1.42798
1.43873
1.44814
1.45914
1.46873
1.48001
1.48983
1.50143
1.5115
1.5234
1.53362
1.54564
1.55586
1.56787
1.57807
1.59006
1.60035
1.61237
1.62272
1.63471
1.64495
1.65682
1.66687
1.67864
1.68864
1.70042
1.71045
1.72225
1.73222
1.74389
1.75338
1.76381
1.76923
1.14279
1.20492
1.26889
1.33281
1.39524
1.45529
1.51281
1.56737
1.61904
1.66778
1.71347
1.75625
1.79583
1.83237
1.8655
1.89529
1.92127
1.94341
1.96122
1.97506
1.98403
1.98887
1.99016
1.98993
1.9888
1.98631
1.98293
1.97927
1.97544
1.9702
1.96031
1.93972
1.89686
1.8073
1.65029
1.4851
1.4041
1.38427
1.38325
1.3838
1.37888
1.36557
1.34196
1.31093
1.27931
1.26017
1.25538
1.26587
1.27953
1.29867
1.3217
1.34033
1.35783
1.37217
1.38272
1.38998
1.39603
1.39979
1.40216
1.40417
1.40646
1.40915
1.41281
1.41806
1.42633
1.43514
1.4457
1.45489
1.46552
1.47461
1.48527
1.49441
1.5053
1.51471
1.526
1.53574
1.54735
1.55729
1.56904
1.57905
1.59078
1.60079
1.61243
1.62245
1.63408
1.64417
1.65588
1.66597
1.67769
1.68767
1.6993
1.70916
1.72075
1.73059
1.74221
1.75202
1.76355
1.77289
1.78325
1.78854
1.15163
1.20668
1.26469
1.32331
1.38142
1.43828
1.4929
1.54571
1.59563
1.64348
1.68841
1.73109
1.77096
1.80839
1.84298
1.87488
1.9037
1.9295
1.9518
1.9707
1.98565
1.99725
2.00462
2.00834
2.00887
2.00828
2.00636
2.00205
1.99514
1.98463
1.96541
1.92659
1.84824
1.7021
1.52572
1.42393
1.39655
1.39627
1.40409
1.41405
1.42324
1.42871
1.42817
1.41852
1.39838
1.37178
1.34515
1.32836
1.32223
1.32922
1.33946
1.35372
1.37242
1.38874
1.40334
1.41551
1.42547
1.43243
1.43805
1.44182
1.44438
1.44655
1.44921
1.45242
1.45754
1.46416
1.47353
1.48209
1.49233
1.50109
1.5115
1.52035
1.53094
1.53998
1.55089
1.56029
1.57154
1.58114
1.59243
1.60205
1.6133
1.62301
1.63436
1.64425
1.65576
1.66574
1.67731
1.68721
1.69872
1.70846
1.71989
1.72951
1.74089
1.75047
1.76188
1.77145
1.78285
1.79202
1.80237
1.80756
1.1623
1.21142
1.2634
1.31709
1.37061
1.42376
1.47551
1.52569
1.57405
1.62032
1.66456
1.70649
1.74635
1.78379
1.81914
1.85197
1.88262
1.91048
1.93602
1.95832
1.97809
1.9941
2.00725
2.01652
2.02192
2.02268
2.0216
2.01805
2.00983
1.99269
1.95804
1.88892
1.75551
1.57416
1.44875
1.40632
1.40226
1.41086
1.4229
1.43819
1.45585
1.47117
1.48091
1.48466
1.48376
1.47433
1.45569
1.43307
1.41017
1.39379
1.38641
1.38882
1.39644
1.40669
1.42062
1.435
1.44792
1.45849
1.46786
1.47489
1.48052
1.48422
1.48684
1.48912
1.49215
1.49635
1.50292
1.51006
1.51938
1.52774
1.53798
1.54673
1.5572
1.56602
1.57653
1.58541
1.59612
1.60536
1.61639
1.62591
1.63703
1.64656
1.65764
1.6672
1.67838
1.68806
1.69939
1.70905
1.72038
1.72985
1.74107
1.75038
1.76158
1.77089
1.78215
1.79143
1.8027
1.81156
1.82184
1.82687
1.17547
1.21898
1.26523
1.31386
1.36352
1.4128
1.46161
1.50923
1.5555
1.60016
1.64317
1.68424
1.72361
1.76087
1.79639
1.82962
1.86123
1.89014
1.9176
1.94194
1.96465
1.984
2.0012
2.01469
2.02476
2.02818
2.02701
2.02232
2.01019
1.98299
1.92592
1.81108
1.63114
1.4827
1.42164
1.41064
1.41811
1.43003
1.44528
1.46392
1.48415
1.50261
1.51816
1.52984
1.53717
1.5412
1.54066
1.53272
1.51684
1.4971
1.47599
1.45842
1.44814
1.44464
1.45004
1.45708
1.46713
1.47938
1.49173
1.50136
1.51007
1.51659
1.52196
1.52552
1.52837
1.53118
1.53545
1.54076
1.54827
1.55558
1.5649
1.573
1.58296
1.59156
1.60202
1.61092
1.62152
1.63048
1.64111
1.65014
1.66085
1.67
1.6808
1.69002
1.70096
1.71029
1.72145
1.73085
1.74213
1.75141
1.76256
1.77163
1.78264
1.79162
1.8027
1.8117
1.82285
1.83149
1.84166
1.84655
1.18929
1.22784
1.26946
1.31335
1.3587
1.40487
1.4504
1.4956
1.53961
1.58248
1.62397
1.66413
1.70245
1.73951
1.77462
1.80805
1.83999
1.86952
1.89805
1.92371
1.94831
1.96986
1.98992
2.00628
2.01943
2.02369
2.02172
2.01418
1.99435
1.94931
1.85317
1.68824
1.52586
1.44431
1.42306
1.42778
1.43971
1.45438
1.47231
1.49252
1.51212
1.53051
1.5475
1.56307
1.57667
1.58737
1.59446
1.59827
1.59828
1.59231
1.57894
1.56109
1.54129
1.52266
1.50832
1.50099
1.50007
1.50526
1.51192
1.52067
1.5323
1.54219
1.55098
1.55758
1.56332
1.56674
1.56994
1.57346
1.57854
1.58431
1.59223
1.59963
1.60914
1.6173
1.62734
1.63589
1.64625
1.65501
1.66545
1.67421
1.68465
1.69345
1.70401
1.71292
1.72365
1.73265
1.74356
1.75263
1.76369
1.7728
1.78386
1.79282
1.80371
1.8125
1.82336
1.83213
1.84305
1.85155
1.86168
1.86652
1.20384
1.23887
1.27644
1.31624
1.35749
1.40001
1.44305
1.48523
1.52736
1.56829
1.60795
1.64699
1.68399
1.72026
1.75478
1.78787
1.81983
1.84964
1.87869
1.90514
1.931
1.95378
1.97571
1.99373
2.00727
2.00931
2.00526
1.99197
1.95804
1.88199
1.7348
1.56441
1.46703
1.43761
1.43895
1.44987
1.46489
1.48258
1.5028
1.52199
1.54017
1.55754
1.57469
1.59113
1.60664
1.62083
1.6333
1.64367
1.65105
1.65574
1.65666
1.65295
1.64186
1.62557
1.60537
1.5846
1.56665
1.5542
1.54826
1.55004
1.55479
1.56167
1.57218
1.58213
1.59141
1.59819
1.60426
1.60827
1.61248
1.61662
1.62216
1.62801
1.63587
1.64311
1.65246
1.66052
1.67056
1.67903
1.6893
1.69783
1.70808
1.71652
1.7268
1.73533
1.74584
1.75458
1.76532
1.77417
1.785
1.79385
1.80469
1.8135
1.82428
1.833
1.8437
1.85229
1.863
1.87131
1.8813
1.88619
1.21906
1.25181
1.28557
1.32169
1.35959
1.39836
1.43814
1.47839
1.51718
1.55716
1.5945
1.63226
1.66836
1.70309
1.73753
1.76928
1.80156
1.83067
1.86026
1.88688
1.91326
1.93722
1.95905
1.97851
1.98739
1.98554
1.97717
1.95282
1.8938
1.76902
1.59557
1.48305
1.44678
1.44513
1.45678
1.47186
1.49174
1.51277
1.5332
1.5513
1.56851
1.58512
1.60119
1.61714
1.63284
1.64843
1.66342
1.67745
1.6901
1.70038
1.70844
1.71295
1.71459
1.7127
1.70423
1.68902
1.66931
1.64716
1.62525
1.6074
1.59637
1.59251
1.59606
1.60159
1.61028
1.62066
1.63151
1.63898
1.64547
1.64967
1.65458
1.65908
1.66508
1.67103
1.67901
1.68616
1.69545
1.70335
1.71322
1.72146
1.73156
1.73985
1.74993
1.75817
1.76836
1.77678
1.78725
1.79589
1.80654
1.8152
1.82578
1.83436
1.84482
1.85334
1.86386
1.87229
1.88284
1.89098
1.90072
1.90557
1.23543
1.26614
1.29744
1.33013
1.36464
1.40061
1.4364
1.4745
1.51119
1.54799
1.58496
1.61962
1.65546
1.68839
1.72203
1.75345
1.78429
1.8142
1.84219
1.87017
1.89541
1.92042
1.9415
1.95781
1.96048
1.95444
1.93621
1.89037
1.7869
1.61831
1.49188
1.44717
1.44456
1.45642
1.47395
1.49512
1.51876
1.53979
1.56011
1.57819
1.59555
1.61178
1.62798
1.64398
1.65999
1.67553
1.69091
1.70578
1.72024
1.73389
1.74629
1.75709
1.76566
1.77086
1.77308
1.77221
1.76554
1.75118
1.7316
1.70758
1.68291
1.66007
1.64331
1.63475
1.6365
1.64103
1.64876
1.65918
1.6696
1.67705
1.68436
1.68958
1.69559
1.70067
1.70736
1.71343
1.72151
1.72851
1.73756
1.74515
1.75472
1.76271
1.77262
1.78079
1.79082
1.79907
1.80927
1.8177
1.8281
1.83665
1.84704
1.85546
1.86571
1.87394
1.88416
1.89237
1.90265
1.91068
1.92028
1.92499
1.24995
1.28067
1.31059
1.34066
1.37168
1.40495
1.43828
1.47238
1.5077
1.54191
1.57662
1.61078
1.64366
1.67698
1.70796
1.73983
1.76913
1.79888
1.8267
1.85373
1.87973
1.90266
1.92322
1.93045
1.92621
1.91228
1.87617
1.78934
1.63274
1.49413
1.43858
1.43425
1.44782
1.46676
1.49132
1.51674
1.54121
1.56232
1.58277
1.60124
1.62002
1.63775
1.65484
1.67105
1.68657
1.70212
1.71731
1.73265
1.74759
1.76252
1.77683
1.79045
1.80263
1.81313
1.82126
1.82646
1.82913
1.8292
1.82451
1.81231
1.79321
1.76866
1.73962
1.71152
1.68863
1.67479
1.67466
1.6788
1.68612
1.69629
1.70686
1.71486
1.72317
1.72926
1.73602
1.74144
1.74839
1.75442
1.76232
1.76914
1.77793
1.78536
1.79479
1.80272
1.81266
1.82088
1.83095
1.83922
1.84936
1.85769
1.86791
1.87622
1.88638
1.89451
1.90452
1.91252
1.92252
1.93029
1.93976
1.94442
1.26966
1.29545
1.32463
1.35337
1.38171
1.41179
1.44295
1.47423
1.50626
1.53897
1.57112
1.6034
1.63545
1.66642
1.69764
1.72702
1.75701
1.78467
1.81307
1.8388
1.86393
1.88569
1.89776
1.89668
1.88557
1.85537
1.78413
1.63789
1.48888
1.42224
1.416
1.43023
1.45185
1.47868
1.50869
1.53527
1.55951
1.58075
1.60155
1.62091
1.64073
1.65909
1.67742
1.69459
1.71134
1.72737
1.74333
1.7589
1.77447
1.78947
1.8042
1.81805
1.83148
1.84399
1.85596
1.86675
1.8757
1.88236
1.88577
1.88633
1.88282
1.87164
1.85267
1.82614
1.79395
1.76118
1.73109
1.71375
1.7127
1.71681
1.72385
1.73372
1.74432
1.75251
1.76135
1.76787
1.77508
1.78081
1.78801
1.7941
1.802
1.80874
1.81743
1.82475
1.83409
1.84193
1.85183
1.86001
1.87007
1.87827
1.8883
1.89645
1.90647
1.91452
1.92447
1.93232
1.94218
1.94973
1.95892
1.9635
1.28897
1.31004
1.33762
1.36575
1.39235
1.41992
1.44841
1.47781
1.50775
1.53769
1.56866
1.59872
1.62915
1.65926
1.68847
1.71795
1.74576
1.77393
1.80001
1.82595
1.84813
1.86446
1.86575
1.85657
1.83109
1.77159
1.64003
1.48041
1.40093
1.39151
1.40662
1.429
1.45906
1.49152
1.52232
1.54904
1.57401
1.59632
1.6185
1.63844
1.65848
1.677
1.69638
1.71481
1.73334
1.75077
1.76761
1.78362
1.79917
1.81427
1.82894
1.84348
1.85765
1.87177
1.88528
1.89838
1.9104
1.92127
1.93009
1.93693
1.9402
1.94113
1.93848
1.92897
1.91019
1.88276
1.84714
1.80897
1.77187
1.75212
1.75023
1.75414
1.76102
1.77066
1.78132
1.78983
1.79921
1.80614
1.81381
1.81981
1.82712
1.83319
1.84097
1.84761
1.85615
1.86339
1.87268
1.88053
1.89045
1.89859
1.90858
1.91662
1.92651
1.93439
1.94422
1.95196
1.96167
1.96911
1.97806
1.98242
1.316
1.32814
1.35026
1.37812
1.40439
1.42993
1.45618
1.48298
1.51076
1.53893
1.56734
1.59636
1.62491
1.65362
1.68203
1.70977
1.73756
1.76366
1.78981
1.81238
1.83114
1.83507
1.82727
1.80572
1.75377
1.64038
1.473
1.37867
1.36463
1.37903
1.40266
1.43393
1.46966
1.50227
1.53226
1.55908
1.58489
1.60858
1.63187
1.65319
1.67467
1.69449
1.71462
1.73369
1.75298
1.77148
1.78935
1.80641
1.82268
1.83844
1.8537
1.86865
1.88327
1.89755
1.91153
1.92505
1.9382
1.95072
1.96272
1.97347
1.98278
1.99008
1.99344
1.99445
1.99223
1.98314
1.96415
1.93535
1.89599
1.85178
1.80981
1.7893
1.78717
1.79124
1.79822
1.8078
1.81827
1.82686
1.83643
1.84352
1.85143
1.8575
1.86497
1.87112
1.87898
1.88565
1.89427
1.90153
1.91098
1.91887
1.92879
1.93676
1.94659
1.95434
1.964
1.97159
1.98111
1.98843
1.99731
2.00146
1.34351
1.34798
1.3649
1.38932
1.41527
1.43999
1.46472
1.48991
1.51564
1.54206
1.56871
1.59554
1.62293
1.65007
1.67698
1.70397
1.73008
1.75567
1.77884
1.79918
1.80513
1.79834
1.7798
1.73384
1.63766
1.46542
1.35576
1.33567
1.3493
1.37279
1.40625
1.44353
1.4788
1.51021
1.53981
1.56705
1.59357
1.61822
1.64261
1.66537
1.68833
1.70947
1.731
1.75047
1.77045
1.78914
1.80807
1.82591
1.84334
1.85983
1.87598
1.89156
1.90682
1.92155
1.93595
1.94999
1.96379
1.9773
1.99037
2.00292
2.01462
2.02508
2.0341
2.04096
2.04408
2.04498
2.04296
2.03425
2.01532
1.98556
1.94282
1.89213
1.84696
1.82685
1.82378
1.828
1.8349
1.84464
1.85495
1.86347
1.87306
1.8803
1.8884
1.89461
1.90238
1.90865
1.91672
1.92343
1.93214
1.93941
1.94889
1.95665
1.96639
1.9741
1.98368
1.99114
2.00052
2.00762
2.01639
2.0204
1.38484
1.3754
1.38248
1.40104
1.42573
1.44998
1.47335
1.49718
1.52128
1.54603
1.57138
1.59683
1.62243
1.64839
1.67399
1.69926
1.72439
1.7474
1.7679
1.77643
1.77103
1.75432
1.71309
1.62588
1.45478
1.33203
1.30558
1.31794
1.34242
1.37706
1.41676
1.45308
1.48658
1.51699
1.54635
1.57371
1.60086
1.62635
1.65189
1.67578
1.69976
1.72209
1.74466
1.76542
1.78633
1.80533
1.82463
1.84313
1.86165
1.87947
1.89658
1.91296
1.92868
1.94399
1.95888
1.97347
1.98771
2.00159
2.01511
2.02818
2.04079
2.05279
2.06412
2.07425
2.08334
2.09016
2.09359
2.09446
2.09253
2.08391
2.06457
2.03218
1.98631
1.92982
1.88176
1.86379
1.86035
1.8646
1.8714
1.8812
1.89146
1.89992
1.90953
1.91674
1.92497
1.93134
1.93934
1.94573
1.95399
1.96074
1.96955
1.97676
1.98609
1.99362
2.00309
2.0105
2.01979
2.02675
2.03539
2.03921
1.43879
1.40629
1.40472
1.41557
1.43591
1.46043
1.48375
1.50636
1.52923
1.55224
1.57586
1.60001
1.62405
1.64843
1.67284
1.69669
1.71919
1.73946
1.74943
1.74551
1.72963
1.69094
1.60647
1.44803
1.31442
1.27881
1.28829
1.31215
1.34816
1.38882
1.42692
1.46109
1.49324
1.52315
1.55238
1.58024
1.60789
1.63416
1.66028
1.68498
1.7098
1.73314
1.75663
1.77829
1.8002
1.82023
1.84056
1.85924
1.87833
1.89646
1.91459
1.93184
1.94866
1.96477
1.98048
1.99564
2.01039
2.02469
2.03853
2.05202
2.06496
2.07758
2.0896
2.10119
2.11214
2.12195
2.13103
2.13766