/*--------------------------------*- C++ -*----------------------------------*\
  =========                 |
  \\      /  F ield         | OpenFOAM: The Open Source CFD Toolbox
   \\    /   O peration     | Website:  https://openfoam.org
    \\  /    A nd           | Version:  13
     \\/     M anipulation  |
\*---------------------------------------------------------------------------*/
FoamFile
{
    format      ascii;
    class       surfaceScalarField;
    location    "2.5";
    object      phi;
}
// * * * * * * * * * * * * * * * * * * * * * * * * * * * * * * * * * * * * * //

dimensions      [1 0 -1 0 0 0 0];

internalField   nonuniform List<scalar> 
10325
(
0.00840003
1.32166e-10
0.00840005
3.2062e-10
0.00839996
2.29459e-09
0.00840019
3.30199e-09
0.00839963
1.69453e-08
0.0084009
2.34141e-08
0.00839785
1.07381e-07
0.00840424
1.50765e-07
0.00839009
6.40148e-07
0.00841091
1.10765e-06
0.00837524
3.68252e-06
0.00839466
9.23279e-06
0.00833339
3.02095e-05
0.00822012
0.000109737
0.00759249
0.000558478
0.00691201
0.00070388
0.00627122
0.000646338
0.00561515
0.000655624
0.00493083
0.000684648
0.00420678
0.000726381
0.00344837
0.000764619
0.00265793
0.000798351
0.00182957
0.000836274
0.000949742
0.00088802
0.00095496
0.00840003
1.09356e-10
0.00840004
1.25985e-09
0.00839998
2.9697e-09
0.00840014
1.20476e-08
0.00839974
2.25099e-08
0.00840062
7.68109e-08
0.00839845
1.44649e-07
0.00840228
4.69527e-07
0.00839373
9.35915e-07
0.00840475
2.8184e-06
0.00838114
6.64623e-06
0.00838954
1.94479e-05
0.00833668
5.98444e-05
0.00822074
0.000218284
0.0076212
0.00108973
0.00692896
0.00141943
0.00630583
0.00127534
0.00566617
0.00129494
0.00499382
0.0013573
0.00426962
0.0014528
0.00350515
0.00153532
0.00269829
0.00161311
0.00184101
0.00170139
0.000934543
0.00180257
0.00189457
0.00840003
2.11818e-10
0.00840005
1.48911e-09
0.00839997
4.86037e-09
0.00840018
1.44482e-08
0.00839966
3.64211e-08
0.00840084
9.93772e-08
0.00839802
2.2077e-07
0.00840391
6.49169e-07
0.00839092
1.34265e-06
0.00841022
4.04599e-06
0.00837714
9.37534e-06
0.00839625
2.78967e-05
0.00834099
8.47946e-05
0.00824825
0.00030885
0.00775198
0.00151694
0.00706029
0.00213358
0.00643884
0.00190383
0.00580774
0.00192609
0.00514493
0.00202036
0.00442316
0.00217628
0.00364985
0.00231469
0.00281905
0.00245231
0.0019241
0.00260405
0.000973847
0.00276023
0.00287272
0.00840003
2.63413e-10
0.00840004
1.65253e-09
0.00840003
5.64775e-09
0.00840001
1.64161e-08
0.00839998
4.24345e-08
0.00840007
1.09615e-07
0.00839933
2.78697e-07
0.00840092
6.81728e-07
0.00839597
1.78897e-06
0.00840283
4.38666e-06
0.00838885
1.17988e-05
0.00839175
3.23485e-05
0.00836122
0.000101182
0.0083006
0.000362164
0.00800937
0.00174262
0.00734148
0.00282176
0.00669703
0.00255531
0.00606068
0.00256306
0.00539779
0.00268414
0.00467666
0.002901
0.00388225
0.00311628
0.00301076
0.00333129
0.0020648
0.0035567
0.00105064
0.00378056
0.00392576
0.00840003
2.68979e-10
0.00840004
1.69991e-09
0.0084
5.85862e-09
0.00840009
1.64574e-08
0.00839984
4.42213e-08
0.00840045
1.08711e-07
0.00839875
2.87513e-07
0.00840282
6.85878e-07
0.00839337
1.81108e-06
0.00840974
4.4254e-06
0.00838491
1.17988e-05
0.00840827
3.20274e-05
0.00838459
9.86324e-05
0.00840215
0.000347094
0.00848129
0.00160092
0.00784056
0.00347566
0.00708904
0.00331524
0.00641292
0.00324194
0.00572786
0.00337185
0.00498981
0.00364146
0.00416572
0.00394631
0.00325316
0.00424906
0.00224831
0.00456624
0.00115377
0.00488003
0.0050817
0.00840003
3.04991e-10
0.00840004
1.46585e-09
0.0084
6.47409e-09
0.00840009
1.43392e-08
0.00839983
4.78544e-08
0.00840052
9.96929e-08
0.00839871
2.9128e-07
0.00840311
6.48432e-07
0.00839355
1.7179e-06
0.00841101
4.18192e-06
0.00838583
1.07286e-05
0.00841544
2.90067e-05
0.00840083
8.60066e-05
0.00846084
0.000292889
0.00873838
0.00128856
0.00815664
0.00404642
0.00735219
0.00411585
0.00666722
0.00392482
0.0060027
0.00403535
0.00527231
0.00437146
0.0044391
0.00478164
0.00350794
0.00518311
0.00246365
0.00561331
0.00129044
0.00605591
0.00637153
0.00840003
2.3463e-10
0.00840002
1.76749e-09
0.00840007
5.22977e-09
0.00839995
1.72654e-08
0.00840024
3.92978e-08
0.00839959
1.13722e-07
0.00840098
2.53037e-07
0.00839811
6.91971e-07
0.00840314
1.60229e-06
0.00839434
4.18548e-06
0.00840677
1.04075e-05
0.00839022
2.81621e-05
0.0084058
8.24434e-05
0.00841083
0.000275689
0.00848992
0.00118846
0.00810497
0.00440455
0.00738133
0.00482707
0.00680645
0.00449858
0.00620316
0.00463756
0.00550959
0.00506519
0.00471145
0.00558133
0.00378831
0.00610891
0.00272232
0.00668166
0.00147134
0.00730764
0.00783997
0.00840003
2.90789e-10
0.00840003
1.64768e-09
0.00840003
6.00867e-09
0.00840002
1.61782e-08
0.00840003
4.46483e-08
0.00840001
1.05566e-07
0.00839976
2.90793e-07
0.00840042
6.391e-07
0.00839805
1.82312e-06
0.00840205
4.00273e-06
0.00839514
1.12568e-05
0.00839939
2.82237e-05
0.00839166
8.43944e-05
0.00839023
0.000276375
0.00841417
0.00114587
0.00795524
0.00483778
0.00758806
0.00518266
0.00699672
0.0050951
0.00634124
0.00529383
0.00572953
0.00567699
0.00499774
0.00631115
0.00412182
0.0069838
0.00306338
0.00773971
0.0017519
0.00861852
0.00958871
0.00840003
3.28491e-10
0.00840004
1.65105e-09
0.00839999
6.86546e-09
0.00840012
1.6145e-08
0.00839981
4.97704e-08
0.00840054
1.12135e-07
0.00839889
3.01616e-07
0.00840259
7.2554e-07
0.00839457
1.78565e-06
0.00840848
4.59899e-06
0.00838612
1.11758e-05
0.00840932
3.03998e-05
0.00838096
8.59475e-05
0.00838711
0.00028292
0.00839327
0.00111997
0.0080526
0.0051502
0.00760899
0.00562535
0.00711587
0.0055908
0.00657015
0.00583985
0.00598405
0.00626344
0.00533536
0.00696003
0.00454945
0.00777042
0.00359273
0.00869747
0.00223292
0.00997888
0.0118174
0.00840003
3.05764e-10
0.00840002
1.97277e-09
0.00840007
6.47186e-09
0.00839996
1.9298e-08
0.0084002
4.88997e-08
0.00839964
1.24098e-07
0.00840091
3.20773e-07
0.00839803
7.38793e-07
0.0084035
2.02805e-06
0.00839299
4.49613e-06
0.00840753
1.25115e-05
0.00838486
3.09202e-05
0.00840019
9.03645e-05
0.00837739
0.00028777
0.00839105
0.00110185
0.00820882
0.00529863
0.00773722
0.00609957
0.00728484
0.00604645
0.00684159
0.00628396
0.00633222
0.00677281
0.00580196
0.00749017
0.00519811
0.00837444
0.00434235
0.00955348
0.00306924
0.0112519
0.0148828
0.00840003
3.29416e-10
0.00840004
1.90158e-09
0.00840001
7.07548e-09
0.00840009
1.84832e-08
0.00839992
5.22638e-08
0.00840028
1.24367e-07
0.00839952
3.26904e-07
0.00840067
7.90353e-07
0.00839838
1.98594e-06
0.00840141
4.9652e-06
0.00839502
1.2487e-05
0.0084012
3.27394e-05
0.00838807
9.15557e-05
0.00838863
0.000290604
0.00840712
0.00107185
0.00848849
0.00518257
0.0080044
0.00658898
0.0075186
0.00653627
0.00713566
0.00666807
0.00675327
0.00715526
0.00638086
0.00786222
0.00596638
0.00878828
0.0055858
0.00993305
0.00559888
0.011237
0.0116476
0.00883074
0.00840003
2.68921e-10
0.00840003
2.04898e-09
0.00840003
6.26867e-09
0.00840002
2.00487e-08
0.00840008
4.7402e-08
0.00839983
1.34147e-07
0.00840054
2.9913e-07
0.00839855
8.40786e-07
0.0084034
1.8438e-06
0.00839281
5.20453e-06
0.00841085
1.19283e-05
0.00838612
3.30817e-05
0.00841129
8.8627e-05
0.00840059
0.000278322
0.00847944
0.000995797
0.0090182
0.00460454
0.00849144
0.00712308
0.00792127
0.00711243
0.00752256
0.00706957
0.0072003
0.00747858
0.00692178
0.0081413
0.00672372
0.00898646
0.00671222
0.00994439
0.00719552
0.0107533
0.0105791
0.00826096
0.00840003
2.95093e-10
0.00840003
1.73631e-09
0.00840005
6.11596e-09
0.0084
1.6957e-08
0.00840013
4.52339e-08
0.00839987
1.11154e-07
0.00840044
2.92001e-07
0.00839946
6.7394e-07
0.00840129
1.83665e-06
0.00839879
4.12909e-06
0.00840476
1.13583e-05
0.0084007
2.73518e-05
0.00842262
7.68028e-05
0.00846087
0.000226375
0.00867233
0.000782537
0.0099204
0.00331629
0.00924693
0.00780249
0.00857066
0.00779381
0.00808244
0.00756081
0.00774888
0.00781391
0.00752929
0.0083621
0.00747475
0.00904188
0.00771052
0.00970867
0.00828161
0.0101831
0.00992198
0.00893795
0.00840003
2.28594e-10
0.00840004
1.464e-09
0.00840002
5.01173e-09
0.00840007
1.43395e-08
0.00839998
3.71768e-08
0.00840018
9.51639e-08
0.00839991
2.32925e-07
0.00840035
5.85664e-07
0.00840024
1.41773e-06
0.00840101
3.55755e-06
0.00840277
8.72239e-06
0.00840935
2.22136e-05
0.00842237
5.82901e-05
0.00848417
0.000167713
0.00871265
0.000547698
0.00980905
0.00220316
0.00970323
0.00789845
0.00930584
0.00819142
0.00868389
0.00818342
0.00833638
0.00816277
0.00817793
0.00852197
0.00819572
0.00902587
0.00844601
0.00945828
0.00893691
0.00969319
0.00940561
0.00945352
0.00840003
1.87117e-10
0.00840004
1.29308e-09
0.00840002
4.26319e-09
0.00840006
1.26012e-08
0.00839999
3.15382e-08
0.00840016
8.46131e-08
0.00839988
1.94276e-07
0.00840037
5.32315e-07
0.00839992
1.16279e-06
0.00840079
3.26026e-06
0.0084011
7.17615e-06
0.00840514
1.97501e-05
0.00841013
4.87142e-05
0.00844032
0.000140603
0.00853831
0.000444248
0.00903128
0.00169836
0.00975458
0.00714598
0.00948402
0.0084587
0.00911612
0.00854932
0.00882966
0.0084493
0.00872495
0.00862685
0.00877989
0.00897177
0.00900356
0.0092345
0.00940244
0.00929448
0.00898287
0.00982541
0.00840003
1.77634e-10
0.00840003
1.1183e-09
0.00840004
3.81842e-09
0.00840002
1.09251e-08
0.00840006
2.85925e-08
0.00840002
7.16914e-08
0.00840004
1.83406e-07
0.00840025
4.34942e-07
0.00839946
1.1385e-06
0.00840209
2.6328e-06
0.00839726
7.02573e-06
0.00840846
1.66828e-05
0.00840084
4.48716e-05
0.00842852
0.00012159
0.00847979
0.000380845
0.00880002
0.00137599
0.0098748
0.0060402
0.0097451
0.00858875
0.00948312
0.0088116
0.00924508
0.00868757
0.00917203
0.00870014
0.00925009
0.00889464
0.00944046
0.00904301
0.00974284
0.00899169
0.00865016
0.0100757
0.00840003
1.54344e-10
0.00840004
9.38854e-10
0.00840002
3.35253e-09
0.00840006
9.15772e-09
0.00839999
2.48156e-08
0.00840018
6.1342e-08
0.00839979
1.54881e-07
0.00840081
3.86178e-07
0.00839885
9.38229e-07
0.00840382
2.40085e-06
0.00839545
5.73275e-06
0.00841347
1.494e-05
0.00839674
3.71945e-05
0.00844115
0.000102478
0.00849225
0.000304285
0.00882003
0.00105437
0.0105296
0.00429672
0.0102416
0.00887457
0.0100228
0.00902998
0.00970635
0.00900542
0.00959099
0.00881584
0.00964791
0.00883922
0.00980966
0.00888219
0.0100331
0.00876734
0.00841372
0.0102692
0.00840003
1.27967e-10
0.00840003
7.33011e-10
0.00840004
2.68772e-09
0.00840003
7.1398e-09
0.00840006
1.99543e-08
0.00840002
4.67728e-08
0.00840011
1.26601e-07
0.00840015
2.83457e-07
0.00840011
7.72042e-07
0.00840149
1.70908e-06
0.0084001
4.66154e-06
0.00840904
1.05524e-05
0.00841019
2.841e-05
0.00844817
7.12287e-05
0.0085377
0.000206261
0.00893445
0.000659855
0.0106575
0.00255671
0.0108827
0.00863789
0.0106265
0.00928412
0.0102922
0.00933818
0.0100505
0.00905773
0.0100186
0.00887089
0.0101232
0.00877884
0.0102863
0.00860513
0.00824875
0.0104516
0.00840003
9.1862e-11
0.00840003
6.13014e-10
0.00840003
2.04343e-09
0.00840004
6.00457e-09
0.00840004
1.50996e-08
0.00840003
3.99636e-08
0.00840012
9.37438e-08
0.0083999
2.47015e-07
0.00840088
5.65624e-07
0.00839883
1.49943e-06
0.00840559
3.41212e-06
0.0083951
9.09829e-06
0.00842198
2.14212e-05
0.00840859
5.74772e-05
0.00848428
0.000155504
0.00862997
0.000488757
0.009382
0.00180838
0.0108775
0.00711235
0.0108649
0.00929359
0.0106714
0.00952967
0.0104337
0.00929496
0.0103618
0.0089436
0.0104072
0.00873479
0.0105064
0.0085074
0.00814432
0.0106113
0.00840003
7.66821e-11
0.00840003
4.92368e-10
0.00840004
1.64946e-09
0.00840003
4.79764e-09
0.00840006
1.23396e-08
0.0084
3.13105e-08
0.00840016
7.89679e-08
0.0083999
1.8988e-07
0.00840062
4.87736e-07
0.00839968
1.14337e-06
0.00840226
2.9934e-06
0.00840015
6.9872e-06
0.00840967
1.84454e-05
0.0084104
4.54418e-05
0.00845219
0.000125654
0.00855363
0.000373043
0.0090556
0.00130586
0.0110828
0.00505361
0.01117
0.00920072
0.0110958
0.00960047
0.0108768
0.00951328
0.0107104
0.00911247
0.0106838
0.00876377
0.0107278
0.00846556
0.00809453
0.0107795
0.00840003
5.57015e-11
0.00840003
3.6796e-10
0.00840003
1.2396e-09
0.00840004
3.59348e-09
0.00840003
9.13116e-09
0.00840006
2.39223e-08
0.00840004
5.61342e-08
0.00840012
1.48034e-07
0.00840026
3.35094e-07
0.00840017
8.94888e-07
0.00840218
2.00916e-06
0.00840053
5.3746e-06
0.00841301
1.23289e-05
0.00841473
3.26998e-05
0.00846969
8.21997e-05
0.00859286
0.000235956
0.009153
0.000750946
0.0113881
0.0028004
0.0117513
0.0088243
0.0116321
0.0097171
0.011365
0.00977886
0.0110943
0.00938451
0.010973
0.00888685
0.0109521
0.00848884
0.0080925
0.0109564
0.00840003
4.35578e-11
0.00840003
2.73425e-10
0.00840003
9.37114e-10
0.00840003
2.66008e-09
0.00840004
6.98205e-09
0.00840004
1.72897e-08
0.00840005
4.43429e-08
0.00840011
1.04155e-07
0.00840001
2.70303e-07
0.00840084
6.21027e-07
0.00839936
1.63213e-06
0.00840556
3.72307e-06
0.00839804
9.83661e-06
0.00842438
2.31741e-05
0.0084211
6.15748e-05
0.00851464
0.000164774
0.00873054
0.000510423
0.00967913
0.00185493
0.0116673
0.00680384
0.0118337
0.00954854
0.0117185
0.00989301
0.0114208
0.00968432
0.0112804
0.00902961
0.0111927
0.00857856
0.00813423
0.0111537
0.00840003
3.24637e-11
0.00840003
1.99241e-10
0.00840003
7.08604e-10
0.00840004
1.95063e-09
0.00840003
5.23741e-09
0.00840006
1.30169e-08
0.00840001
3.23279e-08
0.00840016
8.07111e-08
0.00839998
1.93001e-07
0.00840058
4.92219e-07
0.00840017
1.15031e-06
0.00840209
2.98989e-06
0.00840265
6.94997e-06
0.00841092
1.81946e-05
0.00842134
4.42748e-05
0.00847305
0.000120271
0.00862543
0.000346627
0.00929789
0.00117973
0.0117781
0.00428771
0.0120819
0.00923814
0.0121306
0.00984728
0.0119735
0.00984452
0.0116072
0.009399
0.0114579
0.00873001
0.00823579
0.011358
0.00840003
2.38354e-11
0.00840003
1.45067e-10
0.00840003
5.06319e-10
0.00840003
1.41447e-09
0.00840004
3.73721e-09
0.00840003
9.21741e-09
0.00840006
2.35826e-08
0.00840005
5.53793e-08
0.00840013
1.43623e-07
0.00840028
3.28956e-07
0.00840028
8.62498e-07
0.00840221
1.96618e-06
0.00840096
5.16437e-06
0.00841334
1.19546e-05
0.0084151
3.13001e-05
0.00846989
7.79295e-05
0.00858265
0.000218772
0.0090904
0.000677948
0.0109304
0.00243033
0.0123645
0.00778385
0.0124272
0.00978556
0.0122731
0.0100005
0.0119181
0.00975735
0.0117544
0.00889632
0.00839514
0.0115968
0.00840003
1.56761e-11
0.00840003
1.07028e-10
0.00840003
3.50295e-10
0.00840003
1.04406e-09
0.00840003
2.5941e-09
0.00840004
6.87976e-09
0.00840004
1.61234e-08
0.00840005
4.2039e-08
0.00840013
9.71496e-08
0.00840003
2.51684e-07
0.00840084
5.84955e-07
0.0083997
1.49893e-06
0.00840526
3.53642e-06
0.00839927
8.9844e-06
0.0084246
2.18323e-05
0.00842249
5.60101e-05
0.00851698
0.00014861
0.00872627
0.000441831
0.00962801
0.00153475
0.0121477
0.00523051
0.0125187
0.00940907
0.0126223
0.00989903
0.0125326
0.00984963
0.0120898
0.00934231
0.00864049
0.0118465
0.00840003
1.14124e-11
0.00840003
7.05705e-11
0.00840003
2.4909e-10
0.00840003
6.88749e-10
0.00840003
1.83766e-09
0.00840004
4.54281e-09
0.00840003
1.13568e-08
0.00840009
2.77157e-08
0.00840001
6.76833e-08
0.00840036
1.65963e-07
0.00839995
4.00283e-07
0.00840183
9.89846e-07
0.00839998
2.36885e-06
0.00840897
5.90904e-06
0.0084053
1.42181e-05
0.00844269
3.60024e-05
0.0084737
9.15215e-05
0.00868323
0.000255168
0.00939841
0.00080106
0.0118602
0.00275965
0.0129239
0.0083292
0.0129389
0.00988393
0.0127923
0.0099973
0.0124174
0.0097194
0.00889561
0.0121636
0.00840003
8.25822e-12
0.00840003
4.70204e-11
0.00840003
1.75526e-10
0.00840003
4.59592e-10
0.00840003
1.29028e-09
0.00840004
3.02695e-09
0.00840003
8.00877e-09
0.00840006
1.84261e-08
0.00840002
4.78403e-08
0.00840023
1.10689e-07
0.00839993
2.82379e-07
0.00840134
6.65593e-07
0.00839944
1.66791e-06
0.00840737
4.01359e-06
0.00839901
9.91613e-06
0.00843261
2.46093e-05
0.00842832
6.18779e-05
0.00855386
0.000165889
0.0088253
0.000492735
0.00988521
0.00170977
0.012587
0.00558906
0.0129909
0.00947313
0.0131326
0.00985446
0.0129892
0.00986301
0.00931746
0.0125695
0.00840003
4.86949e-12
0.00840003
3.31336e-11
0.00840003
1.08483e-10
0.00840003
3.23563e-10
0.00840003
8.02543e-10
0.00840003
2.11311e-09
0.00840004
4.97796e-09
0.00840003
1.27429e-08
0.0084001
2.9727e-08
0.00840002
7.53925e-08
0.00840039
1.76678e-07
0.00840004
4.43017e-07
0.00840191
1.04875e-06
0.00840066
2.60245e-06
0.0084091
6.26706e-06
0.00840925
1.5439e-05
0.00844641
3.82854e-05
0.00849257
9.81805e-05
0.0087324
0.000271502
0.00957233
0.000853145
0.0123104
0.00284033
0.0133646
0.00840181
0.0133669
0.0098497
0.0132951
0.00993332
0.00968918
0.0129228
0.00840003
3.51767e-12
0.00840003
2.12205e-11
0.00840003
7.53363e-11
0.00840003
2.06779e-10
0.00840003
5.53663e-10
0.00840003
1.35057e-09
0.00840004
3.43683e-09
0.00840004
8.13492e-09
0.00840005
2.05762e-08
0.00840007
4.82295e-08
0.00840009
1.21638e-07
0.0084004
2.86039e-07
0.00840015
7.17516e-07
0.00840258
1.70232e-06
0.00840064
4.22997e-06
0.00841439
1.02394e-05
0.00841055
2.54164e-05
0.00846823
6.38787e-05
0.00854004
0.000169747
0.00891356
0.000501858
0.0100101
0.00171958
0.0129138
0.00546493
0.0134131
0.00934271
0.0135889
0.00975449
0.00983719
0.013439
0.00840003
2.06298e-12
0.00840003
1.42436e-11
0.00840003
4.60302e-11
0.00840003
1.38995e-10
0.00840003
3.402e-10
0.00840003
9.03804e-10
0.00840004
2.10845e-09
0.00840003
5.41415e-09
0.00840006
1.25939e-08
0.00840003
3.1783e-08
0.00840018
7.47596e-08
0.00840007
1.85349e-07
0.00840073
4.43385e-07
0.00840068
1.07849e-06
0.00840296
2.63426e-06
0.00840588
6.30515e-06
0.00841594
1.57234e-05
0.00843972
3.81536e-05
0.00851289
9.87669e-05
0.00873943
0.000268801
0.00961689
0.00083943
0.0123392
0.00272993
0.013665
0.00799438
0.0137135
0.00970106
0.00976962
0.0137773
0.00840003
1.4831e-12
0.00840003
8.61468e-12
0.00840003
3.16141e-11
0.00840003
8.41438e-11
0.00840003
2.31543e-10
0.00840003
5.50196e-10
0.00840003
1.42763e-09
0.00840004
3.31809e-09
0.00840004
8.4699e-09
0.00840006
1.9682e-08
0.00840004
4.96729e-08
0.00840025
1.16658e-07
0.00840002
2.90072e-07
0.00840138
6.92487e-07
0.00839997
1.69534e-06
0.00840757
4.11978e-06
0.00840184
9.99554e-06
0.00843539
2.48109e-05
0.00844083
6.15414e-05
0.00858132
0.000162924
0.00890973
0.00047343
0.0100588
0.00159098
0.0130652
0.00494679
0.0137572
0.00899767
0.00960443
0.0139199
0.00840003
8.58491e-13
0.00840003
5.69912e-12
0.00840003
1.88727e-11
0.00840003
5.55811e-11
0.00840003
1.39096e-10
0.00840003
3.59964e-10
0.00840003
8.64049e-10
0.00840003
2.14104e-09
0.00840004
5.16751e-09
0.00840003
1.25062e-08
0.00840009
3.05927e-08
0.00840005
7.27527e-08
0.00840032
1.80274e-07
0.00840031
4.23664e-07
0.00840125
1.06012e-06
0.0084025
2.47472e-06
0.00840592
6.23243e-06
0.00841658
1.46819e-05
0.00843899
3.72084e-05
0.00850857
9.25057e-05
0.00872601
0.000253335
0.00954369
0.000771012
0.0119918
0.00248207
0.0138143
0.00715336
0.00947615
0.0139377
0.00840003
5.32701e-13
0.00840003
3.52611e-12
0.00840003
1.18514e-11
0.00840003
3.43874e-11
0.00840003
8.71348e-11
0.00840003
2.2451e-10
0.00840003
5.33926e-10
0.00840003
1.35182e-09
0.00840004
3.15059e-09
0.00840004
7.95738e-09
0.00840006
1.85011e-08
0.00840005
4.64897e-08
0.00840023
1.08809e-07
0.00840007
2.7025e-07
0.0084013
6.42306e-07
0.00840016
1.56938e-06
0.00840743
3.79876e-06
0.00840225
9.18638e-06
0.00843687
2.27153e-05
0.00843934
5.59011e-05
0.00858652
0.000146064
0.0088985
0.000414131
0.0100457
0.0013489
0.0130321
0.00411686
0.00846829
0.0140256
0.00840003
3.54886e-13
0.00840003
2.0633e-12
0.00840003
7.60632e-12
0.00840003
2.01315e-11
0.00840003
5.57119e-11
0.00840003
1.31449e-10
0.00840003
3.41211e-10
0.00840003
7.9208e-10
0.00840003
2.00302e-09
0.00840004
4.68923e-09
0.00840003
1.16353e-08
0.00840009
2.77075e-08
0.00840006
6.72896e-08
0.0084003
1.63516e-07
0.00840029
3.89173e-07
0.00840122
9.65407e-07
0.00840233
2.2557e-06
0.00840554
5.69579e-06
0.00841551
1.32912e-05
0.00843497
3.39267e-05
0.00849862
8.28768e-05
0.00868391
0.000224452
0.0093659
0.000665328
0.0113369
0.00212734
0.00598573
0.0137878
0.00840003
1.94245e-13
0.00840003
1.31965e-12
0.00840003
4.31205e-12
0.00840003
1.2817e-11
0.00840003
3.17728e-11
0.00840003
8.26231e-11
0.00840003
1.96271e-10
0.00840003
4.9018e-10
0.00840004
1.16643e-09
0.00840003
2.84634e-09
0.00840005
6.86037e-09
0.00840004
1.64511e-08
0.00840011
4.01928e-08
0.00840009
9.50536e-08
0.00840038
2.34814e-07
0.00840058
5.49616e-07
0.00840154
1.36855e-06
0.0084041
3.19221e-06
0.00840792
7.97875e-06
0.00842548
1.88548e-05
0.00845487
4.75095e-05
0.00856318
0.000119189
0.00888684
0.000331145
0.00997962
0.00102855
0.00306835
0.0128516
0.00840003
1.2267e-13
0.00840003
7.50259e-13
0.00840003
2.6728e-12
0.00840003
7.34187e-12
0.00840003
1.94958e-11
0.00840003
4.80664e-11
0.00840003
1.18324e-10
0.00840003
2.89235e-10
0.00840003
6.89666e-10
0.00840003
1.70876e-09
0.00840004
3.98204e-09
0.00840004
9.99696e-09
0.00840007
2.3068e-08
0.00840006
5.81517e-08
0.00840029
1.33996e-07
0.00840013
3.36637e-07
0.00840166
7.83053e-07
0.0084006
1.94483e-06
0.00840932
4.59391e-06
0.00840515
1.13121e-05
0.00844655
2.73835e-05
0.00846138
6.83953e-05
0.00865601
0.000177841
0.00912289
0.000513448
0.00162887
0.0105778
0.00840003
7.03997e-14
0.00840003
4.51985e-13
0.00840003
1.53143e-12
0.00840003
4.40096e-12
0.00840003
1.12679e-11
0.00840003
2.83052e-11
0.00840003
6.94768e-11
0.00840003
1.66957e-10
0.00840003
4.11145e-10
0.00840003
9.65269e-10
0.00840004
2.40728e-09
0.00840004
5.56482e-09
0.00840004
1.39819e-08
0.00840009
3.22153e-08
0.00840008
8.08183e-08
0.00840039
1.86834e-07
0.00840024
4.65397e-07
0.0084023
1.08804e-06
0.00840122
2.67736e-06
0.00841301
6.35338e-06
0.00841018
1.5546e-05
0.00846594
3.78232e-05
0.00850921
9.49876e-05
0.00880756
0.000252973
0.00075549
0.00964757
0.00840003
3.96605e-14
0.00840003
2.62474e-13
0.00840003
8.837e-13
0.00840003
2.55712e-12
0.00840003
6.47451e-12
0.00840003
1.65588e-11
0.00840003
3.94232e-11
0.00840003
9.86251e-11
0.00840003
2.30123e-10
0.00840003
5.74382e-10
0.00840003
1.33356e-09
0.00840003
3.31731e-09
0.00840005
7.73051e-09
0.00840004
1.90495e-08
0.00840013
4.49188e-08
0.00840008
1.0907e-07
0.00840057
2.60896e-07
0.00840037
6.24524e-07
0.00840302
1.51434e-06
0.00840248
3.58748e-06
0.00841546
8.80427e-06
0.00841993
2.09166e-05
0.00848081
5.23429e-05
0.00857225
0.000131254
0.000364944
0.00898598
0.00840003
2.45551e-14
0.00840003
1.44885e-13
0.00840003
5.28147e-13
0.00840003
1.40905e-12
0.00840003
3.85648e-12
0.00840003
9.13089e-12
0.00840003
2.34165e-11
0.00840003
5.44553e-11
0.00840003
1.36079e-10
0.00840003
3.18602e-10
0.00840003
7.80892e-10
0.00840004
1.85659e-09
0.00840004
4.46937e-09
0.00840005
1.07954e-08
0.00840006
2.55187e-08
0.00840011
6.28359e-08
0.00840023
1.45873e-07
0.00840035
3.63713e-07
0.00840148
8.38434e-07
0.00840142
2.09879e-06
0.00840919
4.8521e-06
0.00840851
1.21408e-05
0.00845057
2.86858e-05
0.00847556
7.26138e-05
0.000185731
0.00869394
0.00840003
1.30212e-14
0.00840003
8.50794e-14
0.00840003
2.87674e-13
0.00840003
8.28102e-13
0.00840003
2.1035e-12
0.00840003
5.34117e-12
0.00840003
1.2809e-11
0.00840003
3.15813e-11
0.00840003
7.48203e-11
0.00840003
1.82637e-10
0.00840003
4.32938e-10
0.00840003
1.04991e-09
0.00840004
2.49552e-09
0.00840004
6.01982e-09
0.00840005
1.44045e-08
0.00840008
3.44236e-08
0.00840013
8.3044e-08
0.00840035
1.9682e-07
0.00840043
4.78694e-07
0.00840215
1.1267e-06
0.00840207
2.7538e-06
0.00841289
6.49097e-06
0.00841351
1.59438e-05
0.00846962
3.82292e-05
9.64159e-05
0.00852276
0.00840003
7.25366e-15
0.00840003
4.74888e-14
0.00840003
1.59028e-13
0.00840003
4.63435e-13
0.00840003
1.16352e-12
0.00840003
2.98314e-12
0.00840003
7.0942e-12
0.00840003
1.75502e-11
0.00840003
4.14334e-11
0.00840003
1.00899e-10
0.00840003
2.39833e-10
0.00840003
5.7508e-10
0.00840003
1.38488e-09
0.00840004
3.27468e-09
0.00840004
7.97184e-09
0.00840007
1.86468e-08
0.00840007
4.57522e-08
0.00840025
1.06522e-07
0.00840021
2.61567e-07
0.00840136
6.08687e-07
0.00840108
1.49398e-06
0.00840754
3.49375e-06
0.00840711
8.53258e-06
0.00843964
2.02902e-05
4.99792e-05
0.0084588
0.00840003
4.12992e-15
0.00840003
2.56247e-14
0.00840003
9.06211e-14
0.00840003
2.49398e-13
0.00840003
6.6299e-13
0.00840003
1.60416e-12
0.00840003
4.02843e-12
0.00840003
9.45083e-12
0.00840003
2.33957e-11
0.00840003
5.46648e-11
0.00840003
1.33855e-10
0.00840003
3.15011e-10
0.00840003
7.62137e-10
0.00840004
1.81297e-09
0.00840004
4.32908e-09
0.00840005
1.04282e-08
0.00840006
2.45866e-08
0.00840013
5.97912e-08
0.0084002
1.39717e-07
0.00840049
3.42656e-07
0.00840123
7.95214e-07
0.00840215
1.95583e-06
0.00840785
4.55762e-06
0.00841148
1.12008e-05
2.65474e-05
0.00844535
0.00840003
2.29626e-15
0.00840003
1.42466e-14
0.00840003
4.90585e-14
0.00840003
1.38847e-13
0.00840003
3.56004e-13
0.00840003
8.89356e-13
0.00840003
2.1665e-12
0.00840003
5.2121e-12
0.00840003
1.26113e-11
0.00840003
2.98986e-11
0.00840003
7.25012e-11
0.00840003
1.70478e-10
0.00840003
4.1506e-10
0.00840003
9.71917e-10
0.00840004
2.3698e-09
0.00840004
5.5467e-09
0.00840004
1.34908e-08
0.0084001
3.17398e-08
0.00840008
7.66168e-08
0.00840043
1.81659e-07
0.00840034
4.35171e-07
0.00840228
1.04115e-06
0.00840204
2.4728e-06
0.00841211
5.98211e-06
1.41927e-05
0.00841411
0.00840003
1.11077e-15
0.00840003
7.80821e-15
0.00840003
2.585e-14
0.00840003
7.56493e-14
0.00840003
1.89419e-13
0.00840003
4.846e-13
0.00840003
1.14798e-12
0.00840003
2.83953e-12
0.00840003
6.67888e-12
0.00840003
1.62091e-11
0.00840003
3.84607e-11
0.00840003
9.19411e-11
0.00840003
2.20588e-10
0.00840003
5.20819e-10
0.00840004
1.2591e-09
0.00840004
2.95209e-09
0.00840004
7.17818e-09
0.00840006
1.67229e-08
0.00840008
4.07767e-08
0.00840021
9.49125e-08
0.00840026
2.31104e-07
0.00840118
5.3971e-07
0.00840114
1.30447e-06
0.00840699
3.07605e-06
7.39194e-06
0.00840673
0.00840003
6.11842e-16
0.00840003
3.9433e-15
0.00840003
1.37695e-14
0.00840003
3.94542e-14
0.00840003
1.01973e-13
0.00840003
2.54802e-13
0.00840003
6.151e-13
0.00840003
1.49886e-12
0.00840003
3.54152e-12
0.00840003
8.61677e-12
0.00840003
2.01563e-11
0.00840003
4.90724e-11
0.00840003
1.14761e-10
0.00840003
2.77767e-10
0.00840003
6.54184e-10
0.00840003
1.56793e-09
0.00840004
3.72206e-09
0.00840004
8.84932e-09
0.00840008
2.11367e-08
0.00840008
4.98945e-08
0.00840026
1.19835e-07
0.00840041
2.8111e-07
0.00840109
6.78769e-07
0.00840266
1.58579e-06
3.83665e-06
0.00840495
0.00840003
3.13226e-16
0.00840003
2.1861e-15
0.00840003
7.44476e-15
0.00840003
2.05721e-14
0.00840003
5.45112e-14
0.00840003
1.32367e-13
0.00840003
3.27869e-13
0.00840003
7.81183e-13
0.00840003
1.87694e-12
0.00840003
4.49784e-12
0.00840003
1.06018e-11
0.00840003
2.56812e-11
0.00840003
5.9727e-11
0.00840003
1.46122e-10
0.00840003
3.36841e-10
0.00840003
8.28423e-10
0.00840004
1.90631e-09
0.00840004
4.66316e-09
0.00840006
1.08332e-08
0.00840005
2.61763e-08
0.00840017
6.1504e-08
0.00840018
1.46574e-07
0.00840077
3.49438e-07
0.00840101
8.20692e-07
1.98496e-06
0.00840354
0.00840003
1.91362e-16
0.00840003
1.033e-15
0.00840003
3.97981e-15
0.00840003
1.06877e-14
0.00840003
2.80381e-14
0.00840003
6.83984e-14
0.00840003
1.69979e-13
0.00840003
3.97795e-13
0.00840003
9.79476e-13
0.00840003
2.25931e-12
0.00840003
5.56022e-12
0.00840003
1.27737e-11
0.00840003
3.13483e-11
0.00840003
7.23575e-11
0.00840003
1.76001e-10
0.00840003
4.09686e-10
0.00840003
9.85978e-10
0.00840004
2.32599e-09
0.00840004
5.50456e-09
0.00840006
1.3183e-08
0.00840007
3.07491e-08
0.00840017
7.45921e-08
0.00840031
1.71958e-07
0.00840065
4.19992e-07
9.65717e-07
0.00840195
0.00840003
1.58022e-16
0.00840003
5.18411e-16
0.00840003
1.76191e-15
0.00840003
5.26895e-15
0.00840003
1.34453e-14
0.00840003
3.40363e-14
0.00840003
8.04613e-14
0.00840003
1.96666e-13
0.00840003
4.62866e-13
0.00840003
1.11041e-12
0.00840003
2.62219e-12
0.00840003
6.24899e-12
0.00840003
1.47614e-11
0.00840003
3.50021e-11
0.00840003
8.29371e-11
0.00840003
1.95683e-10
0.00840003
4.64855e-10
0.00840003
1.09144e-09
0.00840004
2.59677e-09
0.00840005
6.07968e-09
0.00840005
1.44773e-08
0.00840012
3.37711e-08
0.00840013
8.02423e-08
0.00840056
1.87439e-07
4.42625e-07
0.00840055
0.00840003
1.40946e-18
0.00840003
3.91668e-16
0.00840003
8.41205e-16
0.00840003
2.17182e-15
0.00840003
5.4833e-15
0.00840003
1.41726e-14
0.00840003
3.16633e-14
0.00840003
8.10792e-14
0.00840003
1.7935e-13
0.00840003
4.57163e-13
0.00840003
1.0093e-12
0.00840003
2.53452e-12
0.00840003
5.69153e-12
0.00840003
1.39314e-11
0.00840003
3.20712e-11
0.00840003
7.57646e-11
0.00840003
1.80642e-10
0.00840003
4.08349e-10
0.00840004
1.01202e-09
0.00840004
2.19643e-09
0.00840004
5.57182e-09
0.00840008
1.1834e-08
0.00840008
3.00963e-08
0.00840032
6.37544e-08
1.5939e-07
0.00840026
0.00840003
0.00840003
0.00840003
0.00840003
0.00840003
0.00840003
0.00840003
0.00840003
0.00840003
0.00840003
0.00840003
0.00840003
0.00840003
0.00840003
0.00840003
0.00840003
0.00840003
0.00840003
0.00840003
0.00840004
0.00840004
0.00840004
0.00840011
0.00840005
0.00840048
0.00476416
0.00406259
0.00314725
0.0016145
0.00245689
0.000688792
0.00218027
0.000275623
0.0021632
1.57012e-05
0.00235324
-0.000190853
0.00257203
-0.000219464
0.00269289
-0.000121684
0.00273288
-4.11526e-05
0.00272622
5.44715e-06
0.00270272
2.21856e-05
0.00268929
1.20254e-05
0.00268636
1.52542e-06
0.00269488
-1.00046e-05
0.00270661
-1.29914e-05
0.00271628
-1.10855e-05
0.00272237
-7.35581e-06
0.00272542
-4.33225e-06
0.00272679
-2.59494e-06
0.00272717
-1.50646e-06
0.00272785
-1.74119e-06
0.00272949
-2.73818e-06
0.00273216
-3.69346e-06
0.00273509
-3.93111e-06
0.00273769
-3.74071e-06
0.0027399
-3.41881e-06
0.00274161
-3.10557e-06
0.00274108
-2.32485e-06
0.00273957
-1.40302e-06
0.00273571
2.14799e-07
0.00272697
3.66836e-06
0.00270889
9.28972e-06
0.00267125
2.04524e-05
0.00258982
4.56304e-05
0.00240577
0.000107538
0.00194754
0.000282
0.000767304
0.000828779
-0.000336051
0.00104718
-0.000966569
0.000624858
-0.00127295
0.000302246
-0.00132852
6.08813e-05
-0.00117562
-0.000146318
-0.000877659
-0.00030951
-0.000504908
-0.000391293
-9.2026e-05
-0.000431529
0.000314546
-0.000424255
0.000683004
-0.000383059
0.0010224
-0.000350174
0.00133749
-0.000324136
0.00163117
-0.000301568
0.00190538
-0.000281203
0.00216011
-0.000260457
0.00239818
-0.000242801
0.00262832
-0.000231245
0.00285154
-0.000220612
0.00306536
-0.000207243
0.00326706
-0.000193901
0.00345718
-0.000181922
0.00363643
-0.000171775
0.00380419
-0.000162112
0.00396112
-0.000152911
0.00410763
-0.000143619
0.00424522
-0.000134687
0.00437448
-0.000125824
0.00449575
-0.000117394
0.00460915
-0.000109094
0.00471443
-0.000101274