/*--------------------------------*- C++ -*----------------------------------*\
  =========                 |
  \\      /  F ield         | OpenFOAM: The Open Source CFD Toolbox
   \\    /   O peration     | Website:  https://openfoam.org
    \\  /    A nd           | Version:  13
     \\/     M anipulation  |
\*---------------------------------------------------------------------------*/
FoamFile
{
    format      ascii;
    class       volScalarField;
    location    "2.5";
    object      T;
}
// * * * * * * * * * * * * * * * * * * * * * * * * * * * * * * * * * * * * * //

dimensions      [0 0 0 1 0 0 0];

internalField   nonuniform List<scalar> 
5250
(
1
1.00001
1.00004
1.00009
1.00025
1.00055
1.00154
1.00335
1.00938
1.02133
1.05735
1.14685
1.40002
2.01907
2.6477
2.77737
2.75268
2.74626
2.75916
2.77664
2.78822
2.79207
2.79597
2.79755
2.80979
1
1.00001
1.00004
1.00008
1.00025
1.00052
1.00155
1.00325
1.00919
1.02102
1.05622
1.14414
1.39237
2.00338
2.64206
2.7767
2.75145
2.74452
2.75727
2.77472
2.78642
2.79051
2.79464
2.79635
2.80869
1
1.00001
1.00004
1.00009
1.00024
1.00052
1.00146
1.00316
1.00887
1.02014
1.05412
1.13814
1.3763
1.9675
2.62832
2.77424
2.74787
2.73966
2.7522
2.76971
2.78244
2.78683
2.7907
2.79245
2.80494
1
1.00001
1.00003
1.00009
1.0002
1.00055
1.00124
1.00328
1.00781
1.0199
1.04981
1.13073
1.35196
1.91363
2.60578
2.76911
2.74169
2.73232
2.74501
2.76251
2.77498
2.78008
2.78596
2.78818
2.8006
1
1.00001
1.00003
1.00008
1.0002
1.00049
1.00121
1.00293
1.00752
1.01802
1.04664
1.1197
1.32309
1.84218
2.57271
2.76019
2.73225
2.72041
2.7328
2.75085
2.76548
2.77118
2.77636
2.7792
2.79303
1
1.00001
1.00003
1.00007
1.00018
1.00045
1.00114
1.00267
1.00703
1.01648
1.0431
1.1093
1.29455
1.77421
2.53292
2.74825
2.72112
2.7092
2.72093
2.73901
2.75295
2.76208
2.76717
2.76825
2.77937
1
1.00001
1.00002
1.00007
1.00015
1.00046
1.00094
1.00275
1.00591
1.01623
1.03839
1.1021
1.26951
1.71914
2.4889
2.73582
2.71273
2.70207
2.71147
2.72718
2.73949
2.7455
2.7519
2.75265
2.76244
1
1.00001
1.00002
1.00007
1.00014
1.00041
1.0009
1.00243
1.00565
1.01456
1.03575
1.09297
1.24679
1.66115
2.43046
2.71342
2.70397
2.69648
2.7007
2.71161
2.72394
2.72817
2.73057
2.72949
2.73343
1
1.00001
1.00002
1.00005
1.00015
1.00033
1.00093
1.00198
1.00562
1.01243
1.03361
1.08287
1.22386
1.59691
2.35405
2.68275
2.69559
2.68901
2.68908
2.69644
2.7055
2.7073
2.70532
2.69689
2.68687
1
1.00001
1.00002
1.00005
1.00012
1.00034
1.00071
1.00208
1.00438
1.01227
1.02837
1.07568
1.19699
1.53166
2.25543
2.64367
2.68672
2.67943
2.67431
2.67731
2.68129
2.67908
2.66877
2.6431
2.58614
1
1.00001
1.00002
1.00004
1.00012
1.00025
1.00074
1.00154
1.00438
1.0098
1.02618
1.06419
1.17195
1.46019
2.13242
2.59218
2.67635
2.6674
2.66009
2.65971
2.65823
2.64934
2.62573
2.5718
2.45648
1
1.00001
1.00002
1.00004
1.0001
1.00023
1.00058
1.00143
1.00346
1.00887
1.02136
1.05523
1.14305
1.38574
1.97959
2.52626
2.65937
2.64959
2.63895
2.63617
2.6307
2.61456
2.57784
2.50352
2.37007
1
1.00001
1.00001
1.00003
1.00007
1.00021
1.00044
1.00127
1.00272
1.00748
1.01723
1.04533
1.11463
1.30804
1.79868
2.44094
2.63166
2.62555
2.61588
2.60962
2.601
2.57999
2.53803
2.45692
2.33739
1
1
1.00001
1.00002
1.00007
1.00014
1.00042
1.00089
1.00248
1.00558
1.01472
1.03531
1.09233
1.24175
1.63765
2.3392
2.59264
2.59679
2.58966
2.57988
2.56815
2.5432
2.50298
2.42789
2.32276
1
1
1.00001
1.00002
1.00006
1.00012
1.00035
1.00073
1.00204
1.00455
1.01206
1.02874
1.07501
1.19552
1.52172
2.21024
2.54171
2.5748
2.56622
2.555
2.54055
2.51118
2.47367
2.40769
2.31445
1
1
1.00001
1.00002
1.00004
1.00011
1.00024
1.00066
1.00149
1.00391
1.00931
1.02362
1.0592
1.15541
1.41501
2.02817
2.46551
2.55355
2.54609
2.53167
2.516
2.48459
2.44605
2.39214
2.31217
1
1
1.00001
1.00001
1.00003
1.00008
1.00021
1.00046
1.0013
1.00278
1.00777
1.01748
1.04664
1.11707
1.31446
1.81049
2.36311
2.52227
2.52391
2.50899
2.49207
2.46269
2.42218
2.372
2.30676
1
1
1
1.00001
1.00002
1.00007
1.00014
1.0004
1.00087
1.00232
1.0054
1.01376
1.0336
1.08627
1.22499
1.58975
2.23051
2.47179
2.49313
2.4831
2.46485
2.44068
2.40425
2.35705
2.2979
1
1
1
1.00001
1.00002
1.00004
1.00012
1.00028
1.0007
1.00172
1.00413
1.01054
1.02531
1.06529
1.16857
1.44818
2.06318
2.40801
2.4657
2.45786
2.43938
2.41573
2.38446
2.34307
2.29203
1
1
1
1.00001
1.00001
1.00004
1.00008
1.00023
1.00048
1.00137
1.00293
1.00804
1.01847
1.04851
1.12248
1.32689
1.83301
2.30381
2.43172
2.43389
2.42015
2.3948
2.36448
2.32628
2.28168
1
1
1
1
1.00001
1.00002
1.00007
1.00014
1.00039
1.00087
1.00228
1.00538
1.01348
1.03316
1.08422
1.21862
1.57087
2.15812
2.37618
2.40242
2.39454
2.37361
2.34495
2.31169
2.27094
1
1
1
1
1.00001
1.00002
1.00004
1.00012
1.00026
1.00067
1.00161
1.00389
1.00979
1.02363
1.06034
1.15481
1.40891
1.97399
2.30676
2.37195
2.36783
2.35091
2.32386
2.29446
2.25917
1
1
1
1
1.00001
1.00001
1.00003
1.00007
1.00021
1.00043
1.00121
1.00262
1.00708
1.01628
1.04237
1.1059
1.27988
1.71718
2.19022
2.33073
2.34049
2.32937
2.30667
2.27738
2.24658
1
1
1
1
1
1.00001
1.00002
1.00006
1.00012
1.00033
1.00074
1.00194
1.00456
1.01137
1.02789
1.07024
1.18087
1.47387
2.0204
2.26626
2.30822
2.30326
2.28611
2.25968
2.22975
1
1
1
1
1
1.00001
1.00002
1.00003
1.00009
1.00021
1.00053
1.00129
1.0031
1.00784
1.01866
1.04759
1.12011
1.31565
1.78418
2.16551
2.27042
2.27765
2.26808
2.24624
2.21629
1
1
1
1
1
1
1.00001
1.00002
1.00006
1.00013
1.00037
1.00077
1.00223
1.00465
1.01286
1.02913
1.07667
1.19236
1.50356
2.00858
2.21203
2.246
2.2427
2.22614
2.20228
1
1
1
1
1
1
1.00001
1.00002
1.00004
1.00009
1.00024
1.00053
1.00143
1.00311
1.00851
1.01902
1.05038
1.12422
1.32789
1.79248
2.12503
2.21164
2.21859
2.21015
2.19003
1
1
1
1
1
1
1
1.00001
1.00002
1.00006
1.00014
1.00038
1.00079
1.00226
1.00473
1.01298
1.02947
1.0771
1.19271
1.50174
1.97291
2.15815
2.18881
2.18713
2.17212
1
1
1
1
1
1
1
1.00001
1.00001
1.00004
1.00009
1.00023
1.00055
1.00134
1.0033
1.00784
1.01975
1.04788
1.12296
1.31739
1.76366
2.07564
2.15668
2.16481
2.15704
1
1
1
1
1
1
1
1
1.00001
1.00003
1.00005
1.00015
1.00031
1.00089
1.00189
1.0051
1.01147
1.02963
1.07149
1.18427
1.47306
1.92145
2.10283
2.13521
2.13472
1
1
1
1
1
1
1
1
1.00001
1.00002
1.00004
1.00009
1.00022
1.0005
1.00133
1.00289
1.00781
1.0174
1.04574
1.11156
1.29213
1.70218
2.01649
2.10245
2.11322
1
1
1
1
1
1
1
1
1
1.00001
1.00002
1.00006
1.00012
1.00034
1.00071
1.00193
1.00426
1.01107
1.02584
1.06574
1.16404
1.42508
1.85207
2.04277
2.08092
1
1
1
1
1
1
1
1
1
1.00001
1.00001
1.00003
1.00008
1.00019
1.00044
1.00116
1.00254
1.00686
1.01511
1.03997
1.09574
1.25025
1.60899
1.94173
2.04568
1
1
1
1
1
1
1
1
1
1
1.00001
1.00002
1.00005
1.0001
1.00029
1.00061
1.00167
1.00363
1.0095
1.02201
1.05588
1.13834
1.35869
1.76008
1.97473
1
1
1
1
1
1
1
1
1
1
1
1.00001
1.00002
1.00007
1.00015
1.0004
1.00086
1.00228
1.00513
1.01301
1.03079
1.07737
1.19413
1.48591
1.8451
1
1
1
1
1
1
1
1
1
1
1
1.00001
1.00002
1.00004
1.00009
1.00023
1.00051
1.00134
1.00287
1.00781
1.01703
1.04507
1.10743
1.28035
1.63871
1
1
1
1
1
1
1
1
1
1
1
1
1.00001
1.00002
1.00005
1.00012
1.0003
1.00069
1.00179
1.00392
1.01037
1.02318
1.05999
1.14574
1.37357
1
1
1
1
1
1
1
1
1
1
1
1
1.00001
1.00001
1.00003
1.00007
1.00016
1.00043
1.00089
1.00248
1.00516
1.01403
1.03134
1.08121
1.20013
1
1
1
1
1
1
1
1
1
1
1
1
1
1.00001
1.00002
1.00004
1.0001
1.00022
1.00054
1.00128
1.00303
1.00753
1.01743
1.04413
1.10654
1
1
1
1
1
1
1
1
1
1
1
1
1
1
1.00001
1.00002
1.00005
1.00013
1.00029
1.0007
1.00167
1.0039
1.00974
1.02247
1.05662
1
1
1
1
1
1
1
1
1
1
1
1
1
1
1
1.00001
1.00003
1.00006
1.00016
1.00036
1.00094
1.00199
1.00541
1.01153
1.03053
1
1
1
1
1
1
1
1
1
1
1
1
1
1
1
1.00001
1.00002
1.00003
1.00009
1.00019
1.0005
1.00112
1.00277
1.00653
1.01566
1
1
1
1
1
1
1
1
1
1
1
1
1
1
1
1
1.00001
1.00002
1.00005
1.0001
1.00027
1.00056
1.00154
1.00317
1.00871
1
1
1
1
1
1
1
1
1
1
1
1
1
1
1
1
1
1.00001
1.00002
1.00006
1.00013
1.00031
1.00076
1.00171
1.00435
1
1
1
1
1
1
1
1
1
1
1
1
1
1
1
1
1
1.00001
1.00001
1.00003
1.00006
1.00017
1.00036
1.00095
1.00211
1
1
1
1
1
1
1
1
1
1
1
1
1
1
1
1
1
1
1.00001
1.00002
1.00003
1.00009
1.00018
1.00051
1.00104
1
1
1
1
1
1
1
1
1
1
1
1
1
1
1
1
1
1
1
1.00001
1.00002
1.00004
1.00011
1.00023
1.00059
1
1
1
1
1
1
1
1
1
1
1
1
1
1
1
1
1
1
1
1
1.00001
1.00002
1.00006
1.00013
1.00032
1
1
1
1
1
1
1
1
1
1
1
1
1
1
1
1
1
1
1
1
1.00001
1.00001
1.00003
1.00008
1.0002
1
1
1
1
1
1
1
1
1
1
1
1
1
1
1
1
1
1
1
1
1
1.00001
1.00003
1.00007
1.00015
2.2402
2.07395
2.02418
2.05684
2.12005
2.19477
2.26401
2.29656
2.30273
2.30063
2.29934
2.2996
2.3011
2.30424
2.30686
2.3095
2.31015
2.30996
2.30975
2.30931
2.3086
2.30804
2.30741
2.30652
2.30545
2.30446
2.3034
2.30365
2.30447
2.306
2.30982
2.31919
2.34082
2.38964
2.49624
2.70651
2.99766
3.16499
3.15546
3.17375
3.18578
3.21149
3.23357
3.23881
3.23852
3.2351
3.22801
3.21816
3.20599
3.19569
3.1814
3.16512
3.15016
3.13497
3.11678
3.10092
3.08162
3.06579
3.04546
3.02869
3.00882
2.99272
2.97355
2.95715
2.93747
2.92091
2.90128
2.88558
2.86682
2.85233
2.83466
2.82131
2.80478
2.79246
2.77699
2.76572
2.75119
2.74104
2.72741
2.71837
2.70558
2.69751
2.68545
2.67814
2.66668
2.6599
2.64878
2.6423
2.63122
2.62495
2.61363
2.60722
2.59558
2.58913
2.57738
2.57122
2.55993
2.55508
2.54673
2.54776
2.23409
2.13807
2.08579
2.05072
2.01504
1.98716
1.98038
1.98433
1.99803
2.01811
2.03174
2.03665
2.03626
2.03515
2.03437
2.03445
2.03473
2.03534
2.03606
2.03598
2.03584
2.03548
2.03471
2.03365
2.03271
2.03163
2.0309
2.03059
2.0309
2.03185
2.03484
2.04221
2.05954
2.09926
2.18913
2.39522
2.68515
2.99718
3.06996
3.11366
3.13712
3.13584
3.12014
3.09483
3.06173
3.03548
3.00612
2.98194
2.95555
2.9317
2.90494
2.8831
2.85914
2.83865
2.81347
2.79171
2.7685
2.74784
2.72502
2.70502
2.68308
2.6644
2.64363
2.62648
2.60635
2.5901
2.57024
2.55495
2.53562
2.52152
2.50282
2.48974
2.47171
2.45951
2.44238
2.43109
2.41504
2.40471
2.38967
2.38024
2.36616
2.35752
2.34438
2.33644
2.32419
2.31682
2.30543
2.2985
2.28794
2.28139
2.27164
2.26558
2.25654
2.25086
2.24236
2.23704
2.2293
2.2251
2.22002
2.22256
2.23498
2.14806
2.06901
1.99404
1.92434
1.87029
1.84496
1.84362
1.84769
1.86001
1.87555
1.88873
1.89529
1.89801
1.89765
1.89742
1.89694
1.89682
1.89685
1.89694
1.89696
1.89688
1.89662
1.8961
1.89519
1.89417
1.89358
1.89289
1.89308
1.89381
1.89559
1.90043
1.91211
1.93942
2.00288
2.14863
2.4019
2.77795
2.86538
2.92297
2.95065
2.94389
2.91542
2.88956
2.85821
2.83664
2.81026
2.79036
2.76537
2.74704
2.72405
2.70667
2.68439
2.6661
2.64213
2.62374
2.60215
2.58615
2.56614
2.55134
2.53125
2.5162
2.49565
2.48116
2.4613
2.44764
2.42875
2.41587
2.39837
2.38671
2.37051
2.3597
2.34396
2.33322
2.31749
2.30671
2.29124
2.28075
2.2658
2.25576
2.24144
2.23197
2.21825
2.20944
2.19651
2.18836
2.17623
2.16859
2.15717
2.14985
2.13902
2.13212
2.12186
2.11553
2.10586
2.10024
2.09131
2.08702
2.08032
2.08165
2.22868
2.14266
2.06119
1.98734
1.92168
1.86834
1.82669
1.79725
1.78135
1.77794
1.7795
1.7859
1.79491
1.80399
1.80847
1.81047
1.81003
1.80945
1.80833
1.80736
1.80687
1.80671
1.80661
1.80638
1.80579
1.80513
1.80376
1.80261
1.80257
1.80284
1.80374
1.80673
1.81426
1.83219
1.87412
1.96908
2.19404
2.49145
2.70321
2.81208
2.81908
2.80338
2.76594
2.7293
2.696
2.66886
2.64434
2.62914
2.60865
2.5908
2.56874
2.55229
2.53183
2.51818
2.4986
2.48434
2.46445
2.45072
2.43214
2.41995
2.40325
2.39226
2.3766
2.36635
2.35144
2.3416
2.32667
2.31646
2.30118
2.29087
2.27602
2.26644
2.25255
2.24374
2.23039
2.22178
2.20845
2.1998
2.18642
2.17774
2.16442
2.1559
2.14282
2.13461
2.12185
2.11404
2.10164
2.09425
2.0822
2.07516
2.06338
2.05667
2.04516
2.03894
2.02773
2.0222
2.01154
2.0072
1.99848
1.99864
2.22271
2.14003
2.06364
1.99332
1.92995
1.87291
1.82343
1.7821
1.7504
1.73022
1.72262
1.72269
1.72457
1.73013
1.73688
1.74317
1.74668
1.74886
1.74882
1.74865
1.74826
1.74745
1.74693
1.74646
1.74607
1.74586
1.74534
1.7449
1.7445
1.74468
1.74531
1.7473
1.7523
1.76447
1.79283
1.85834
2.00703
2.27879
2.61189
2.74293
2.73888
2.71298
2.65926
2.60661
2.56249
2.52813
2.49679
2.4755
2.46097
2.45049
2.43581
2.42452
2.40805
2.39802
2.38508
2.37682
2.36239
2.35125
2.33636
2.32688
2.31337
2.30422
2.29084
2.28222
2.26974
2.26176
2.24942
2.24129
2.22875
2.22068
2.20839
2.20074
2.18873
2.18121
2.16906
2.1614
2.14904
2.14137
2.12914
2.12185
2.10984
2.10281
2.0909
2.08404
2.07221
2.06563
2.05396
2.0477
2.03617
2.03014
2.01864
2.01268
2.00124
1.99527
1.98411
1.97817
1.96759
1.96223
1.95343
1.95185
2.22535
2.14438
2.07015
2.00196
1.93985
1.88392
1.83428
1.79077
1.75441
1.72487
1.70217
1.68798
1.68197
1.68199
1.6833
1.68739
1.69271
1.69825
1.70156
1.7035
1.70338
1.70306
1.7024
1.70114
1.6998
1.6991
1.69808
1.69757
1.69714
1.69728
1.69783
1.69931
1.70321
1.71258
1.73413
1.78367
1.89351
2.1477
2.42771
2.70548
2.70256
2.65121
2.56865
2.49864
2.44783
2.40919
2.38156
2.36074
2.34529
2.33418
2.32792
2.32387
2.31891
2.31394
2.30483
2.29904
2.28952
2.28225
2.27112
2.26437
2.25376
2.2469
2.2362
2.22951
2.21869
2.21155
2.1999
2.19218
2.18034
2.17288
2.16159
2.15481
2.14397
2.13757
2.12672
2.12024
2.10918
2.10271
2.09162
2.08533
2.07421
2.06799
2.05667
2.05039
2.03887
2.0326
2.02106
2.0149
2.00349
1.99731
1.98606
1.97971
1.96862
1.96204
1.95119
1.9445
1.93416
1.92783
1.91914
1.91638
2.23089
2.15451
2.08257
2.01701
1.95561
1.90057
1.84969
1.80493
1.76443
1.72983
1.70059
1.67693
1.66015
1.65036
1.64687
1.6469
1.64808
1.65131
1.65529
1.65902
1.66121
1.66239
1.66233
1.66217
1.66169
1.66103
1.66008
1.6592
1.65906
1.65919
1.65966
1.66115
1.66491
1.67364
1.6934
1.73736
1.83164
2.03721
2.27723
2.57664
2.58055
2.54525
2.49248
2.42575
2.36793
2.33057
2.30139
2.28208
2.26888
2.26152
2.25681
2.25449
2.25477
2.2541
2.25199
2.24816
2.24293
2.23897
2.23073
2.22497
2.21538
2.20916
2.19928
2.19307
2.18288
2.17649
2.1659
2.15932
2.14867
2.14219
2.1316
2.12524
2.11456
2.10814
2.09723
2.09074
2.07967
2.07329
2.06225
2.05615
2.0452
2.03929
2.02834
2.02242
2.01146
2.00546
1.99467
1.98862
1.97815
1.97205
1.96182
1.95555
1.94545
1.93892
1.92899
1.9223
1.91267
1.90634
1.89797
1.89513
2.23121
2.16238
2.09493
2.03169
1.97267
1.91796
1.86803
1.82202
1.78103
1.74376
1.71155
1.6837
1.66097
1.64271
1.62994
1.62247
1.61972
1.61977
1.62079
1.62357
1.62709
1.6306
1.63288
1.63388
1.63366
1.63321
1.63229
1.63094
1.63053
1.63065
1.6313
1.63337
1.63853
1.65032
1.67642
1.73222
1.84413
2.01731
2.17892
2.33343
2.43905
2.45058
2.43129
2.40003
2.3497
2.31387
2.27682
2.24999
2.23106
2.21962
2.21281
2.2086
2.20545
2.20513
2.2057
2.20511
2.20304
2.20103
2.19714
2.19325
2.185
2.17926
2.16947
2.1633
2.15301
2.14663
2.1363
2.13003
2.1197
2.1134
2.10288
2.09646
2.08574
2.07933
2.0685
2.06212
2.05122
2.04502
2.03425
2.02839
2.01779
2.01208
2.00149
1.99569
1.98509
1.97919
1.96877
1.96289
1.95276
1.94696
1.93703
1.93121
1.92139
1.91537
1.90562
1.89949
1.88992
1.88422
1.87582
1.87361
2.23195
2.16949
2.10705
2.04704
1.99038
1.93726
1.88803
1.84245
1.80071
1.76275
1.72839
1.69795
1.67104
1.64828
1.62962
1.61505
1.60529
1.59997
1.59833
1.59846
1.5994
1.60177
1.60437
1.60674
1.60824
1.60902
1.6092
1.60906
1.60914
1.60955
1.61098
1.61475
1.62367
1.64364
1.68688
1.77948
1.92262
2.04655
2.11642
2.18722
2.26358
2.33347
2.36145
2.34933
2.33214
2.30771
2.27222
2.24412
2.21714
2.19774
2.18386
2.17498
2.1689
2.16538
2.16297
2.16306
2.16336
2.16273
2.16102
2.15888
2.15402
2.14939
2.13997
2.13401
2.12396
2.11797
2.10819
2.10244
2.09251
2.08654
2.0763
2.0702
2.0597
2.05345
2.04272
2.03645
2.02566
2.01949
2.00873
2.00275
1.99214
1.98635
1.97594
1.97019
1.95994
1.95416
1.94411
1.93838
1.92851
1.92292
1.91322
1.9077
1.89819
1.89267
1.8833
1.87781
1.86857
1.86343
1.85516
1.85335
2.22955
2.1734
2.11623
2.05993
2.00628
1.95513
1.90742
1.86265
1.82128
1.78293
1.74798
1.71598
1.68743
1.66186
1.63986
1.62113
1.60621
1.59436
1.58673
1.58243
1.58127
1.58145
1.58237
1.58453
1.58724
1.58973
1.59145
1.59241
1.59315
1.59472
1.59818
1.60579
1.62246
1.65835
1.73888
1.86554
1.99769
2.05824
2.08179
2.10484
2.13708
2.18182
2.23342
2.26397
2.28218
2.2716
2.25799
2.24017
2.21211
2.19024
2.16905
2.15285
2.14139
2.13483
2.12928
2.12675
2.12551
2.12512
2.12478
2.12387
2.12166
2.11913
2.11353
2.10892
2.09962
2.0937
2.08379
2.07817
2.0684
2.06266
2.05267
2.04697
2.03693
2.03121
2.02089
2.01493
2.00429
1.99823
1.98762
1.98176
1.97145
1.96573
1.95563
1.94974
1.93966
1.93364
1.92373
1.91798
1.90845
1.9031
1.89384
1.88857
1.87931
1.8739
1.86458
1.85915
1.84994
1.84493
1.8367
1.83496
2.22554
2.17491
2.12308
2.07102
2.02021
1.97182
1.92561
1.88237
1.84181
1.80391
1.76889
1.73636
1.70675
1.67962
1.65543
1.63379
1.61523
1.5994
1.58693
1.57715
1.57104
1.56762
1.56689
1.5671
1.56796
1.56982
1.57229
1.57496
1.57778
1.5816
1.58874
1.60365
1.635
1.70408
1.82159
1.96457
2.03815
2.05739
2.06053
2.06167
2.06756
2.0816
2.10814
2.14012
2.17692
2.20052
2.21558
2.2062
2.19663
2.18282
2.15962
2.14391
2.12776
2.11497
2.10533
2.09967
2.09412
2.09157
2.09047
2.09003
2.08919
2.08816
2.086
2.08283
2.07566
2.07009
2.06025
2.05451
2.04479
2.0394
2.02983
2.02461
2.01496
2.00956
1.99947
1.99367
1.98324
1.97727
1.96688
1.96098
1.95094
1.9452
1.93557
1.92989
1.92042
1.91464
1.9051
1.89934
1.8899
1.88442
1.87526
1.87002
1.86101
1.85578
1.84671
1.84142
1.8324
1.82752
1.81944
1.81789
2.21734
2.17328
2.1259
2.07845
2.03137
1.98513
1.94155
1.89901
1.85996
1.82231
1.78789
1.75514
1.72518
1.69716
1.67169
1.64834
1.62757
1.60903
1.59331
1.5799
1.56961
1.56143
1.55651
1.55388
1.55374
1.5542
1.55563
1.55881
1.56378
1.57141
1.58522
1.61336
1.67167
1.78276
1.92893
2.02065
2.04545
2.04788
2.04253
2.03535
2.02889
2.02605
2.02787
2.03859
2.06032
2.08839
2.12079
2.14236
2.15689
2.15139
2.14551
2.13555
2.11697
2.10271
2.08903
2.07862
2.0692
2.06377
2.05933
2.05692
2.05539
2.05451
2.05284
2.0511
2.04719
2.04331
2.03493
2.02999
2.02085
2.01588
2.00661
2.0016
1.9922
1.98703
1.97727
1.97163
1.96156
1.95583
1.94613
1.9407
1.93145
1.92599
1.91671
1.91091
1.90143
1.89549
1.88603
1.88033
1.87113
1.86585
1.85694
1.85195
1.84318
1.83825
1.82946
1.82445
1.81558
1.81088
1.80276
1.8013
2.2103
2.16993
2.1275
2.08331
2.04041
1.99733
1.95589
1.91581
1.87741
1.84113
1.80665
1.77452
1.74417
1.71617
1.68984
1.66584
1.64341
1.62349
1.60506
1.58947
1.57533
1.56439
1.55501
1.54886
1.54494
1.54467
1.54548
1.54806
1.55393
1.56615
1.59097
1.64143
1.74291
1.8867
1.99812
2.03616
2.04261
2.03613
2.02659
2.01445
1.99968
1.98767
1.98055
1.98012
1.98247
1.99317
2.01446
2.0384
2.065
2.08637
2.09847
2.09916
2.0954
2.08771
2.0755
2.06346
2.0514
2.04245
2.03343
2.0277
2.02274
2.02007
2.0185
2.01776
2.01624
2.01407
2.00903
2.00502
1.99674
1.99186
1.98257
1.97736
1.96793
1.96285
1.95371
1.94878
1.93958
1.93416
1.92464
1.91891
1.90955
1.90402
1.89502
1.88957
1.88053
1.87493
1.86571
1.86023
1.85119
1.84619
1.83751
1.83288
1.82434
1.8197
1.81108
1.80643
1.7977
1.79342
1.78539
1.78415
2.19879
2.16297
2.12584
2.086
2.04516
2.00564
1.96635
1.92845
1.89178
1.8567
1.8231
1.79152
1.76133
1.7333
1.70663
1.68226
1.65891
1.63833
1.61828
1.60141
1.58506
1.57188
1.55966
1.55062
1.54345
1.54134
1.5422
1.54555
1.55414
1.57345
1.61459
1.70157
1.83975
1.96755
2.02265
2.03515
2.02905
2.01983
2.00731
1.99237
1.97604
1.96135
1.94911
1.93988
1.93542
1.93369
1.9354
1.94421
1.96212
1.9835
2.00792
2.02999
2.04375
2.05271
2.0482
2.04397
2.03604
2.02533
2.01321
2.00555
1.99761
1.99272
1.9882
1.98595
1.98413
1.98278
1.97974
1.97678
1.97057
1.9666
1.95861
1.95431
1.94573
1.9407
1.93129
1.92575
1.91632
1.91098
1.90194
1.89678
1.88796
1.88282
1.87409
1.86898
1.86017
1.85494
1.84585
1.84058
1.83142
1.8265
1.81775
1.81334
1.80501
1.80078
1.79235
1.78804
1.77942
1.77537
1.76751
1.76642
2.18766
2.15647
2.1226
2.08689
2.04991
2.01185
1.9756
1.93928
1.90452
1.87082
1.83845
1.80717
1.77797
1.7495
1.72318
1.69831
1.67453
1.65344
1.63239
1.61458
1.59674
1.58208
1.56771
1.55687
1.54745
1.54495
1.54643
1.55186
1.56599
1.59828
1.67076
1.79372
1.93086
2.00345
2.02386
2.02031
2.0107
1.99901
1.98484
1.96808
1.9522
1.93722
1.92366
1.9112
1.90032
1.89219
1.88801
1.88717
1.88891
1.8959
1.91101
1.93026
1.95187
1.97301
1.99151
2.00168
2.00665
2.00333
1.99809
1.99193
1.98108
1.97267
1.9642
1.9591
1.95377
1.95206
1.95039
1.94883
1.94529
1.94206
1.9352
1.93095
1.92248
1.91784
1.90908
1.90403
1.89492
1.88965
1.88064
1.87561
1.86695
1.8621
1.85349
1.84861
1.83991
1.83502
1.82618
1.82128
1.81235
1.80749
1.79874
1.79427
1.78598
1.78188
1.77374
1.76963
1.76134
1.75734
1.74951
1.74837
2.17505
2.14672
2.11602
2.08367
2.05078
2.0161
1.98067
1.94744
1.91349
1.88131
1.85071
1.81992
1.79206
1.76408
1.73812
1.71344
1.68942
1.66792
1.6463
1.62782
1.60879
1.59341
1.57736
1.56562
1.55566
1.55505
1.55807
1.56772
1.59217
1.64781
1.75865
1.89905
1.98374
2.01067
2.01003
2.00234
1.98987
1.97643
1.9593
1.94348
1.92839
1.91423
1.89995
1.8867
1.87468
1.86422
1.85529
1.84805
1.8435
1.84094
1.8421
1.84679
1.85939
1.87643
1.89829
1.9214
1.9422
1.95762
1.9667
1.96601
1.96325
1.95858
1.94831
1.93985
1.93102
1.9259
1.92015
1.91789
1.91516
1.91337
1.90956
1.90645
1.89993
1.8959
1.88777
1.88311
1.87432
1.86928
1.86039
1.85548
1.84693
1.84241
1.83408
1.82957
1.82104
1.81632
1.80756
1.80279
1.7941
1.78949
1.78097
1.77654
1.76829
1.76408
1.75608
1.75208
1.74404
1.74021
1.73256
1.73121
2.1638
2.13696
2.10986
2.08012
2.04905
2.01808
1.98557
1.95235
1.92275
1.88938
1.86144
1.83124
1.80352
1.77737
1.75048
1.72767
1.70251
1.68207
1.65948
1.64095
1.62145
1.60475
1.58934
1.57566
1.56994
1.57135
1.57774
1.59562
1.63881
1.73294
1.8719
1.96959
2.00221
2.0058
1.99598
1.98483
1.96783
1.95084
1.933
1.91821
1.90405
1.89067
1.87823
1.86595
1.85402
1.84191
1.83035
1.81974
1.81022
1.80344
1.79776
1.79593
1.79691
1.79989
1.80883
1.82451
1.84481
1.86808
1.89181
1.91246
1.92519
1.93209
1.92966
1.92437
1.91697
1.90925
1.89854
1.89263
1.88676
1.88494
1.88136
1.87918
1.87456
1.87125
1.86451
1.86056
1.85262
1.84821
1.83986
1.83523
1.8268
1.82228
1.81412
1.80988
1.80173
1.79732
1.78887
1.7842
1.77565
1.77111
1.76292
1.75866
1.75085
1.74677
1.73896
1.73504
1.72719
1.72346
1.71621
1.71481
2.14947
2.12452
2.09926
2.07291
2.04464
2.01509
1.98798
1.95535
1.92675
1.8976
1.86744
1.84188
1.81262
1.78868
1.76209
1.73896
1.71584
1.69341
1.67344
1.65237
1.63495
1.61627
1.60214
1.58999
1.58901
1.59354
1.60696
1.64072
1.71994
1.85035
1.9592
2.00109
2.00506
1.99591
1.98082
1.96462
1.9444
1.92763
1.91033
1.8964
1.88248
1.86993
1.85684
1.84406
1.83118
1.81927
1.80753
1.79651
1.78574
1.77562
1.76666
1.75893
1.75272
1.75009
1.75061
1.75271
1.75984
1.77494
1.7945
1.8189
1.84334
1.8678
1.88537
1.89665
1.89546
1.89205
1.88689
1.87846
1.86833
1.86292
1.85653
1.85366
1.84869
1.84596
1.84031
1.83687
1.83003
1.82629
1.81887
1.81495
1.80726
1.80303
1.79503
1.79065
1.78266
1.77829
1.77018
1.76563
1.75736
1.75275
1.74472
1.74049
1.73292
1.72915
1.72175
1.71803
1.71054
1.70683
1.69976
1.69849
2.13835
2.11341
2.08906
2.06486
2.0404
2.01218
1.986
1.95901
1.92946
1.90294
1.87495
1.84783
1.82294
1.79629
1.77378
1.74853
1.7275
1.70464
1.68449
1.66471
1.64552
1.62962
1.61427
1.60991
1.61317
1.62359
1.65041
1.71733
1.83596
1.95583
2.00709
2.01247
2.00088
1.98614
1.96591
1.94603
1.92482
1.90839
1.89126
1.87744
1.86183
1.84771
1.83394
1.82129
1.80963
1.79777
1.78653
1.77481
1.76368
1.75222
1.74149
1.73126
1.72274
1.71569
1.71088
1.70873
1.70851
1.70975
1.71473
1.72676
1.74496
1.7679
1.79655
1.82493
1.84841
1.86517
1.86597
1.86309
1.85791
1.84941
1.83924
1.83338
1.82595
1.82217
1.81646
1.81353
1.80781
1.80464
1.79834
1.79493
1.78805
1.78437
1.77697
1.77277
1.76477
1.76023
1.7522
1.74773
1.73979
1.73533
1.72745
1.72317
1.71559
1.71176
1.70459
1.70103
1.69391
1.69048
1.68357
1.68228
2.12176
2.10077
2.07694
2.05306
2.03134
2.00663
1.98102
1.95675
1.93145
1.90488
1.87981
1.85427
1.82887
1.80537
1.78072
1.75921
1.73571
1.71601
1.69398
1.67589
1.657
1.64152
1.63295
1.63392
1.64263
1.66523
1.71927
1.83258
1.95883
2.01936
2.02616
2.0151
1.99662
1.97627
1.95132
1.92974
1.90916
1.89283
1.87551
1.86051
1.84388
1.82999
1.81559
1.80285
1.78997
1.77792
1.76558
1.75372
1.74164
1.73046
1.71956
1.71001
1.70072
1.69246
1.68423
1.67672
1.67079
1.66628
1.66484
1.66592
1.66998
1.68103
1.69838
1.72279
1.75353
1.78484
1.81487
1.83416
1.83577
1.83286
1.82787
1.81982
1.80982
1.80401
1.79626
1.79228
1.78636
1.7833
1.77753
1.77443
1.76835
1.76508
1.75849
1.75492
1.74775
1.74363
1.73575
1.73122
1.72329
1.71888
1.71117
1.70697
1.69947
1.69555
1.68833
1.68481
1.67782
1.67457
1.66806
1.66681
2.1067
2.08946
2.06789
2.04352
2.02303
2.00076
1.97774
1.95385
1.92978
1.90653
1.88113
1.85802
1.83392
1.8103
1.78819
1.76504
1.7447
1.72294
1.70433
1.68443
1.66909
1.65651
1.65663
1.66371
1.68308
1.72862
1.83087
1.96508
2.03579
2.04569
2.0333
2.01561
1.99137
1.96565
1.93899
1.91749
1.89659
1.87955
1.86101
1.84617
1.82996
1.81659
1.80112
1.78723
1.77256
1.75927
1.74628
1.7343
1.72284
1.71192
1.70151
1.69107
1.681
1.6707
1.66105
1.65158
1.64319
1.63565
1.63022
1.62569
1.62469
1.62562
1.6288
1.63742
1.65411
1.67835
1.71161
1.74591
1.78214
1.80367
1.80647
1.80391
1.79893
1.79115
1.78121
1.77512
1.76696
1.7627
1.75648
1.75332
1.74777
1.74493
1.73929
1.73622
1.72999
1.7265
1.71943
1.71524
1.7074
1.70288
1.69514
1.69092
1.68352
1.67969
1.67254
1.66901
1.66214
1.6589
1.65271
1.6517
2.08409
2.074
2.05698
2.03359
2.01218
1.99212
1.97106
1.94996
1.92763
1.90532
1.88303
1.85966
1.83753
1.81496
1.79283
1.77176
1.75011
1.73113
1.71084
1.69514
1.68066
1.67876
1.68484
1.70146
1.74154
1.83063
1.96927
2.05294
2.06705
2.05591
2.03608
2.01212
1.98229
1.95528
1.92978
1.90858
1.88725
1.86901
1.85016
1.83443
1.81717
1.8024
1.78605
1.77159
1.75648
1.74251
1.72908
1.71642
1.70455
1.69311
1.68217
1.67145
1.66102
1.65089
1.641
1.6316
1.62241
1.61385
1.60546
1.59823
1.59208
1.58709
1.58614
1.58699
1.58964
1.59791
1.61477
1.63938
1.67519
1.71351
1.75296
1.77457
1.77779
1.77521
1.76985
1.76212
1.75283
1.74691
1.73889
1.73472
1.7285
1.72554
1.72004
1.71724
1.71163
1.70854
1.70222
1.69863
1.69135
1.68701
1.67923
1.67496
1.66755
1.66377
1.6568
1.65333
1.64667
1.64345
1.63728
1.63653
2.06212
2.05852
2.04522
2.02523
2.00364
1.98376
1.96378
1.94361
1.92325
1.90222
1.88143
1.86078
1.83904
1.81794
1.79725
1.77614
1.75636
1.73672
1.71968
1.7039
1.70057
1.70592
1.7204
1.75609
1.83284
1.97347
2.07022
2.09057
2.07961
2.06141
2.03425
2.00396
1.97352
1.9478
1.92293
1.90143
1.87982
1.86111
1.84168
1.82466
1.80609
1.79035
1.77285
1.75858
1.74264
1.72901
1.71462
1.70184
1.68913
1.67736
1.66562
1.65445
1.64346
1.63304
1.62287
1.61302
1.60332
1.59381
1.58468
1.576
1.56807
1.56133
1.5557
1.55159
1.55108
1.55194
1.55437
1.5621
1.5784
1.60245
1.63979
1.68324
1.72514
1.74466
1.74917
1.74677
1.74177
1.73386
1.72518
1.71967
1.71191
1.70775
1.70153
1.69858
1.69285
1.68996
1.68417
1.68101
1.67461
1.67097
1.6637
1.65953
1.65211
1.64819
1.64125
1.63783
1.63131
1.62829
1.62222
1.62156
2.02824
2.03608
2.03048
2.01564
1.99565
1.97587
1.95747
1.93823
1.91927
1.89966
1.87945
1.85964
1.83983
1.81938
1.79973
1.78048
1.76089
1.74365
1.72805
1.72183
1.72605
1.73968
1.7717
1.84079
1.97854
2.08825
2.11505
2.10568
2.08557
2.05758
2.02429
1.99424
1.96577
1.94141
1.91716
1.89608
1.87408
1.85474
1.83418
1.81618
1.79698
1.78027
1.76215
1.74682
1.73035
1.71677
1.70218
1.68891
1.67521
1.66226
1.64992
1.63822
1.62718
1.6164
1.60598
1.59572
1.58574
1.57609
1.56676
1.55787
1.54939
1.54148
1.53406
1.5278
1.52206
1.51809
1.51708
1.51782
1.52002
1.52742
1.54348
1.56932
1.60695
1.65441
1.70034
1.71653
1.7211
1.71873
1.71422
1.70643
1.69812
1.69289
1.68529
1.68129
1.67515
1.67209
1.66623
1.66325
1.65726
1.65404
1.64757
1.64395
1.63699
1.63313
1.6262
1.62268
1.6162
1.61325
1.60732
1.60686
1.98481
2.01153
2.01251
2.00379
1.98695
1.96684
1.94801
1.93011
1.91185
1.89404
1.87554
1.85648
1.83817
1.81933
1.80035
1.78216
1.76517
1.74962
1.74234
1.74546
1.75831
1.78854
1.85758
1.98297
2.10166
2.1366
2.12951
2.11046
2.07997
2.04693
2.01456
1.98652
1.9596
1.9359
1.91216
1.89047
1.86816
1.84803
1.82723
1.80861
1.78879
1.7712
1.75247
1.73658
1.71944
1.70516
1.68953
1.67637
1.66216
1.64945
1.63633
1.62419
1.61217
1.60082
1.58973
1.57917
1.56895
1.55913
1.54974
1.54065
1.53214
1.52383
1.51615
1.50876
1.50183
1.49596
1.49023
1.48652
1.48517
1.48578
1.48786
1.49506
1.51046
1.53953
1.57982
1.626
1.67513
1.69025
1.69416
1.69165
1.68714
1.68033
1.67251
1.66727
1.65972
1.65579
1.64956
1.64635
1.64033
1.63724
1.63113
1.62791
1.6216
1.61823
1.61168
1.60824
1.60178
1.59884
1.5929
1.59256
1.90269
1.98024
1.99378
1.99097
1.97919
1.9609
1.94148
1.92306
1.9056
1.88782
1.87026
1.85258
1.83442
1.81712
1.79997
1.78346
1.76874
1.76095
1.76332
1.77588
1.80493
1.87256
1.99065
2.11862
2.16039
2.15457
2.13474
2.10469
2.06932
2.03731
2.00663
1.97998
1.95412
1.93109
1.90709
1.8852
1.86247
1.84212
1.82087
1.80169
1.78144
1.76338
1.74427
1.72769
1.70995
1.69517
1.67904
1.66565
1.65103
1.6382
1.62457
1.61196
1.59946
1.58767
1.57636
1.56542
1.55498
1.54487
1.53524
1.52597
1.51701
1.50846
1.50007
1.49219
1.48439
1.47725
1.47023
1.46439
1.45884
1.45497
1.45428
1.45503
1.45749
1.46522
1.48211
1.51167
1.55794
1.60441
1.65022
1.66486
1.66836
1.66577
1.6608
1.65446
1.64703
1.64202
1.63468
1.63074
1.62461
1.62145
1.61555
1.6125
1.60648
1.6034
1.59736
1.59428
1.58808
1.58519
1.57923
1.57881
1.74078
1.91958
1.96201
1.97003
1.96526
1.95229
1.93432
1.91684
1.89969
1.88335
1.86624
1.84947
1.83253
1.81543
1.79933
1.78503
1.77698
1.77899
1.79162
1.81988
1.8846
2.00044
2.13834
2.18649
2.18124
2.16049
2.12786
2.09251
2.05794
2.02749
1.99884
1.97398
1.94895
1.92554
1.90116
1.8789
1.85617
1.83575
1.81436
1.79486
1.77414
1.75545
1.73601
1.71902
1.70134
1.68616
1.66967
1.6558
1.64035
1.62742
1.61329
1.60084
1.58764
1.57556
1.56354
1.55237
1.54146
1.53116
1.52117
1.51165
1.50246
1.49362
1.48512
1.47683
1.46893
1.46119
1.45391
1.44696
1.44044
1.43493
1.42987
1.42617
1.42611
1.42691
1.42975
1.43788
1.4558
1.48667
1.53463
1.58431
1.62673
1.63917
1.64279
1.64027
1.63566
1.6298
1.62272
1.61812
1.61099
1.60719
1.60114
1.59793
1.59206
1.58896
1.58308
1.58015
1.57438
1.5717
1.56611
1.56563
1.491
1.80809
1.92447
1.94755
1.94912
1.94189
1.92765
1.90952
1.89268
1.87647
1.86064
1.84489
1.82902
1.81414
1.79986
1.79133
1.79312
1.80582
1.83368
1.89826
2.01195
2.15297
2.20734
2.20376
2.18272
2.1511
2.11346
2.07934
2.04727
2.01968
1.99313
1.96873
1.94317
1.91922
1.89472
1.8726
1.84998
1.82934