/*--------------------------------*- C++ -*----------------------------------*\
  =========                 |
  \\      /  F ield         | OpenFOAM: The Open Source CFD Toolbox
   \\    /   O peration     | Website:  https://openfoam.org
    \\  /    A nd           | Version:  13
     \\/     M anipulation  |
\*---------------------------------------------------------------------------*/
FoamFile
{
    format      ascii;
    class       volVectorField;
    location    "2.5";
    object      U;
}
// * * * * * * * * * * * * * * * * * * * * * * * * * * * * * * * * * * * * * //

dimensions      [0 1 -1 0 0 0 0];

internalField   nonuniform List<vector> 
5250
(
(3 1.9163e-08 0)
(2.99999 3.07227e-08 0)
(2.99997 3.30906e-07 0)
(2.99992 3.44474e-07 0)
(2.9998 2.4321e-06 0)
(2.99951 2.99583e-06 0)
(2.9988 1.55968e-05 0)
(2.99701 2.14152e-05 0)
(2.9926 9.28252e-05 0)
(2.9815 0.000158561 0)
(2.95282 0.000516755 0)
(2.87435 0.00120217 0)
(2.64723 0.00344687 0)
(1.96897 0.00979228 0)
(0.908833 0.0276248 0)
(0.391186 0.0253998 0)
(0.522321 0.0250625 0)
(0.557396 0.026648 0)
(0.497666 0.028319 0)
(0.402927 0.0301014 0)
(0.319226 0.031781 0)
(0.253448 0.0336027 0)
(0.187461 0.035952 0)
(0.112582 0.0394494 0)
(0.0520086 0.0450564 0)
(3 3.65565e-08 0)
(2.99999 2.21484e-07 0)
(2.99997 7.85389e-07 0)
(2.99992 2.18298e-06 0)
(2.99981 5.87812e-06 0)
(2.99952 1.46768e-05 0)
(2.99881 3.75261e-05 0)
(2.99708 9.21318e-05 0)
(2.99272 0.000232352 0)
(2.98186 0.000575519 0)
(2.95369 0.00146232 0)
(2.87679 0.00381386 0)
(2.65432 0.0105242 0)
(1.98853 0.0303535 0)
(0.920724 0.0841954 0)
(0.389571 0.0735286 0)
(0.524211 0.0688777 0)
(0.56116 0.0710454 0)
(0.502313 0.0737347 0)
(0.408592 0.0769863 0)
(0.325033 0.0794994 0)
(0.258206 0.0819299 0)
(0.190093 0.0848753 0)
(0.112174 0.0887148 0)
(0.0494707 0.0933189 0)
(3 4.69918e-08 0)
(2.99999 4.18397e-07 0)
(2.99997 1.18946e-06 0)
(2.99992 4.03597e-06 0)
(2.99981 8.9928e-06 0)
(2.99954 2.67089e-05 0)
(2.99886 5.54707e-05 0)
(2.99717 0.00016842 0)
(2.99301 0.00034194 0)
(2.98253 0.00101326 0)
(2.95552 0.00229871 0)
(2.88192 0.00637553 0)
(2.66944 0.0172555 0)
(2.03228 0.050458 0)
(0.95021 0.141939 0)
(0.393274 0.124122 0)
(0.532809 0.114787 0)
(0.573257 0.118453 0)
(0.515895 0.123662 0)
(0.423347 0.130599 0)
(0.339177 0.136101 0)
(0.270448 0.141652 0)
(0.199379 0.148137 0)
(0.117573 0.155274 0)
(0.0505509 0.161498 0)
(3 7.04147e-08 0)
(2.99999 4.73895e-07 0)
(2.99997 1.58572e-06 0)
(2.99993 4.67265e-06 0)
(2.99983 1.19273e-05 0)
(2.99956 3.16801e-05 0)
(2.99893 7.56217e-05 0)
(2.99732 0.000201311 0)
(2.99342 0.000471335 0)
(2.98349 0.00125327 0)
(2.95815 0.00306285 0)
(2.88935 0.00821284 0)
(2.69129 0.0226052 0)
(2.09779 0.0661923 0)
(0.997451 0.191232 0)
(0.406918 0.174652 0)
(0.550283 0.162034 0)
(0.595471 0.166359 0)
(0.540042 0.17343 0)
(0.448277 0.184167 0)
(0.361999 0.193733 0)
(0.289964 0.203792 0)
(0.214669 0.215064 0)
(0.127475 0.226418 0)
(0.0541013 0.234646 0)
(3 8.08026e-08 0)
(2.99999 4.99433e-07 0)
(2.99997 1.7251e-06 0)
(2.99993 4.93023e-06 0)
(2.99984 1.29698e-05 0)
(2.99959 3.28718e-05 0)
(2.999 8.47631e-05 0)
(2.9975 0.00020592 0)
(2.99388 0.000536847 0)
(2.98469 0.00130921 0)
(2.96132 0.00340163 0)
(2.8983 0.00882879 0)
(2.71829 0.0245434 0)
(2.18092 0.0716717 0)
(1.06899 0.21224 0)
(0.444368 0.215535 0)
(0.580217 0.208432 0)
(0.62686 0.214379 0)
(0.571863 0.223442 0)
(0.479862 0.238141 0)
(0.390329 0.252857 0)
(0.314281 0.268311 0)
(0.234328 0.285091 0)
(0.140762 0.301548 0)
(0.0594814 0.312758 0)
(3 8.44643e-08 0)
(2.99999 4.7162e-07 0)
(2.99998 1.83888e-06 0)
(2.99994 4.5824e-06 0)
(2.99985 1.3732e-05 0)
(2.99962 3.10096e-05 0)
(2.99907 8.61016e-05 0)
(2.99769 0.000197807 0)
(2.99434 0.000521681 0)
(2.98588 0.00125688 0)
(2.96443 0.00322182 0)
(2.90702 0.00828871 0)
(2.74436 0.0226382 0)
(2.26158 0.0652452 0)
(1.14966 0.194397 0)
(0.481423 0.248333 0)
(0.601783 0.259015 0)
(0.64864 0.264922 0)
(0.596805 0.274783 0)
(0.508337 0.293857 0)
(0.418539 0.314826 0)
(0.340444 0.336701 0)
(0.257275 0.36023 0)
(0.157662 0.383636 0)
(0.0672139 0.400082 0)
(3 7.95318e-08 0)
(2.99999 4.80083e-07 0)
(2.99998 1.73613e-06 0)
(2.99994 4.68528e-06 0)
(2.99986 1.29349e-05 0)
(2.99965 3.1611e-05 0)
(2.99914 8.06567e-05 0)
(2.99787 0.000197777 0)
(2.99477 0.00048814 0)
(2.98695 0.00121664 0)
(2.96717 0.00300969 0)
(2.91455 0.00775765 0)
(2.76582 0.0207423 0)
(2.32538 0.0587135 0)
(1.23784 0.17377 0)
(0.52162 0.288831 0)
(0.610966 0.319473 0)
(0.654757 0.316687 0)
(0.612805 0.324831 0)
(0.533457 0.349136 0)
(0.446752 0.377815 0)
(0.369188 0.407783 0)
(0.284978 0.440572 0)
(0.180122 0.474686 0)
(0.0786808 0.501506 0)
(3 7.85724e-08 0)
(2.99999 5.0353e-07 0)
(2.99998 1.65654e-06 0)
(2.99995 4.93735e-06 0)
(2.99987 1.23483e-05 0)
(2.99968 3.23835e-05 0)
(2.99921 8.00217e-05 0)
(2.99803 0.000196546 0)
(2.99519 0.00050201 0)
(2.98798 0.00119892 0)
(2.96988 0.00309113 0)
(2.92182 0.00774266 0)
(2.78665 0.0208516 0)
(2.3878 0.0584487 0)
(1.34839 0.173121 0)
(0.592703 0.336469 0)
(0.619172 0.368638 0)
(0.648999 0.363023 0)
(0.625373 0.374632 0)
(0.559684 0.402176 0)
(0.478139 0.439668 0)
(0.403191 0.480003 0)
(0.320884 0.525589 0)
(0.213122 0.576275 0)
(0.097918 0.624926 0)
(3 9.00853e-08 0)
(2.99999 4.90368e-07 0)
(2.99998 1.9047e-06 0)
(2.99995 4.79231e-06 0)
(2.99988 1.39712e-05 0)
(2.99971 3.22512e-05 0)
(2.99928 8.74924e-05 0)
(2.99822 0.000201874 0)
(2.9956 0.000531323 0)
(2.9891 0.00125921 0)
(2.97264 0.00323078 0)
(2.9293 0.00809746 0)
(2.80817 0.0216263 0)
(2.45186 0.0605809 0)
(1.48235 0.17807 0)
(0.682097 0.385921 0)
(0.626425 0.40378 0)
(0.651117 0.403593 0)
(0.640747 0.423433 0)
(0.588181 0.453406 0)
(0.516324 0.499221 0)
(0.446599 0.552036 0)
(0.370109 0.613241 0)
(0.26624 0.690515 0)
(0.133628 0.784463 0)
(3 9.32041e-08 0)
(2.99999 5.40709e-07 0)
(2.99998 1.98386e-06 0)
(2.99996 5.29024e-06 0)
(2.99989 1.46893e-05 0)
(2.99974 3.52436e-05 0)
(2.99935 9.25278e-05 0)
(2.9984 0.000217901 0)
(2.99607 0.00056445 0)
(2.99023 0.00133838 0)
(2.97557 0.00342904 0)
(2.93716 0.00854433 0)
(2.83036 0.0227313 0)
(2.51853 0.0633018 0)
(1.63738 0.184879 0)
(0.787717 0.436802 0)
(0.633941 0.440834 0)
(0.661485 0.441839 0)
(0.662426 0.466994 0)
(0.621334 0.502403 0)
(0.562824 0.554823 0)
(0.502367 0.61954 0)
(0.440435 0.702619 0)
(0.357749 0.82595 0)
(0.202748 1.04264 0)
(3 9.56429e-08 0)
(2.99999 5.76365e-07 0)
(2.99999 2.02486e-06 0)
(2.99996 5.63742e-06 0)
(2.99991 1.51122e-05 0)
(2.99977 3.70756e-05 0)
(2.99943 9.67636e-05 0)
(2.99861 0.000227618 0)
(2.99654 0.000597256 0)
(2.99149 0.00139763 0)
(2.97864 0.00363861 0)
(2.94539 0.008964 0)
(2.85382 0.0238446 0)
(2.58744 0.0660194 0)
(1.81505 0.19181 0)
(0.912007 0.486506 0)
(0.645438 0.4803 0)
(0.678909 0.479367 0)
(0.692362 0.504262 0)
(0.661891 0.545527 0)
(0.617291 0.602715 0)
(0.575071 0.67767 0)
(0.547098 0.781106 0)
(0.549349 0.936776 0)
(0.595762 1.19429 0)
(3 8.8848e-08 0)
(3 5.90828e-07 0)
(2.99999 2.00145e-06 0)
(2.99997 5.7653e-06 0)
(2.99992 1.4992e-05 0)
(2.99981 3.86887e-05 0)
(2.99951 9.41793e-05 0)
(2.99882 0.000243994 0)
(2.99705 0.000574808 0)
(2.99277 0.00151169 0)
(2.98188 0.0036003 0)
(2.954 0.00939639 0)
(2.878 0.0242214 0)
(2.65911 0.0674836 0)
(2.01247 0.195517 0)
(1.05953 0.528481 0)
(0.673036 0.525337 0)
(0.707522 0.522952 0)
(0.731503 0.539328 0)
(0.711591 0.581984 0)
(0.680675 0.641849 0)
(0.660091 0.723096 0)
(0.667736 0.83449 0)
(0.732648 0.987611 0)
(0.892212 1.18664 0)
(3 8.45552e-08 0)
(3 5.66788e-07 0)
(2.99999 1.85868e-06 0)
(2.99997 5.55933e-06 0)
(2.99993 1.39229e-05 0)
(2.99984 3.68979e-05 0)
(2.9996 8.88636e-05 0)
(2.99901 0.000227883 0)
(2.99759 0.000552247 0)
(2.99401 0.00139677 0)
(2.98521 0.00344434 0)
(2.96261 0.00873394 0)
(2.90228 0.0226682 0)
(2.73149 0.062113 0)
(2.22668 0.179847 0)
(1.24898 0.516177 0)
(0.745678 0.563786 0)
(0.758208 0.574254 0)
(0.782678 0.578776 0)
(0.773213 0.616006 0)
(0.753136 0.674774 0)
(0.750768 0.75438 0)
(0.782969 0.85898 0)
(0.874003 0.987268 0)
(1.05578 1.11468 0)
(3 7.85806e-08 0)
(3 4.76668e-07 0)
(2.99999 1.65829e-06 0)
(2.99998 4.66539e-06 0)
(2.99995 1.22518e-05 0)
(2.99987 3.07257e-05 0)
(2.99967 7.7948e-05 0)
(2.99921 0.000187211 0)
(2.99802 0.000482064 0)
(2.99518 0.00113535 0)
(2.98799 0.00293828 0)
(2.97002 0.00710533 0)
(2.92261 0.0185143 0)
(2.79058 0.0492321 0)
(2.40675 0.140208 0)
(1.46244 0.419113 0)
(0.843465 0.590709 0)
(0.812422 0.62063 0)
(0.830839 0.626255 0)
(0.837143 0.652485 0)
(0.828451 0.704079 0)
(0.837878 0.774626 0)
(0.883074 0.862439 0)
(0.979454 0.961458 0)
(1.15071 1.04375 0)
(3 6.13405e-08 0)
(3 4.0844e-07 0)
(2.99999 1.37345e-06 0)
(2.99998 3.97358e-06 0)
(2.99996 1.01712e-05 0)
(2.99989 2.6486e-05 0)
(2.99973 6.31369e-05 0)
(2.99935 0.00016459 0)
(2.99838 0.000380138 0)
(2.99606 0.000999163 0)
(2.99019 0.0023151 0)
(2.97558 0.0059989 0)
(2.93734 0.0147341 0)
(2.83185 0.0391489 0)
(2.52654 0.108047 0)
(1.68772 0.320542 0)
(0.956543 0.631001 0)
(0.847244 0.661798 0)
(0.864894 0.673244 0)
(0.886724 0.688098 0)
(0.895279 0.729354 0)
(0.915013 0.788086 0)
(0.966239 0.857909 0)
(1.05993 0.931611 0)
(1.21227 0.987941 0)
(3 5.42044e-08 0)
(3 3.58066e-07 0)
(2.99999 1.20009e-06 0)
(2.99999 3.49279e-06 0)
(2.99996 8.92634e-06 0)
(2.99991 2.32124e-05 0)
(2.99979 5.60627e-05 0)
(2.99947 0.000143597 0)
(2.99872 0.000341194 0)
(2.99679 0.000872111 0)
(2.99216 0.00208923 0)
(2.98036 0.00529272 0)
(2.95013 0.0131756 0)
(2.86761 0.0345396 0)
(2.63021 0.0950242 0)
(1.94355 0.276703 0)
(1.11851 0.666667 0)
(0.880231 0.6952 0)
(0.89237 0.708311 0)
(0.924444 0.71561 0)
(0.951252 0.747656 0)
(0.980718 0.796155 0)
(1.0346 0.851439 0)
(1.12295 0.906163 0)
(1.2562 0.945987 0)
(3 4.95932e-08 0)
(3 3.06723e-07 0)
(3 1.07055e-06 0)
(2.99999 3.0006e-06 0)
(2.99997 7.97898e-06 0)
(2.99993 1.99009e-05 0)
(2.99983 5.05867e-05 0)
(2.99959 0.000122893 0)
(2.99899 0.000310559 0)
(2.99751 0.000752447 0)
(2.99387 0.0018986 0)
(2.98481 0.00466467 0)
(2.9617 0.0117992 0)
(2.89988 0.0305741 0)
(2.72517 0.0835311 0)
(2.20937 0.24165 0)
(1.33148 0.657198 0)
(0.946676 0.722071 0)
(0.933815 0.735557 0)
(0.963007 0.740622 0)
(1.00229 0.761351 0)
(1.03885 0.800269 0)
(1.09249 0.844617 0)
(1.17401 0.886008 0)
(1.29018 0.914791 0)
(3 4.1899e-08 0)
(3 2.4867e-07 0)
(3 8.99216e-07 0)
(2.99999 2.4226e-06 0)
(2.99998 6.66504e-06 0)
(2.99995 1.60646e-05 0)
(2.99987 4.18825e-05 0)
(2.99969 9.94737e-05 0)
(2.99924 0.000254256 0)
(2.99811 0.000609418 0)
(2.99542 0.00153789 0)
(2.98862 0.00373665 0)
(2.97173 0.00944201 0)
(2.92741 0.0239331 0)
(2.8055 0.0642797 0)
(2.45287 0.182512 0)
(1.60301 0.536935 0)
(1.06096 0.730567 0)
(0.99407 0.758493 0)
(1.00916 0.770233 0)
(1.05046 0.779197 0)
(1.0926 0.806001 0)
(1.14422 0.839975 0)
(1.21796 0.871271 0)
(1.319 0.892143 0)
(3 3.25097e-08 0)
(3 1.98818e-07 0)
(3 6.97635e-07 0)
(2.99999 1.93654e-06 0)
(2.99998 5.15929e-06 0)
(2.99996 1.27674e-05 0)
(2.9999 3.23993e-05 0)
(2.99976 7.79566e-05 0)
(2.99941 0.000196302 0)
(2.99858 0.000469856 0)
(2.99648 0.00117825 0)
(2.9914 0.00284844 0)
(2.97851 0.00711333 0)
(2.94549 0.0177506 0)
(2.8554 0.0463079 0)
(2.5976 0.127272 0)
(1.88146 0.37804 0)
(1.19572 0.741676 0)
(1.0419 0.781951 0)
(1.04692 0.80014 0)
(1.08732 0.802239 0)
(1.13682 0.814907 0)
(1.18884 0.838592 0)
(1.25621 0.861705 0)
(1.34472 0.87649 0)
(3 2.49636e-08 0)
(3 1.64123e-07 0)
(3 5.47717e-07 0)
(3 1.60269e-06 0)
(2.99999 4.07273e-06 0)
(2.99997 1.05798e-05 0)
(2.99993 2.56503e-05 0)
(2.99982 6.49008e-05 0)
(2.99957 0.000156522 0)
(2.99893 0.000392723 0)
(2.9974 0.000950493 0)
(2.99356 0.0023786 0)
(2.98413 0.00583336 0)
(2.95994 0.0146896 0)
(2.89531 0.0379488 0)
(2.71292 0.103242 0)
(2.17718 0.300447 0)
(1.3944 0.744716 0)
(1.10104 0.811156 0)
(1.08703 0.825086 0)
(1.11806 0.825033 0)
(1.17199 0.825552 0)
(1.22752 0.839818 0)
(1.29022 0.85617 0)
(1.36836 0.866246 0)
(3 1.96379e-08 0)
(3 1.27744e-07 0)
(3 4.28407e-07 0)
(3 1.2452e-06 0)
(2.99999 3.18182e-06 0)
(2.99998 8.19589e-06 0)
(2.99995 2.00243e-05 0)
(2.99987 5.01437e-05 0)
(2.99969 0.000121959 0)
(2.99925 0.000302257 0)
(2.99813 0.000740578 0)
(2.99547 0.00182511 0)
(2.98878 0.00450787 0)
(2.97222 0.0112356 0)
(2.92896 0.0286326 0)
(2.81101 0.0766036 0)
(2.4694 0.218337 0)
(1.68406 0.618699 0)
(1.21615 0.811398 0)
(1.14617 0.838689 0)
(1.15826 0.846877 0)
(1.20686 0.841494 0)
(1.264 0.845604 0)
(1.32248 0.854807 0)
(1.39161 0.860551 0)
(3 1.46266e-08 0)
(3 9.46974e-08 0)
(3 3.20589e-07 0)
(3 9.19542e-07 0)
(2.99999 2.36912e-06 0)
(2.99998 6.05146e-06 0)
(2.99996 1.47494e-05 0)
(2.99991 3.69829e-05 0)
(2.99978 8.87046e-05 0)
(2.99945 0.000221871 0)
(2.99867 0.000531848 0)
(2.9967 0.00132475 0)
(2.99197 0.00320644 0)
(2.98001 0.00796733 0)
(2.94958 0.0198382 0)
(2.86743 0.0514689 0)
(2.63438 0.140808 0)
(1.98935 0.416113 0)
(1.35847 0.800154 0)
(1.19868 0.853261 0)
(1.19539 0.870512 0)
(1.23507 0.865351 0)
(1.2939 0.85744 0)
(1.35136 0.857946 0)
(1.41416 0.859176 0)
(3 1.12564e-08 0)
(3 6.98737e-08 0)
(3 2.42893e-07 0)
(3 6.80361e-07 0)
(3 1.80182e-06 0)
(2.99999 4.47334e-06 0)
(2.99997 1.1313e-05 0)
(2.99994 2.72961e-05 0)
(2.99984 6.84157e-05 0)
(2.99961 0.000164432 0)
(2.99905 0.000410943 0)
(2.9977 0.000990049 0)
(2.99431 0.00246825 0)
(2.98605 0.00602583 0)
(2.96502 0.0150824 0)
(2.90965 0.0386054 0)
(2.75588 0.1038 0)
(2.3056 0.300636 0)
(1.58482 0.747576 0)
(1.27613 0.864004 0)
(1.24123 0.886613 0)
(1.26252 0.888288 0)
(1.31633 0.874585 0)
(1.3761 0.866477 0)
(1.43582 0.862623 0)
(3 8.31215e-09 0)
(3 5.08773e-08 0)
(3 1.7937e-07 0)
(3 4.95508e-07 0)
(3 1.32367e-06 0)
(2.99999 3.27215e-06 0)
(2.99998 8.2419e-06 0)
(2.99996 2.00245e-05 0)
(2.99989 4.96068e-05 0)
(2.99973 0.00012081 0)
(2.99936 0.00029638 0)
(2.99841 0.000728281 0)
(2.99617 0.00177652 0)
(2.99052 0.00439068 0)
(2.97668 0.0108359 0)
(2.94085 0.0273906 0)
(2.84449 0.0721058 0)
(2.5682 0.202427 0)
(1.88941 0.575967 0)
(1.40238 0.852216 0)
(1.29944 0.892843 0)
(1.29949 0.906571 0)
(1.34005 0.895206 0)
(1.39837 0.878467 0)
(1.4563 0.869514 0)
(3 5.85112e-09 0)
(3 3.72369e-08 0)
(3 1.26111e-07 0)
(3 3.62001e-07 0)
(3 9.29973e-07 0)
(2.99999 2.36734e-06 0)
(2.99999 5.82811e-06 0)
(2.99997 1.43185e-05 0)
(2.99993 3.53283e-05 0)
(2.99982 8.5285e-05 0)
(2.99956 0.000212235 0)
(2.99893 0.00050808 0)
(2.99736 0.00127216 0)
(2.9936 0.00304909 0)
(2.98415 0.00764941 0)
(2.96043 0.0187832 0)
(2.89749 0.0485817 0)
(2.72195 0.130881 0)
(2.21978 0.382653 0)
(1.58741 0.820255 0)
(1.36307 0.904713 0)
(1.3393 0.921519 0)
(1.36096 0.916094 0)
(1.41483 0.895372 0)
(1.47469 0.879604 0)
(3 4.00468e-09 0)
(3 2.62295e-08 0)
(3 8.83297e-08 0)
(3 2.54666e-07 0)
(3 6.52294e-07 0)
(3 1.6778e-06 0)
(2.99999 4.04286e-06 0)
(2.99998 1.02511e-05 0)
(2.99995 2.42389e-05 0)
(2.99988 6.14106e-05 0)
(2.99971 0.000144764 0)
(2.9993 0.000365894 0)
(2.99828 0.000865741 0)
(2.99583 0.00218044 0)
(2.98977 0.00523095 0)
(2.97482 0.0131323 0)
(2.93634 0.0329061 0)
(2.83304 0.0872102 0)
(2.5348 0.24759 0)
(1.87817 0.660271 0)
(1.4762 0.883677 0)
(1.39594 0.92002 0)
(1.39527 0.930284 0)
(1.43464 0.915291 0)
(1.49161 0.890465 0)
(3 2.91394e-09 0)
(3 1.73491e-08 0)
(3 6.24316e-08 0)
(3 1.68474e-07 0)
(3 4.5852e-07 0)
(3 1.10907e-06 0)
(2.99999 2.83656e-06 0)
(2.99999 6.75301e-06 0)
(2.99997 1.69121e-05 0)
(2.99992 4.04398e-05 0)
(2.99981 9.98422e-05 0)
(2.99953 0.000241565 0)
(2.99887 0.00058902 0)
(2.99724 0.0014417 0)
(2.99327 0.00349239 0)
(2.98345 0.00865012 0)
(2.95866 0.0212941 0)
(2.89314 0.0548452 0)
(2.71043 0.147821 0)
(2.20221 0.426587 0)
(1.63645 0.847279 0)
(1.45429 0.924278 0)
(1.4327 0.940597 0)
(1.45174 0.934156 0)
(1.50228 0.907693 0)
(3 1.93962e-09 0)
(3 1.18067e-08 0)
(3 4.16699e-08 0)
(3 1.14728e-07 0)
(3 3.06283e-07 0)
(3 7.52341e-07 0)
(3 1.90038e-06 0)
(2.99999 4.56106e-06 0)
(2.99998 1.13522e-05 0)
(2.99995 2.72251e-05 0)
(2.99988 6.71954e-05 0)
(2.9997 0.000162137 0)
(2.99928 0.000397477 0)
(2.99825 0.000965875 0)
(2.99578 0.00235828 0)
(2.98964 0.00578829 0)
(2.97458 0.0142351 0)
(2.9359 0.0360003 0)
(2.8325 0.0947104 0)
(2.53431 0.269548 0)
(1.91452 0.690891 0)
(1.55717 0.897123 0)
(1.48579 0.934738 0)
(1.48286 0.944181 0)
(1.51793 0.928431 0)
(3 1.23541e-09 0)
(3 7.99069e-09 0)
(3 2.68826e-08 0)
(3 7.74484e-08 0)
(3 1.9778e-07 0)
(3 5.05057e-07 0)
(3 1.22615e-06 0)
(2.99999 3.04269e-06 0)
(2.99999 7.32457e-06 0)
(2.99997 1.80005e-05 0)
(2.99992 4.33998e-05 0)
(2.99981 0.00010601 0)
(2.99954 0.000256537 0)
(2.99887 0.000624149 0)
(2.99729 0.00151812 0)
(2.99334 0.00369295 0)
(2.98376 0.00904657 0)
(2.95942 0.0223853 0)
(2.89573 0.0571056 0)
(2.71834 0.154041 0)
(2.23352 0.437577 0)
(1.70911 0.849324 0)
(1.54137 0.93206 0)
(1.51791 0.950287 0)
(1.53347 0.946095 0)
(3 8.23165e-10 0)
(3 5.21524e-09 0)
(3 1.77661e-08 0)
(3 5.05483e-08 0)
(3 1.30454e-07 0)
(3 3.29191e-07 0)
(3 8.09091e-07 0)
(3 1.97775e-06 0)
(2.99999 4.84144e-06 0)
(2.99998 1.16753e-05 0)
(2.99995 2.86789e-05 0)
(2.99988 6.87584e-05 0)
(2.99971 0.000169535 0)
(2.9993 0.000405301 0)
(2.99833 0.00100108 0)
(2.99591 0.00240202 0)
(2.99014 0.00593926 0)
(2.97567 0.0144747 0)
(2.93904 0.0365779 0)
(2.84163 0.095608 0)
(2.5611 0.270691 0)
(1.98308 0.685532 0)
(1.6415 0.90068 0)
(1.56848 0.94368 0)
(1.56285 0.954637 0)
(3 5.21551e-10 0)
(3 3.35191e-09 0)
(3 1.13226e-08 0)
(3 3.24675e-08 0)
(3 8.31053e-08 0)
(3 2.11243e-07 0)
(3 5.13648e-07 0)
(3 1.26787e-06 0)
(2.99999 3.05784e-06 0)
(2.99999 7.46651e-06 0)
(2.99997 1.80499e-05 0)
(2.99993 4.37685e-05 0)
(2.99982 0.000106265 0)
(2.99956 0.000256206 0)
(2.99895 0.000625856 0)
(2.99745 0.00150194 0)
(2.99382 0.00368772 0)
(2.98487 0.00892254 0)
(2.9625 0.0220963 0)
(2.90412 0.0560491 0)
(2.74307 0.150051 0)
(2.303 0.423351 0)
(1.80171 0.832678 0)
(1.62608 0.933773 0)
(1.59725 0.956923 0)
(3 3.45195e-10 0)
(3 2.10048e-09 0)
(3 7.37807e-09 0)
(3 2.03589e-08 0)
(3 5.39649e-08 0)
(3 1.32446e-07 0)
(3 3.33503e-07 0)
(3 7.9406e-07 0)
(3 1.98541e-06 0)
(2.99999 4.68019e-06 0)
(2.99998 1.16915e-05 0)
(2.99995 2.75358e-05 0)
(2.99989 6.85272e-05 0)
(2.99974 0.000162249 0)
(2.99937 0.000401348 0)
(2.99846 0.000957736 0)
(2.99632 0.00235532 0)
(2.99098 0.00568987 0)
(2.97804 0.0140185 0)
(2.94508 0.0349331 0)
(2.85826 0.0909661 0)
(2.61039 0.254326 0)
(2.07919 0.650334 0)
(1.7326 0.898108 0)
(1.64831 0.950756 0)
(3 2.05009e-10 0)
(3 1.35234e-09 0)
(3 4.47482e-09 0)
(3 1.30842e-08 0)
(3 3.2825e-08 0)
(3 8.48156e-08 0)
(3 2.02635e-07 0)
(3 5.06454e-07 0)
(3 1.20465e-06 0)
(3 2.9652e-06 0)
(2.99999 7.10391e-06 0)
(2.99997 1.72644e-05 0)
(2.99993 4.17955e-05 0)
(2.99984 0.000100345 0)
(2.99962 0.000245801 0)
(2.99908 0.000583467 0)
(2.99776 0.00144317 0)
(2.99458 0.00341887 0)
(2.98679 0.00849026 0)
(2.96747 0.0205263 0)
(2.91758 0.0522515 0)
(2.78187 0.137958 0)
(2.40721 0.388156 0)
(1.91868 0.797188 0)
(1.71327 0.930511 0)
(3 1.30454e-10 0)
(3 8.18634e-10 0)
(3 2.83495e-09 0)
(3 7.91454e-09 0)
(3 2.07373e-08 0)
(3 5.15901e-08 0)
(3 1.2692e-07 0)
(3 3.10629e-07 0)
(3 7.47227e-07 0)
(3 1.83258e-06 0)
(2.99999 4.36923e-06 0)
(2.99998 1.07552e-05 0)
(2.99996 2.55297e-05 0)
(2.99991 6.28958e-05 0)
(2.99977 0.000149536 0)
(2.99946 0.000367555 0)
(2.99868 0.000876808 0)
(2.99684 0.00215246 0)
(2.99228 0.00517729 0)
(2.98129 0.0127528 0)
(2.95346 0.0314559 0)
(2.88095 0.0811755 0)
(2.6766 0.222931 0)
(2.20541 0.582973 0)
(1.83487 0.886498 0)
(3 8.0749e-11 0)
(3 4.94141e-10 0)
(3 1.73149e-09 0)
(3 4.77053e-09 0)
(3 1.26521e-08 0)
(3 3.09337e-08 0)
(3 7.76451e-08 0)
(3 1.85166e-07 0)
(3 4.57753e-07 0)
(3 1.08749e-06 0)
(3 2.67047e-06 0)
(2.99999 6.36834e-06 0)
(2.99998 1.55111e-05 0)
(2.99995 3.72635e-05 0)
(2.99987 8.99787e-05 0)
(2.99968 0.000218149 0)
(2.99925 0.000521783 0)
(2.99816 0.00127671 0)
(2.99562 0.0030455 0)
(2.9893 0.00749325 0)
(2.974 0.0181504 0)
(2.93497 0.0456602 0)
(2.83115 0.119377 0)
(2.54094 0.333945 0)
(2.06288 0.735785 0)
(3 4.64553e-11 0)
(3 3.02003e-10 0)
(3 1.01178e-09 0)
(3 2.91378e-09 0)
(3 7.39397e-09 0)
(3 1.88448e-08 0)
(3 4.53135e-08 0)
(3 1.12295e-07 0)
(3 2.67131e-07 0)
(3 6.55884e-07 0)
(3 1.55919e-06 0)
(2.99999 3.80563e-06 0)
(2.99999 9.09143e-06 0)
(2.99997 2.20264e-05 0)
(2.99992 5.2962e-05 0)
(2.99982 0.000127292 0)
(2.99956 0.000308619 0)
(2.99895 0.000736157 0)
(2.99745 0.00179657 0)
(2.99385 0.00429017 0)
(2.98508 0.0105168 0)
(2.96329 0.0256235 0)
(2.90719 0.0649927 0)
(2.75299 0.174003 0)
(2.36308 0.466476 0)
(3 2.82523e-11 0)
(3 1.75125e-10 0)
(3 6.08748e-10 0)
(3 1.69352e-09 0)
(3 4.43539e-09 0)
(3 1.09943e-08 0)
(3 2.70404e-08 0)
(3 6.56218e-08 0)
(3 1.58417e-07 0)
(3 3.84594e-07 0)
(3 9.1937e-07 0)
(3 2.23856e-06 0)
(2.99999 5.33112e-06 0)
(2.99998 1.3004e-05 0)
(2.99996 3.09108e-05 0)
(2.9999 7.53441e-05 0)
(2.99975 0.000179626 0)
(2.9994 0.000436483 0)
(2.99858 0.00104468 0)
(2.99656 0.00253443 0)
(2.99174 0.00611581 0)
(2.97992 0.0149258 0)
(2.95047 0.0369015 0)
(2.87368 0.0950254 0)
(2.65885 0.260815 0)
(3 1.61247e-11 0)
(3 1.03894e-10 0)
(3 3.48696e-10 0)
(3 1.00249e-09 0)
(3 2.54814e-09 0)
(3 6.44676e-09 0)
(3 1.56209e-08 0)
(3 3.81226e-08 0)
(3 9.19399e-08 0)
(3 2.20828e-07 0)
(3 5.36227e-07 0)
(3 1.27298e-06 0)
(3 3.11133e-06 0)
(2.99999 7.34057e-06 0)
(2.99998 1.80092e-05 0)
(2.99994 4.23233e-05 0)
(2.99986 0.000103913 0)
(2.99967 0.00024457 0)
(2.9992 0.000598417 0)
(2.99808 0.00141463 0)
(2.9954 0.00345285 0)
(2.98884 0.00824587 0)
(2.97289 0.0202293 0)
(2.93246 0.0500866 0)
(2.82457 0.131153 0)
(3 9.364e-12 0)
(3 5.92317e-11 0)
(3 2.03719e-10 0)
(3 5.70093e-10 0)
(3 1.48367e-09 0)
(3 3.68304e-09 0)
(3 9.01122e-09 0)
(3 2.19346e-08 0)
(3 5.24834e-08 0)
(3 1.27941e-07 0)
(3 3.02863e-07 0)
(3 7.41162e-07 0)
(3 1.74658e-06 0)
(2.99999 4.27401e-06 0)
(2.99999 1.00788e-05 0)
(2.99997 2.46111e-05 0)
(2.99992 5.81776e-05 0)
(2.99982 0.000141398 0)
(2.99955 0.000336248 0)
(2.99894 0.000812448 0)
(2.99743 0.00194584 0)
(2.99387 0.0046903 0)
(2.9851 0.0113572 0)
(2.96361 0.0277731 0)
(2.90846 0.0699832 0)
(3 5.50486e-12 0)
(3 3.33848e-11 0)
(3 1.17719e-10 0)
(3 3.21244e-10 0)
(3 8.5522e-10 0)
(3 2.0731e-09 0)
(3 5.19032e-09 0)
(3 1.23167e-08 0)
(3 3.02028e-08 0)
(3 7.17332e-08 0)
(3 1.73776e-07 0)
(3 4.15857e-07 0)
(3 9.96835e-07 0)
(3 2.40567e-06 0)
(2.99999 5.71237e-06 0)
(2.99998 1.39156e-05 0)
(2.99996 3.27474e-05 0)
(2.9999 8.02047e-05 0)
(2.99976 0.000188386 0)
(2.99942 0.000461335 0)
(2.99863 0.00108629 0)
(2.99668 0.00265557 0)
(2.99208 0.00632008 0)
(2.98079 0.0154648 0)
(2.95297 0.0379309 0)
(3 2.96486e-12 0)
(3 1.92161e-11 0)
(3 6.42047e-11 0)
(3 1.85189e-10 0)
(3 4.66995e-10 0)
(3 1.19012e-09 0)
(3 2.84131e-09 0)
(3 7.01789e-09 0)
(3 1.65837e-08 0)
(3 4.04705e-08 0)
(3 9.59146e-08 0)
(3 2.31794e-07 0)
(3 5.52896e-07 0)
(3 1.32468e-06 0)
(3 3.18684e-06 0)
(2.99999 7.55568e-06 0)
(2.99998 1.83319e-05 0)
(2.99995 4.31419e-05 0)
(2.99987 0.000105273 0)
(2.99969 0.000246399 0)
(2.99926 0.000602985 0)
(2.99823 0.00141307 0)
(2.99576 0.00345214 0)
(2.98984 0.00817176 0)
(2.97539 0.0200197 0)
(3 1.66087e-12 0)
(3 1.05764e-11 0)
(3 3.58349e-11 0)
(3 1.01961e-10 0)
(3 2.60673e-10 0)
(3 6.543e-10 0)
(3 1.58483e-09 0)
(3 3.84638e-09 0)
(3 9.23097e-09 0)
(3 2.21433e-08 0)
(3 5.31825e-08 0)
(3 1.26586e-07 0)
(3 3.05411e-07 0)
(3 7.23032e-07 0)
(3 1.74865e-06 0)
(2.99999 4.12881e-06 0)
(2.99999 9.9923e-06 0)
(2.99997 2.36016e-05 0)
(2.99993 5.69512e-05 0)
(2.99983 0.000134897 0)
(2.9996 0.00032445 0)
(2.99905 0.000771241 0)
(2.99771 0.0018483 0)
(2.99457 0.0044236 0)
(2.98686 0.0106295 0)
(3 9.38021e-13 0)
(3 5.77026e-12 0)
(3 2.00703e-11 0)
(3 5.54952e-11 0)
(3 1.45472e-10 0)
(3 3.55258e-10 0)
(3 8.82939e-10 0)
(3 2.0869e-09 0)
(3 5.12905e-09 0)
(3 1.20295e-08 0)
(3 2.93848e-08 0)
(3 6.90457e-08 0)
(3 1.67577e-07 0)
(3 3.9604e-07 0)
(3 9.53298e-07 0)
(3 2.27221e-06 0)
(2.99999 5.417e-06 0)
(2.99998 1.30218e-05 0)
(2.99996 3.07707e-05 0)
(2.99991 7.462e-05 0)
(2.99979 0.000174952 0)
(2.9995 0.000426467 0)
(2.9988 0.000998627 0)
(2.99715 0.00243788 0)
(2.99317 0.00574563 0)
(3 4.97031e-13 0)
(3 3.1836e-12 0)
(3 1.07235e-11 0)
(3 3.0607e-11 0)
(3 7.75588e-11 0)
(3 1.95301e-10 0)
(3 4.70536e-10 0)
(3 1.14314e-09 0)
(3 2.73736e-09 0)
(3 6.54126e-09 0)
(3 1.57413e-08 0)
(3 3.72084e-08 0)
(3 9.01492e-08 0)
(3 2.11539e-07 0)
(3 5.14502e-07 0)
(3 1.20377e-06 0)
(3 2.92931e-06 0)
(2.99999 6.86226e-06 0)
(2.99998 1.66294e-05 0)
(2.99995 3.91473e-05 0)
(2.99989 9.43328e-05 0)
(2.99974 0.000223657 0)
(2.99939 0.000534038 0)
(2.99853 0.00127897 0)
(2.99652 0.00303726 0)
(3 2.49524e-13 0)
(3 1.69188e-12 0)
(3 5.6465e-12 0)
(3 1.63736e-11 0)
(3 4.13407e-11 0)
(3 1.04879e-10 0)
(3 2.49691e-10 0)
(3 6.14669e-10 0)
(3 1.44637e-09 0)
(3 3.51462e-09 0)
(3 8.29226e-09 0)
(3 1.99496e-08 0)
(3 4.74251e-08 0)
(3 1.12897e-07 0)
(3 2.70458e-07 0)
(3 6.38519e-07 0)
(3 1.54007e-06 0)
(3 3.60876e-06 0)
(2.99999 8.74027e-06 0)
(2.99998 2.04134e-05 0)
(2.99994 4.9482e-05 0)
(2.99986 0.00011554 0)
(2.99968 0.000279101 0)
(2.99924 0.000654606 0)
(2.99821 0.00157331 0)
(3 1.32479e-13 0)
(3 8.79739e-13 0)
(3 3.01698e-12 0)
(3 8.50025e-12 0)
(3 2.21542e-11 0)
(3 5.47703e-11 0)
(3 1.33351e-10 0)
(3 3.22357e-10 0)
(3 7.65639e-10 0)
(3 1.85355e-09 0)
(3 4.34241e-09 0)
(3 1.05597e-08 0)
(3 2.46177e-08 0)
(3 5.98412e-08 0)
(3 1.39758e-07 0)
(3 3.38082e-07 0)
(3 7.93357e-07 0)
(3 1.90522e-06 0)
(2.99999 4.50536e-06 0)
(2.99999 1.0718e-05 0)
(2.99997 2.5546e-05 0)
(2.99993 6.0218e-05 0)
(2.99984 0.000144795 0)
(2.99961 0.000338495 0)
(2.99907 0.000818675 0)
(3 7.23799e-14 0)
(3 4.63693e-13 0)
(3 1.63865e-12 0)
(3 4.45254e-12 0)
(3 1.17184e-11 0)
(3 2.84051e-11 0)
(3 7.04376e-11 0)
(3 1.6655e-10 0)
(3 4.03561e-10 0)
(3 9.53898e-10 0)
(3 2.28123e-09 0)
(3 5.42607e-09 0)
(3 1.28454e-08 0)
(3 3.0819e-08 0)
(3 7.22828e-08 0)
(3 1.74595e-07 0)
(3 4.07464e-07 0)
(3 9.85248e-07 0)
(3 2.30098e-06 0)
(2.99999 5.54667e-06 0)
(2.99998 1.29908e-05 0)
(2.99996 3.11576e-05 0)
(2.99991 7.34193e-05 0)
(2.9998 0.000174702 0)
(2.99952 0.00041537 0)
(3 5.19065e-14 0)
(3 2.20409e-13 0)
(3 8.08462e-13 0)
(3 2.25362e-12 0)
(3 5.84449e-12 0)
(3 1.44132e-11 0)
(3 3.52445e-11 0)
(3 8.35864e-11 0)
(3 2.02883e-10 0)
(3 4.73413e-10 0)
(3 1.15047e-09 0)
(3 2.67102e-09 0)
(3 6.47912e-09 0)
(3 1.50667e-08 0)
(3 3.63591e-08 0)
(3 8.49004e-08 0)
(3 2.03543e-07 0)
(3 4.79017e-07 0)
(3 1.13514e-06 0)
(3 2.69829e-06 0)
(2.99999 6.33108e-06 0)
(2.99998 1.51699e-05 0)
(2.99995 3.52639e-05 0)
(2.99989 8.49761e-05 0)
(2.99975 0.000196714 0)
(3 2.11473e-14 0)
(3 1.29977e-13 0)
(3 3.66003e-13 0)
(3 1.04086e-12 0)
(3 2.654e-12 0)
(3 6.78098e-12 0)
(3 1.56895e-11 0)
(3 3.89214e-11 0)
(3 8.9769e-11 0)
(3 2.19314e-10 0)
(3 5.07011e-10 0)
(3 1.22677e-09 0)
(3 2.85129e-09 0)
(3 6.81824e-09 0)
(3 1.60047e-08 0)
(3 3.77118e-08 0)
(3 8.96207e-08 0)
(3 2.07579e-07 0)
(3 4.99582e-07 0)
(3 1.1406e-06 0)
(3 2.7637e-06 0)
(2.99999 6.25257e-06 0)
(2.99997 1.51196e-05 0)
(2.99993 3.42215e-05 0)
(2.99984 8.17647e-05 0)
(3 -5.50232e-16 0)
(3 6.04471e-14 0)
(3 1.31642e-13 0)
(3 3.24286e-13 0)
(3 7.96204e-13 0)
(3 2.02946e-12 0)
(3 4.4678e-12 0)
(3 1.1408e-11 0)
(3 2.49825e-11 0)
(3 6.38041e-11 0)
(3 1.39924e-10 0)
(3 3.51863e-10 0)
(3 7.86718e-10 0)
(3 1.92459e-09 0)
(3 4.41645e-09 0)
(3 1.03927e-08 0)
(3 2.47691e-08 0)
(3 5.54697e-08 0)
(3 1.37848e-07 0)
(3 2.94825e-07 0)
(3 7.50853e-07 0)
(2.99999 1.56564e-06 0)
(2.99998 3.98955e-06 0)
(2.99995 8.27048e-06 0)
(2.99987 2.06054e-05 0)
(1.27867 1.0991 0)
(1.69405 0.898235 0)
(1.87931 0.631542 0)
(1.90572 0.363856 0)
(1.85357 0.138825 0)
(1.7546 -0.0102039 0)
(1.65454 -0.0471634 0)
(1.60488 -0.0151371 0)
(1.59687 0.0264738 0)
(1.59992 0.0464045 0)
(1.60344 0.043891 0)
(1.60439 0.0323634 0)
(1.60288 0.0215184 0)
(1.60027 0.0131261 0)
(1.59654 0.0102005 0)
(1.59436 0.0109213 0)
(1.5948 0.012992 0)
(1.59635 0.0145007 0)
(1.59815 0.0148011 0)
(1.60053 0.0145272 0)
(1.60326 0.0133619 0)
(1.6059 0.0117335 0)
(1.60864 0.0102934 0)
(1.6117 0.00954737 0)
(1.61511 0.00923437 0)
(1.61874 0.00904394 0)
(1.62219 0.00882621 0)
(1.62476 0.00885134 0)
(1.6264 0.00898665 0)
(1.62683 0.0092966 0)
(1.62442 0.00994103 0)
(1.61504 0.011192 0)
(1.5894 0.0141001 0)
(1.52612 0.0208927 0)
(1.37495 0.0363903 0)
(1.0187 0.0727294 0)
(0.435047 0.157303 0)
(-0.0183119 0.194667 0)
(-0.24039 0.0937346 0)
(-0.342398 0.00613392 0)
(-0.401451 -0.026725 0)
(-0.367649 -0.0404991 0)
(-0.277327 -0.0552488 0)
(-0.17778 -0.0627833 0)
(-0.0764242 -0.0666806 0)
(0.0361607 -0.0643754 0)
(0.134362 -0.0545357 0)
(0.218038 -0.0483339 0)
(0.29561 -0.0440829 0)
(0.367185 -0.0406075 0)
(0.433109 -0.0375049 0)
(0.492838 -0.0343923 0)
(0.549238 -0.03191 0)
(0.605864 -0.0306814 0)
(0.662357 -0.0299137 0)
(0.716468 -0.0284561 0)
(0.767984 -0.0267514 0)
(0.817203 -0.0252568 0)
(0.864497 -0.024039 0)
(0.910036 -0.0229367 0)
(0.954025 -0.0218698 0)
(0.996558 -0.0207972 0)
(1.03777 -0.0197382 0)
(1.07773 -0.0186952 0)
(1.11652 -0.0176843 0)
(1.15418 -0.0167012 0)
(1.19078 -0.0157586 0)
(1.22634 -0.0148412 0)
(1.26091 -0.0139638 0)
(1.29449 -0.013105 0)
(1.32712 -0.0122833 0)
(1.35884 -0.0114753 0)
(1.38971 -0.0107022 0)
(1.41976 -0.00994123 0)
(1.44906 -0.00921645 0)
(1.47763 -0.0085065 0)
(1.5055 -0.00783561 0)
(1.53269 -0.0071792 0)
(1.55921 -0.00655917 0)
(1.58508 -0.00595297 0)
(1.61032 -0.0053729 0)
(1.63494 -0.00480567 0)
(1.659 -0.00428666 0)
(1.6825 -0.00379978 0)
(1.70546 -0.00333738 0)
(1.7279 -0.0029149 0)
(1.74985 -0.00254733 0)
(1.77135 -0.00221976 0)
(1.79239 -0.00196697 0)
(1.81299 -0.00173383 0)
(1.83322 -0.00147083 0)
(1.85311 -0.00118018 0)
(1.87267 -0.000892233 0)
(1.89189 -0.000613182 0)
(1.9107 -0.000342447 0)
(1.929 -6.19881e-05 0)
(1.94654 0.000252863 0)
(1.96272 0.000667783 0)
(1.9761 0.00115251 0)
(1.98588 0.00212038 0)
(1.37138 1.00748 0)
(1.68855 0.721724 0)
(1.86348 0.404107 0)
(1.94735 0.131535 0)
(1.99664 -0.0640601 0)
(2.02571 -0.166696 0)
(2.03433 -0.171979 0)
(2.03277 -0.130461 0)
(2.01844 -0.0813479 0)
(1.99583 -0.0423375 0)
(1.97881 -0.0209102 0)
(1.97394 -0.0145584 0)
(1.97475 -0.0166562 0)
(1.97675 -0.0215888 0)
(1.97848 -0.023963 0)
(1.97916 -0.0235525 0)
(1.97962 -0.0216113 0)
(1.97962 -0.0193405 0)
(1.97985 -0.0172745 0)
(1.98068 -0.0156146 0)
(1.98171 -0.0146543 0)
(1.98314 -0.0141944 0)
(1.98519 -0.0139546 0)
(1.98757 -0.0136928 0)
(1.98989 -0.0132745 0)
(1.99212 -0.0127406 0)