/*--------------------------------*- C++ -*----------------------------------*\
  =========                 |
  \\      /  F ield         | OpenFOAM: The Open Source CFD Toolbox
   \\    /   O peration     | Website:  https://openfoam.org
    \\  /    A nd           | Version:  13
     \\/     M anipulation  |
\*---------------------------------------------------------------------------*/
FoamFile
{
    format      ascii;
    class       volScalarField;
    location    "3.875";
    object      T;
}
// * * * * * * * * * * * * * * * * * * * * * * * * * * * * * * * * * * * * * //

dimensions      [0 0 0 1 0 0 0];

internalField   nonuniform List<scalar> 
1000
(
3.08429e-57
4.04707e-57
6.26861e-57
1.04304e-56
1.78051e-56
3.064e-56
5.28306e-56
9.10848e-56
1.56918e-55
2.70063e-55
4.64295e-55
7.97345e-55
1.36779e-54
2.34374e-54
4.01161e-54
6.85874e-54
1.17135e-53
1.99824e-53
3.40506e-53
5.79586e-53
9.85433e-53
1.6736e-52
2.83918e-52
4.81114e-52
8.14365e-52
1.37691e-51
2.32543e-51
3.923e-51
6.61068e-51
1.11272e-50
1.87086e-50
3.14203e-50
5.27098e-50
8.83252e-50
1.47839e-49
2.47177e-49
4.12798e-49
6.88618e-49
1.14744e-48
1.90982e-48
3.17517e-48
5.27292e-48
8.74673e-48
1.44927e-47
2.39863e-47
3.9654e-47
6.54816e-47
1.08009e-46
1.77955e-46
2.92866e-46
4.81432e-46
7.90513e-46
1.29655e-45
2.12412e-45
3.47596e-45
5.6817e-45
9.27656e-45
1.51287e-44
2.46447e-44
4.01006e-44
6.51753e-44
1.05809e-43
1.71579e-43
2.77914e-43
4.49638e-43
7.26639e-43
1.17295e-42
1.89122e-42
3.04585e-42
4.89981e-42
7.87321e-42
1.26365e-41
2.02584e-41
3.24404e-41
5.18881e-41
8.28994e-41
1.32293e-40
2.10874e-40
3.35745e-40
5.33946e-40
8.48174e-40
1.34578e-39
2.13285e-39
3.37636e-39
5.3387e-39
8.43183e-39
1.33017e-38
2.09599e-38
3.29892e-38
5.18624e-38
8.14386e-38
1.27734e-37
2.00115e-37
3.13148e-37
4.89459e-37
7.64152e-37
1.19163e-36
1.85608e-36
2.88768e-36
4.48742e-36
6.9653e-36
1.07989e-35
1.67229e-35
2.58667e-35
3.99635e-35
6.16709e-35
9.50586e-35
1.46351e-34
2.25058e-34
3.4569e-34
5.3036e-34
8.12734e-34
1.244e-33
1.90187e-33
2.90426e-33
4.42978e-33
6.74871e-33
1.02695e-32
1.56089e-32
2.36964e-32
3.59323e-32
5.44225e-32
8.23307e-32
1.24404e-31
1.87758e-31
2.83042e-31
4.2618e-31
6.4095e-31
9.62818e-31
1.44462e-30
2.16496e-30
3.24068e-30
4.84517e-30
7.23553e-30
1.07924e-29
1.60789e-29
2.39265e-29
3.55623e-29
5.27942e-29
7.82834e-29
1.15942e-28
1.71512e-28
2.53417e-28
3.73993e-28
5.51285e-28
8.11659e-28
1.19359e-27
1.75317e-27
2.57203e-27
3.76888e-27
5.5161e-27
8.06374e-27
1.1774e-26
1.7171e-26
2.50121e-26
3.63905e-26
5.28821e-26
7.6756e-26
1.11275e-25
1.61126e-25
2.33032e-25
3.36626e-25
4.85692e-25
6.99933e-25
1.00747e-24
1.4484e-24
2.07983e-24
2.98295e-24
4.27313e-24
6.114e-24
8.73745e-24
1.24717e-23
1.77805e-23
2.53187e-23
3.60097e-23
5.11536e-23
7.25792e-23
1.02855e-22
1.45586e-22
2.05822e-22
2.9063e-22
4.09891e-22
5.77396e-22
8.12375e-22
1.14161e-21
1.60234e-21
2.24631e-21
3.14529e-21
4.39875e-21
6.14432e-21
8.57225e-21
1.19452e-20
1.66252e-20
2.31108e-20
3.20878e-20
4.4498e-20
6.16334e-20
8.52642e-20
1.17813e-19
1.6259e-19
2.24114e-19
3.08545e-19
4.24271e-19
5.82695e-19
7.99307e-19
1.09512e-18
1.49858e-18
2.0482e-18
2.79602e-18
3.81224e-18
5.19151e-18
7.06121e-18
9.59264e-18
1.30158e-17
1.7639e-17
2.38754e-17
3.22774e-17
4.35832e-17
5.87775e-17
7.91727e-17
1.06515e-16
1.43126e-16
1.92086e-16
2.57482e-16
3.44721e-16
4.60955e-16
6.15632e-16
8.21211e-16
1.0941e-15
1.4559e-15
1.93498e-15
2.56857e-15
3.40546e-15
4.50952e-15
5.96424e-15
7.87859e-15
1.03947e-14
1.36976e-14
1.8028e-14
2.36984e-14
3.11143e-14
4.08009e-14
5.34377e-14
6.99029e-14
9.13295e-14
1.19178e-13
1.55328e-13
2.02195e-13
2.62881e-13
3.41364e-13
4.42735e-13
5.73506e-13
7.41993e-13
9.58803e-13
1.23745e-12
1.59511e-12
2.05364e-12
2.64074e-12
3.39151e-12
4.35038e-12
5.57352e-12
7.1318e-12
9.11456e-12
1.16343e-11
1.48324e-11
1.88863e-11
2.40188e-11
3.05087e-11
3.87045e-11
4.90418e-11
6.20637e-11
7.84469e-11
9.90331e-11
1.24868e-10
1.57249e-10
1.97785e-10
2.48464e-10
3.11746e-10
3.90664e-10
4.8896e-10
6.11236e-10
7.63152e-10
9.51654e-10
1.18526e-09
1.4744e-09
1.83181e-09
2.27308e-09
2.81717e-09
3.48722e-09
4.31133e-09
5.32364e-09
6.56558e-09
8.0873e-09
9.94947e-09
1.22254e-08
1.50035e-08
1.83902e-08
2.25138e-08
2.75281e-08
3.36179e-08
4.10045e-08
4.99527e-08
6.07789e-08
7.38606e-08
8.96479e-08
1.08676e-07
1.31581e-07
1.59119e-07
1.92183e-07
2.31833e-07
2.79321e-07
3.36123e-07
4.03981e-07
4.84943e-07
5.81417e-07
6.96228e-07
8.32691e-07
9.9468e-07
1.18673e-06
1.41412e-06
1.68302e-06
2.0006e-06
2.3752e-06
2.8165e-06
3.3357e-06
3.94578e-06
4.66173e-06
5.50086e-06
6.48312e-06
7.63144e-06
8.9722e-06
1.05356e-05
1.23564e-05
1.44742e-05
1.69343e-05
1.97884e-05
2.30954e-05
2.69222e-05
3.1345e-05
3.64499e-05
4.23347e-05
4.91099e-05
5.69002e-05
6.58462e-05
7.61064e-05
8.78588e-05
0.000101303
0.000116663
0.00013419
0.000154162
0.000176894
0.000202732
0.000232064
0.00026532
0.000302976
0.000345559
0.000393654
0.000447903
0.000509016
0.000577772
0.00065503
0.000741729
0.000838898
0.000947662
0.00106925
0.00120499
0.00135635
0.00152491
0.00171237
0.00192059
0.00215157
0.00240747
0.00269062
0.00300352
0.00334884
0.00372946
0.00414845
0.00460907
0.00511483
0.00566943
0.0062768
0.00694111
0.00766676
0.00845841
0.00932094
0.0102595
0.0112794
0.0123864
0.0135864
0.0148854
0.0162898
0.0178062
0.0194415
0.0212027
0.0230971
0.025132
0.0273152
0.0296544
0.0321575
0.0348326
0.0376878
0.0407313
0.0439713
0.0474162
0.0510741
0.0549531
0.0590615
0.063407
0.0679976
0.0728407
0.0779437
0.0833136
0.088957
0.0948803
0.101089
0.107589
0.114385
0.121482
0.128882
0.13659
0.144607
0.152935
0.161575
0.170527
0.179791
0.189365
0.199246
0.209432
0.219917
0.230698
0.241768
0.25312
0.264745
0.276637
0.288784
0.301176
0.313802
0.32665
0.339706
0.352956
0.366387
0.379983
0.393728
0.407606
0.421599
0.435691
0.449863
0.464097
0.478376
0.492679
0.50699
0.521287
0.535554
0.549771
0.563918
0.577979
0.591935
0.605767
0.619459
0.632993
0.646352
0.659521
0.672485
0.685227
0.697735
0.709994
0.721992
0.733717
0.745158
0.756303
0.767143
0.777669
0.787872
0.797746
0.807282
0.816476
0.825322
0.833814
0.841948
0.849722
0.857132
0.864175
0.87085
0.877155
0.883089
0.888651
0.89384
0.898656
0.9031
0.907171
0.910869
0.914196
0.917151
0.919736
0.92195
0.923794
0.925269
0.926374
0.927111
0.92748
0.92748
0.927111
0.926374
0.925269
0.923794
0.92195
0.919736
0.917151
0.914196
0.910869
0.907171
0.9031
0.898656
0.89384
0.888651
0.883089
0.877155
0.87085
0.864175
0.857132
0.849722
0.841948
0.833814
0.825322
0.816476
0.807282
0.797746
0.787872
0.777669
0.767143
0.756303
0.745158
0.733717
0.721992
0.709994
0.697735
0.685227
0.672485
0.659521
0.646352
0.632993
0.619459
0.605767
0.591935
0.577979
0.563918
0.549771
0.535554
0.521287
0.50699
0.492679
0.478376
0.464097
0.449863
0.435691
0.421599
0.407606
0.393728
0.379983
0.366387
0.352956
0.339706
0.32665
0.313802
0.301176
0.288784
0.276637
0.264745
0.25312
0.241768
0.230698
0.219917
0.209432
0.199246
0.189365
0.179791
0.170527
0.161575
0.152935
0.144607
0.13659
0.128882
0.121482
0.114385
0.107589
0.101089
0.0948803
0.088957
0.0833136
0.0779437
0.0728407
0.0679976
0.063407
0.0590615
0.0549531
0.0510741
0.0474162
0.0439713
0.0407313
0.0376878
0.0348326
0.0321575
0.0296544
0.0273152
0.025132
0.0230971
0.0212027
0.0194415
0.0178062
0.0162898
0.0148854
0.0135864
0.0123864
0.0112794
0.0102595
0.00932094
0.00845841
0.00766676
0.00694111
0.0062768
0.00566943
0.00511483
0.00460907
0.00414845
0.00372946
0.00334884
0.00300352
0.00269062
0.00240747
0.00215157
0.00192059
0.00171237
0.00152491
0.00135635
0.00120499
0.00106925
0.000947662
0.000838898
0.000741729
0.00065503
0.000577772
0.000509016
0.000447903
0.000393654
0.000345559
0.000302976
0.00026532
0.000232064
0.000202732
0.000176894
0.000154162
0.00013419
0.000116663
0.000101303
8.78588e-05
7.61064e-05
6.58462e-05
5.69002e-05
4.91099e-05
4.23347e-05
3.64499e-05
3.1345e-05
2.69222e-05
2.30954e-05
1.97884e-05
1.69343e-05
1.44742e-05
1.23564e-05
1.05356e-05
8.9722e-06
7.63144e-06
6.48312e-06
5.50086e-06
4.66173e-06
3.94578e-06
3.3357e-06
2.8165e-06
2.3752e-06
2.0006e-06
1.68302e-06
1.41412e-06
1.18673e-06
9.9468e-07
8.32691e-07
6.96228e-07
5.81417e-07
4.84943e-07
4.03981e-07
3.36123e-07
2.79321e-07
2.31833e-07
1.92183e-07
1.59119e-07
1.31581e-07
1.08676e-07
8.96479e-08
7.38606e-08
6.07789e-08
4.99527e-08
4.10045e-08
3.36179e-08
2.75281e-08
2.25138e-08
1.83902e-08
1.50035e-08
1.22254e-08
9.94947e-09
8.0873e-09
6.56558e-09
5.32364e-09
4.31133e-09
3.48722e-09
2.81717e-09
2.27308e-09
1.83181e-09
1.4744e-09
1.18526e-09
9.51654e-10
7.63152e-10
6.11236e-10
4.8896e-10
3.90664e-10
3.11746e-10
2.48464e-10
1.97785e-10
1.57249e-10
1.24868e-10
9.90331e-11
7.84469e-11
6.20637e-11
4.90418e-11
3.87045e-11
3.05087e-11
2.40188e-11
1.88863e-11
1.48324e-11
1.16343e-11
9.11456e-12
7.1318e-12
5.57352e-12
4.35038e-12
3.39151e-12
2.64074e-12
2.05364e-12
1.59511e-12
1.23745e-12
9.58803e-13
7.41993e-13
5.73506e-13
4.42735e-13
3.41364e-13
2.62881e-13
2.02195e-13
1.55328e-13
1.19178e-13
9.13295e-14
6.99029e-14
5.34377e-14
4.08009e-14
3.11143e-14
2.36984e-14
1.8028e-14
1.36976e-14
1.03947e-14
7.87859e-15
5.96424e-15
4.50952e-15
3.40546e-15
2.56857e-15
1.93498e-15
1.4559e-15
1.0941e-15
8.21211e-16
6.15632e-16
4.60955e-16
3.44721e-16
2.57482e-16
1.92086e-16
1.43126e-16
1.06515e-16
7.91727e-17
5.87775e-17
4.35832e-17
3.22774e-17
2.38754e-17
1.7639e-17
1.30158e-17
9.59264e-18
7.06121e-18
5.19151e-18
3.81224e-18
2.79602e-18
2.0482e-18
1.49858e-18
1.09512e-18
7.99307e-19
5.82695e-19
4.24271e-19
3.08545e-19
2.24114e-19
1.6259e-19
1.17813e-19
8.52642e-20
6.16334e-20
4.4498e-20
3.20878e-20
2.31108e-20
1.66252e-20
1.19452e-20
8.57225e-21
6.14432e-21
4.39875e-21
3.14529e-21
2.24631e-21
1.60234e-21
1.14161e-21
8.12375e-22
5.77396e-22
4.09891e-22
2.9063e-22
2.05822e-22
1.45586e-22
1.02855e-22
7.25792e-23
5.11536e-23
3.60097e-23
2.53187e-23
1.77805e-23
1.24717e-23
8.73745e-24
6.114e-24
4.27313e-24
2.98295e-24
2.07983e-24
1.4484e-24
1.00747e-24
6.99933e-25
4.85692e-25
3.36626e-25
2.33032e-25
1.61126e-25
1.11275e-25
7.6756e-26
5.28821e-26
3.63905e-26
2.50121e-26
1.7171e-26
1.1774e-26
8.06374e-27
5.5161e-27
3.76888e-27
2.57203e-27
1.75317e-27
1.19359e-27
8.11659e-28
5.51285e-28
3.73993e-28
2.53417e-28
1.71512e-28
1.15942e-28
7.82834e-29
5.27942e-29
3.55623e-29
2.39265e-29
1.60789e-29
1.07924e-29
7.23553e-30
4.84517e-30
3.24068e-30
2.16496e-30
1.44462e-30
9.62818e-31
6.4095e-31
4.2618e-31
2.83042e-31
1.87758e-31
1.24404e-31
8.23307e-32
5.44225e-32
3.59323e-32
2.36964e-32
1.56089e-32
1.02695e-32
6.74871e-33
4.42978e-33
2.90426e-33
1.90187e-33
1.244e-33
8.12734e-34
5.3036e-34
3.4569e-34
2.25058e-34
1.46351e-34
9.50586e-35
6.16709e-35
3.99635e-35
2.58667e-35
1.67229e-35
1.07989e-35
6.9653e-36
4.48742e-36
2.88768e-36
1.85608e-36
1.19163e-36
7.64152e-37
4.89459e-37
3.13148e-37
2.00115e-37
1.27734e-37
8.14386e-38
5.18624e-38
3.29892e-38
2.09599e-38
1.33017e-38
8.43183e-39
5.3387e-39
3.37636e-39
2.13285e-39
1.34578e-39
8.48174e-40
5.33946e-40
3.35745e-40
2.10874e-40
1.32293e-40
8.28994e-41
5.18881e-41
3.24404e-41
2.02584e-41
1.26365e-41
7.87321e-42
4.89981e-42
3.04585e-42
1.89122e-42
1.17295e-42
7.26639e-43
4.49638e-43
2.77914e-43
1.71579e-43
1.05809e-43
6.51753e-44
4.01006e-44
2.46447e-44
1.51287e-44
9.27656e-45
5.6817e-45
3.47596e-45
2.12412e-45
1.29655e-45
7.90513e-46
4.81432e-46
2.92866e-46
1.77955e-46
1.08009e-46
6.54816e-47
3.9654e-47
2.39863e-47
1.44927e-47
8.74673e-48
5.27292e-48
3.17517e-48
1.90982e-48
1.14744e-48
6.88618e-49
4.12798e-49
2.47177e-49
1.47839e-49
8.83252e-50
5.27098e-50
3.14203e-50
1.87086e-50
1.11272e-50
6.61068e-51
3.923e-51
2.32543e-51
1.37691e-51
8.14365e-52
4.81114e-52
2.83918e-52
1.6736e-52
9.85433e-53
5.79586e-53
3.40506e-53
1.99824e-53
1.17135e-53
6.85874e-54
4.01161e-54
2.34374e-54
1.36779e-54
7.97345e-55
4.64295e-55
2.70063e-55
1.56918e-55
9.10848e-56
5.28306e-56
3.064e-56
1.78051e-56
1.04304e-56
6.26861e-57
4.04707e-57
3.08429e-57
)
;

boundaryField
{
    sides
    {
        type            zeroGradient;
    }
    empty
    {
        type            empty;
    }
}


// ************************************************************************* //
