/*--------------------------------*- C++ -*----------------------------------*\
  =========                 |
  \\      /  F ield         | OpenFOAM: The Open Source CFD Toolbox
   \\    /   O peration     | Website:  https://openfoam.org
    \\  /    A nd           | Version:  13
     \\/     M anipulation  |
\*---------------------------------------------------------------------------*/
FoamFile
{
    format      ascii;
    class       volScalarField;
    location    "10";
    object      Ma;
}
// * * * * * * * * * * * * * * * * * * * * * * * * * * * * * * * * * * * * * //

dimensions      [];

internalField   nonuniform List<scalar> 
5250
(
2.99999
2.99996
2.99988
2.99965
2.99918
2.99782
2.99501
2.98669
2.96926
2.92033
2.80642
2.51797
1.89888
0.911289
0.36935
0.336951
0.347834
0.338542
0.30417
0.251481
0.203123
0.162308
0.121041
0.0755078
0.041949
2.99999
2.99996
2.99988
2.99965
2.99919
2.99785
2.99499
2.98709
2.96899
2.92203
2.80743
2.52334
1.90799
0.922401
0.376933
0.338565
0.349534
0.340706
0.306885
0.255148
0.207966
0.168493
0.129432
0.0891449
0.0652151
2.99999
2.99996
2.99987
2.99969
2.99913
2.99805
2.99478
2.9879
2.96881
2.92489
2.81048
2.53389
1.92844
0.947323
0.394313
0.342759
0.354218
0.34683
0.314521
0.265246
0.220952
0.184896
0.150944
0.119271
0.103697
2.99999
2.99996
2.99988
2.99969
2.99919
2.99808
2.99497
2.98839
2.96955
2.92794
2.81625
2.54948
1.95852
0.986456
0.420492
0.348551
0.361368
0.356643
0.326689
0.280999
0.24062
0.209061
0.180905
0.156578
0.145744
2.99999
2.99996
2.99989
2.99969
2.99927
2.99804
2.99556
2.98806
2.97263
2.92874
2.82744
2.56776
2.00007
1.04087
0.455355
0.355437
0.370582
0.36968
0.34266
0.301275
0.265326
0.238638
0.216094
0.197656
0.190107
2.99999
2.99997
2.99989
2.99974
2.99925
2.99832
2.99547
2.98953
2.97294
2.935
2.83579
2.59464
2.05202
1.11276
0.499452
0.363331
0.382008
0.386043
0.362306
0.325733
0.294591
0.273062
0.256271
0.24351
0.239463
3
2.99997
2.99991
2.99973
2.99937
2.99834
2.99602
2.99002
2.97544
2.93945
2.84906
2.62518
2.11597
1.20575
0.553394
0.373139
0.396393
0.406167
0.38576
0.354259
0.328278
0.31229
0.30176
0.2956
0.296969
3
2.99997
2.99991
2.99977
2.99941
2.99852
2.99641
2.99085
2.97823
2.94445
2.86481
2.66016
2.19348
1.32365
0.618328
0.387217
0.415191
0.430705
0.413318
0.38691
0.366343
0.356565
0.353466
0.356246
0.368224
3
2.99998
2.99992
2.99979
2.99948
2.99868
2.99684
2.99186
2.98086
2.95082
2.88111
2.70033
2.28218
1.46921
0.694831
0.410923
0.442269
0.461437
0.44638
0.42462
0.409525
0.406086
0.412002
0.429272
0.463818
3
2.99998
2.99993
2.99982
2.99955
2.99887
2.99723
2.99306
2.98332
2.95784
2.8976
2.74311
2.37955
1.64399
0.783678
0.451652
0.482354
0.499896
0.487021
0.468645
0.458286
0.460853
0.480177
0.52464
0.626391
3
2.99999
2.99994
2.99986
2.99959
2.99909
2.99745
2.99441
2.98485
2.96522
2.9103
2.78202
2.46414
1.80421
0.875242
0.495734
0.521706
0.537505
0.530682
0.516422
0.510505
0.520759
0.557696
0.63907
0.798503
3
2.99999
2.99995
2.99988
2.99965
2.99921
2.9978
2.99518
2.9868
2.97
2.92193
2.81109
2.53048
1.92987
0.985693
0.554389
0.54914
0.563877
0.567632
0.561512
0.562426
0.581535
0.631926
0.729006
0.885546
3
2.99999
2.99996
2.9999
2.99969
2.99932
2.99813
2.99577
2.98885
2.97383
2.93333
2.83711
2.59414
2.05651
1.14008
0.635994
0.566442
0.583285
0.59609
0.600436
0.610131
0.637636
0.692913
0.784109
0.911389
3
2.99999
2.99997
2.99991
2.99976
2.99941
2.99845
2.99643
2.99051
2.97825
2.94319
2.86378
2.65631
2.18873
1.32945
0.733309
0.584219
0.600497
0.619835
0.634161
0.651959
0.684317
0.738275
0.817657
0.922494
3
3
2.99997
2.99993
2.9998
2.99951
2.99876
2.99695
2.99259
2.98136
2.95503
2.88716
2.72133
2.32715
1.55644
0.850524
0.617878
0.627862
0.646966
0.666907
0.688257
0.721618
0.771766
0.840795
0.928915
3.00001
3
2.99998
2.99994
2.99985
2.99961
2.99902
2.99763
2.99396
2.98582
2.9636
2.91335
2.78185
2.47413
1.82911
0.987193
0.675543
0.669895
0.683581
0.703211
0.723419
0.753563
0.798307
0.857796
0.932434
3.00001
3
2.99999
2.99996
2.99987
2.9997
2.99918
2.99813
2.99512
2.98854
2.97098
2.92987
2.82473
2.57064
2.01421
1.1277
0.736434
0.704248
0.718197
0.736029
0.755091
0.781802
0.820076
0.870566
0.933158
3.00001
3
2.99999
2.99997
2.99991
2.99975
2.99938
2.99847
2.99617
2.99089
2.97668
2.94456
2.85973
2.65605
2.18646
1.34685
0.839347
0.732239
0.742614
0.759302
0.779754
0.804179
0.836999
0.879612
0.931634
3.00001
3
3
2.99997
2.99993
2.9998
2.99955
2.99874
2.99724
2.99242
2.98302
2.95539
2.89392
2.73246
2.3596
1.61972
0.969081
0.770709
0.766209
0.778604
0.799409
0.822052
0.850056
0.886009
0.927067
3.00001
3
3
2.99998
2.99994
2.99987
2.99962
2.99916
2.99768
2.99487
2.98634
2.96845
2.91961
2.80553
2.52468
1.93266
1.13004
0.829642
0.797085
0.803778
0.819916
0.838969
0.861839
0.88883
0.918956
3.00001
3.00001
3
2.99999
2.99996
2.9999
2.99971
2.99937
2.99823
2.99613
2.98954
2.97616
2.93854
2.85215
2.63242
2.14626
1.31979
0.899618
0.82091
0.825046
0.837474
0.853603
0.870009
0.887077
0.907381
3.00001
3.00001
3
2.99999
2.99997
2.99992
2.9998
2.99951
2.99872
2.99706
2.99221
2.98224
2.95366
2.89008
2.7229
2.34086
1.59616
1.01947
0.853122
0.842797
0.849521
0.861156
0.870476
0.879221
0.892633
3.00001
3.00001
3
3
2.99998
2.99994
2.99986
2.99962
2.99914
2.99769
2.99485
2.98618
2.96869
2.91928
2.80647
2.52744
1.94157
1.18042
0.903448
0.863061
0.859992
0.862439
0.864993
0.86879
0.877957
3.00001
3.00001
3.00001
3
2.99999
2.99997
2.99989
2.99975
2.99932
2.9984
2.99599
2.99024
2.97616
2.94114
2.85578
2.64472
2.17352
1.37307
0.96183
0.870788
0.857655
0.854732
0.854507
0.856876
0.864921
3.00001
3.00001
3.00001
3
3
2.99997
2.99993
2.9998
2.99954
2.99877
2.99717
2.99271
2.98266
2.95674
2.89443
2.73844
2.37404
1.66134
1.0666
0.87851
0.846649
0.841968
0.840726
0.843796
0.854061
3.00001
3.00001
3.00001
3
3
2.99998
2.99995
2.99985
2.99967
2.9991
2.99798
2.99466
2.98767
2.96855
2.92484
2.81257
2.54774
1.97874
1.20697
0.893876
0.831851
0.824747
0.822866
0.829329
0.845082
3.00001
3.00001
3.00001
3.00001
3
2.99999
2.99997
2.99989
2.99976
2.99933
2.99848
2.99602
2.99068
2.97641
2.94313
2.8582
2.65218
2.18568
1.38224
0.921129
0.800568
0.792472
0.797108
0.812713
0.837265
3.00001
3.00001
3.00001
3.00001
3
2.99999
2.99998
2.99992
2.99982
2.99949
2.99888
2.99691
2.9932
2.98166
2.95782
2.89166
2.73705
2.36566
1.64712
0.984214
0.764276
0.751601
0.766153
0.793901
0.828471
3.00001
3.00001
3.00001
3.00001
3
3
2.99998
2.99994
2.99986
2.99961
2.99912
2.99765
2.99456
2.98603
2.96665
2.91655
2.79546
2.50157
1.88725
1.05514
0.724286
0.70171
0.729668
0.771187
0.816336
3.00001
3.00001
3.00001
3.00001
3
3
2.99999
2.99996
2.99989
2.99969
2.99928
2.99803
2.99563
2.9881
2.973
2.92954
2.82992
2.57564
2.02455
1.13507
0.689611
0.636043
0.677138
0.734232
0.792747
3.00001
3.00001
3.00001
3.00001
3.00001
3
2.99999
2.99997
2.9999
2.99976
2.99933
2.99851
2.99594
2.9907
2.97574
2.94206
2.85305
2.63734
2.143
1.27315
0.691874
0.560164
0.612954
0.688488
0.758171
3.00001
3.00001
3.00001
3.00001
3.00001
3
2.99999
2.99997
2.99992
2.99979
2.99945
2.99868
2.99657
2.99202
2.97902
2.95057
2.87325
2.68789
2.24806
1.42638
0.709263
0.48898
0.556825
0.648324
0.720542
3.00001
3.00001
3.00001
3.00001
3.00001
3
3
2.99997
2.99993
2.9998
2.99956
2.99879
2.99721
2.9927
2.98258
2.956
2.89183
2.72895
2.34288
1.58498
0.740997
0.44436
0.525693
0.622375
0.688066
3.00001
3.00001
3.00001
3.00001
3.00001
3
3
2.99998
2.99994
2.99983
2.9996
2.99892
2.9975
2.99353
2.98448
2.96103
2.90417
2.76058
2.41645
1.71417
0.778255
0.416946
0.503965
0.596185
0.654979
3.00001
3.00001
3.00001
3.00001
3.00001
3
3
2.99998
2.99994
2.99986
2.9996
2.99911
2.99752
2.99442
2.98517
2.96518
2.91089
2.78112
2.45991
1.7871
0.815538
0.402951
0.483085
0.561974
0.618353
3.00001
3.00001
3.00001
3.00001
3.00001
3
3
2.99998
2.99995
2.99986
2.99965
2.99912
2.9978
2.99465
2.98642
2.96741
2.91724
2.79621
2.4947
1.85144
0.874429
0.420313
0.462831
0.524831
0.585067
3.00001
3.00001
3.00001
3.00001
3.00001
3
3
2.99999
2.99995
2.99988
2.99965
2.99922
2.99787
2.99512
2.98717
2.9696
2.92248
2.80909
2.52512
1.90914
0.941245
0.445535
0.44254
0.499559
0.561164
3.00001
3.00001
3.00001
3.00001
3.00001
3
3
2.99999
2.99995
2.99989
2.99967
2.99928
2.99796
2.99552
2.98776
2.97182
2.9268
2.8214
2.55277
1.96765
1.00649
0.471763
0.42663
0.481271
0.543764
3.00001
3.00001
3.00001
3.00001
3.00001
3.00001
3
2.99999
2.99996
2.9999
2.99969
2.99932
2.99811
2.99574
2.98861
2.97331
2.93139
2.83171
2.57829
2.01809
1.07242
0.497187
0.410546
0.466625
0.532426
3.00001
3.00001
3.00001
3.00001
3.00001
3.00001
3
2.99999
2.99996
2.9999
2.99972
2.99935
2.99823
2.99603
2.98912
2.97526
2.93486
2.8422
2.60148
2.0663
1.13817
0.520951
0.392919
0.454304
0.52535
3.00001
3.00001
3.00001
3.00001
3.00001
3.00001
3
2.99999
2.99996
2.99991
2.99973
2.9994
2.99834
2.99622
2.98996
2.97631
2.93927
2.85073
2.62446
2.11181
1.2034
0.542328
0.373361
0.443542
0.521018
3.00001
3.00001
3.00001
3.00001
3.00001
3.00001
3
2.99999
2.99997
2.9999
2.99977
2.99938
2.99855
2.99625
2.9909
2.97721
2.94351
2.85869
2.64601
2.15583
1.26785
0.561081
0.35271
0.433662
0.517659
3.00001
3.00001
3.00001
3.00001
3.00001
3.00001
3
2.99999
2.99997
2.99992
2.99978
2.99945
2.99857
2.99662
2.9911
2.97917
2.94574
2.86805
2.6649
2.19773
1.33101
0.577261
0.331826
0.425002
0.51562
3.00001
3.00001
3.00001
3.00001
3.00001
3.00001
3
2.99999
2.99997
2.99993
2.99978
2.99951
2.9986
2.99689
2.99154
2.98036
2.94891
2.87524
2.68356
2.23673
1.39246
0.59167
0.311585
0.41758
0.514422
3.00001
3.00001
3.00001
3.00001
3.00001
3.00001
3
2.99999
2.99998
2.99992
2.99981
2.99948
2.99881
2.99675
2.99264
2.98017
2.95357
2.8796
2.70215
2.27246
1.45132
0.604013
0.292116
0.41089
0.513
3.00001
3.00001
3.00001
3.00001
3.00001
3.00001
3
3
2.99997
2.99993
2.9998
2.99955
2.99876
2.99716
2.99246
2.98216
2.95417
2.8875
2.71512
2.30586
1.50568
0.614588
0.275069
0.405411
0.511184
3.00001
3.00001
3.00001
3.00001
3.00001
3.00001
3
3
2.99998
2.99993
2.99982
2.99955
2.99884
2.99722
2.99278
2.98295
2.95582
2.89271
2.72694
2.33477
1.55258
0.625199
0.262174
0.401369
0.509197
3.00001
3.00001
3.00001
3.00001
3.00001
3.00001
3
3
2.99998
2.99993
2.99983
2.99956
2.99887
2.9973
2.993
2.98349
2.95721
2.89639
2.73639
2.35778
1.59076
0.636153
0.253005
0.398019
0.507065
3.00001
3.00001
3.00001
3.00001
3.00001
3.00001
3
3
2.99998
2.99994
2.99982
2.99958
2.99886
2.99738
2.99311
2.98368
2.95841
2.89818
2.74325
2.37349
1.61897
0.645323
0.24671
0.395155
0.505086
3.00001
3.00001
3.00001
3.00001
3.00001
3.00001
3
3
2.99998
2.99994
2.99982
2.99959
2.99887
2.9974
2.99319
2.98376
2.9589
2.89899
2.74619
2.38078
1.6329
0.65034
0.243654
0.393297
0.503695
0.971499
0.769782
0.264878
0.230444
0.295113
0.378562
0.405009
0.416471
0.42973
0.447937
0.461553
0.465565
0.463748
0.459784
0.454392
0.445699
0.432835
0.416231
0.396582
0.374555
0.350773
0.325595
0.299516
0.272717
0.244541
0.216036
0.187561
0.159311
0.131428
0.103846
0.0765726
0.0498926
0.0254904
0.0160814
0.0378715
0.0623602
0.0874146
0.111842
0.135436
0.15851
0.1801
0.201458
0.223847
0.246423
0.268089
0.289149
0.309605
0.329803
0.349568
0.368996
0.388094
0.406888
0.425313
0.443541
0.46136
0.479025
0.496312
0.513439
0.530208
0.546768
0.563086
0.579107
0.594969
0.610508
0.625886
0.640988
0.655885
0.67055
0.68499
0.699194
0.713178
0.72691
0.740428
0.753691
0.766743
0.779544
0.792134
0.804461
0.816576
0.828381
0.839979
0.851205
0.862189
0.872753
0.882972
0.892724
0.902019
0.910704
0.918807
0.926085
0.932512
0.937893
0.941958
0.944541
0.945931
0.946858
0.947248
0.946714
0.944873
0.948158
0.950681
0.83104
0.570724
0.42846
0.302013
0.167205
0.0562844
0.0674292
0.126396
0.174649
0.200925
0.204054
0.19567
0.190139
0.184438
0.174704
0.161333
0.145667
0.127391
0.107398
0.0863617
0.0651242
0.0450895
0.0320105
0.0344179
0.0519814
0.0734766
0.096646
0.12016
0.143804
0.167147
0.190093
0.212573
0.234106
0.25509
0.275908
0.296835
0.317375
0.337644
0.357435
0.376386
0.394688
0.413774
0.43318
0.452057
0.470222
0.488023
0.505568
0.522762
0.53976
0.556422
0.572904
0.589069
0.60504
0.620751
0.636211
0.651501
0.666492
0.681358
0.695941
0.710374
0.724585
0.738597
0.75244
0.766064
0.779523
0.792774
0.805838
0.81871
0.831374
0.843862
0.856125
0.868229
0.880097
0.89182
0.903293
0.91463
0.925698
0.936609
0.947252
0.95767
0.96785
0.977697
0.987284
0.996491
1.0053
1.01373
1.02156
1.02889
1.03547
1.04123
1.04607
1.04965
1.05181
1.05289
1.05365
1.0539
1.0532
1.051
1.05391
0.962525
0.931454
0.8286
0.7384
0.64389
0.535952
0.446872
0.36249
0.29316
0.242832
0.204919
0.178628
0.154242
0.135135
0.135239
0.1434
0.153918
0.166468
0.181134
0.197126
0.214082
0.231818
0.250207
0.26883
0.287303
0.306114
0.325141
0.344239
0.363399
0.382402
0.401142
0.419601
0.437631
0.45516
0.472345
0.48925
0.506193
0.522826
0.539461
0.555641
0.57124
0.586255
0.601639
0.617644
0.633543
0.648796
0.663776
0.678423
0.69305
0.707325
0.721647
0.735521
0.74952
0.76301
0.776669
0.789811
0.803122
0.815952
0.828924
0.841456
0.854108
0.866338
0.878686
0.890614
0.902666
0.914309
0.926059
0.937433
0.948867
0.959971
0.971071
0.981894
0.99265
1.00318
1.0136
1.02384
1.0339
1.04384
1.05352
1.06311
1.0724
1.08153
1.0904
1.09897
1.10732
1.11525
1.12285
1.12994
1.13648
1.14238
1.14746
1.15173
1.15483
1.15653
1.15739
1.15801
1.15812
1.15726
1.15461
1.15713
0.986088
0.999885
0.967457
0.915551
0.854363
0.784953
0.714841
0.652071
0.600578
0.562111
0.534599
0.51321
0.499089
0.489524
0.484951
0.484046
0.484315
0.486529
0.490924
0.497423
0.505568
0.515176
0.525672
0.536968
0.548747
0.560986
0.573604
0.586377
0.599305
0.612167
0.624992
0.637584
0.650059
0.662276
0.674273
0.6863
0.698268
0.710406
0.722479
0.734551
0.746109
0.75734
0.768745
0.780946
0.793415
0.805482
0.817324
0.828944
0.840642
0.852147
0.863777
0.875171
0.886683
0.897962
0.909328
0.920498
0.931715
0.942777
0.95385
0.964796
0.975722
0.986529
0.9973
1.00794
1.01854
1.02898
1.03939
1.0496
1.0598
1.06978
1.07973
1.08947
1.09916
1.10866
1.11806
1.12734
1.13645
1.14547
1.15434
1.1631
1.17176
1.18015
1.18844
1.19643
1.2041
1.2115
1.21837
1.22491
1.23085
1.23613
1.24074
1.24428
1.24682
1.248
1.24858
1.24878
1.24853
1.24722
1.24369
1.2455
0.99835
1.03395
1.03552
1.01321
0.977807
0.933855
0.887857
0.845113
0.81302
0.789462
0.773655
0.761267
0.752645
0.747752
0.746927
0.748943
0.750439
0.750411
0.750611
0.752307
0.754986
0.758345
0.762434
0.766977
0.771886
0.777075
0.78258
0.788358
0.794392
0.80071
0.807131
0.813875
0.820592
0.827543
0.834555
0.841901
0.849392
0.857293
0.865387
0.873748
0.881815
0.889759
0.897915
0.906938
0.916544
0.925988
0.935344
0.944548
0.953904
0.963206
0.972707
0.982146
0.991756
1.00129
1.01097
1.02056
1.03027
1.0399
1.04964
1.05929
1.06904
1.07867
1.08841
1.09799
1.10767
1.11717
1.12672
1.13611
1.14549
1.15475
1.16391
1.173
1.18196
1.19084
1.19969
1.20845
1.21721
1.22583
1.23435
1.24272
1.25082
1.25886
1.26652
1.27408
1.28124
1.28813
1.29464
1.30063
1.3062
1.31097
1.31518
1.31826
1.32028
1.32109
1.3215
1.32153
1.32069
1.31886
1.31475
1.31585
0.99953
1.04424
1.06303
1.061
1.04432
1.01954
0.992054
0.96756
0.949829
0.939319
0.933832
0.931515
0.930552
0.930242
0.930642
0.932452
0.934409
0.934276
0.932168
0.930532
0.929627
0.929204
0.929123
0.929308
0.929699
0.930309
0.931219
0.932475
0.934112
0.936132
0.93862
0.941387
0.944654
0.948171
0.952129
0.956397
0.961132
0.96624
0.971902
0.977754
0.983686
0.989364
0.995553
1.00235
1.01017
1.01784
1.02584
1.03356
1.04165
1.04962
1.05792
1.06616
1.07463
1.08309
1.09168
1.1003
1.10899
1.11769
1.12647
1.13522
1.14407
1.15285
1.16171
1.17052
1.17933
1.18814
1.19689
1.20563
1.21433
1.22296
1.23161
1.24013
1.2488
1.25731
1.26587
1.27425
1.28252
1.2907
1.29866
1.30656
1.31417
1.3217
1.32888
1.3359
1.34257
1.3489
1.35488
1.36029
1.36524
1.36946
1.37286
1.37543
1.37649
1.37691
1.37701
1.37668
1.37498
1.37251
1.36777
1.36831
0.993617
1.03979
1.06679
1.07619
1.0731
1.06241
1.04976
1.03938
1.03401
1.03366
1.03704
1.04192
1.04692
1.05086
1.05316
1.05497
1.05758
1.05916
1.05821
1.05524
1.05241
1.04998
1.04793
1.0461
1.04444
1.04296
1.04167
1.04074
1.04012
1.03993
1.04016
1.04082
1.04198
1.04349
1.04554
1.04788
1.05082
1.05407
1.05802
1.06215
1.06646
1.07059
1.07522
1.08047
1.08667
1.09303
1.09971
1.10637
1.11329
1.12028
1.12751
1.13486
1.14241
1.1501
1.1579
1.16586
1.17385
1.182
1.19014
1.19841
1.20668
1.21499
1.22338
1.23168
1.24011
1.24839
1.25677
1.26503
1.27334
1.28164
1.28995
1.29827
1.30645
1.31462
1.32267
1.33062
1.33853
1.34619
1.35389
1.36125
1.3686
1.37561
1.38248
1.38904
1.39528
1.40122
1.40661
1.41164
1.4159
1.41962
1.42237
1.42412
1.42478
1.42499
1.42493
1.42408
1.42165
1.41865
1.41372
1.41395
0.983311
1.02569
1.05504
1.07095
1.0768
1.07723
1.07635
1.07735
1.08178
1.08978
1.09966
1.11032
1.11981
1.12775
1.1329
1.13601
1.13831
1.14088
1.1419
1.14048
1.13714
1.1337
1.13064
1.12774
1.12506
1.12237
1.11986
1.11746
1.11535
1.11357
1.11217
1.11123
1.11074
1.11071
1.11119
1.11211
1.11355
1.11547
1.11805
1.12099
1.1241
1.12722
1.1308
1.1351
1.14022
1.14575
1.15159
1.15765
1.16387
1.17031
1.17688
1.1837
1.19063
1.19779
1.20506
1.21248
1.22004
1.22766
1.23548
1.24329
1.25128
1.25929
1.2674
1.27558
1.28375
1.29206
1.30029
1.30868
1.31698
1.32525
1.33348
1.34157
1.3497
1.35759
1.36554
1.37324
1.38095
1.38845
1.39584
1.40309
1.41007
1.41696
1.42343
1.42977
1.43563
1.44116
1.44618
1.45058
1.45442
1.45733
1.45949
1.46031
1.46059
1.46061
1.46007
1.45813
1.45503
1.45114
1.44624
1.44581
0.968949
1.00565
1.03366
1.05315
1.06593
1.07514
1.08392
1.09385
1.10603
1.11984
1.13468
1.14895
1.16204
1.17272
1.18095
1.18627
1.18981
1.19241
1.19502
1.19613
1.19504
1.19204
1.1888
1.18558
1.18241
1.17935
1.17629
1.17335
1.17053
1.168
1.16577
1.16397
1.16263
1.16177
1.16142
1.16155
1.1622
1.16335
1.16517
1.16737
1.16974
1.17217
1.17503
1.1786
1.18285
1.18764
1.19275
1.19823
1.20392
1.20986
1.216
1.22232
1.22886
1.23556
1.24244
1.24949
1.25665
1.26399
1.27138
1.27894
1.28655
1.29425
1.30206
1.30983
1.31778
1.32564
1.33363
1.34147
1.34938
1.35721
1.36502
1.37283
1.38054
1.38826
1.39582
1.40337
1.41073
1.41801
1.42512
1.43203
1.4388
1.4452
1.45146
1.45724
1.46274
1.46769
1.47211
1.47592
1.47891
1.48116
1.48224
1.48264
1.48267
1.48231
1.48094
1.47809
1.47442
1.47063
1.46596
1.46575
0.950961
0.981502
1.00773
1.02939
1.04765
1.06415
1.08034
1.09712
1.11463
1.1327
1.15043
1.16743
1.18252
1.19579
1.20623
1.21434
1.21991
1.22431
1.22728
1.23013
1.23161
1.23138
1.22924
1.22641
1.22329
1.22023
1.2171
1.21409
1.21107
1.20829
1.20572
1.20349
1.2017
1.20032
1.19946
1.19904
1.19916
1.1998
1.20106
1.20276
1.20463
1.20659
1.20905
1.21214
1.21592
1.22022
1.2249
1.23004
1.2354
1.24109
1.24697
1.25304
1.25937
1.26578
1.27252
1.27927
1.28634
1.29343
1.30073
1.30814
1.31561
1.32327
1.33089
1.33873
1.34647
1.35435
1.36211
1.36995
1.37774
1.38552
1.39331
1.40098
1.40873
1.41626
1.42384
1.43119
1.43851
1.44561
1.45255
1.4593
1.46573
1.47198
1.47778
1.4833
1.48822
1.49267
1.49644
1.49945
1.50171
1.5029
1.50333
1.50334
1.50308
1.50193
1.49934
1.49598
1.49209
1.48873
1.48451
1.48461
0.931198
0.95662
0.981723
1.00542
1.02805
1.04985
1.07129
1.09248
1.11341
1.13384
1.15341
1.17169
1.18842
1.20312
1.21584
1.22623
1.23458
1.24106
1.24625
1.25011
1.253
1.25518
1.25595
1.25502
1.2528
1.25018
1.24749
1.24464
1.2418
1.23915
1.23656
1.2344
1.23243
1.23096
1.22984
1.22923
1.22908
1.22945
1.23043
1.23191
1.23341
1.23519
1.23731
1.24013
1.24354
1.24742
1.25179
1.25654
1.26167
1.2671
1.27273
1.27864
1.28465
1.29097
1.29734
1.30399
1.31071
1.31764
1.3247
1.33187
1.3392
1.34657
1.35414
1.36163
1.36925
1.3768
1.38443
1.39203
1.39962
1.40723
1.41475
1.42232
1.42973
1.43719
1.44445
1.45167
1.45869
1.46555
1.47222
1.47857
1.48475
1.49048
1.49595
1.5008
1.50523
1.50894
1.51196
1.51417
1.51543
1.51587
1.51588
1.51565
1.51459
1.51232
1.50889
1.50566
1.50196
1.4994
1.49577
1.49632
0.911127
0.933611
0.958452
0.984216
1.00998
1.03543
1.05998
1.08375
1.10649
1.12804
1.14845
1.16742
1.18512
1.20106
1.21553
1.22798
1.23876
1.24759
1.25514
1.26113
1.26617
1.2696
1.27215
1.27382
1.27419
1.27301
1.27119
1.26899
1.26655
1.26403
1.26174
1.25973
1.25795
1.25655
1.25548
1.25481
1.25461
1.25486
1.25574
1.25703
1.25846
1.26009
1.2621
1.26478
1.26791
1.27159
1.27566
1.28018
1.28512
1.29031
1.29589
1.30158
1.30758
1.31368
1.32
1.32648
1.33309
1.33993
1.34682
1.35395
1.3611
1.36845
1.37575
1.38314
1.39053
1.39793
1.4054
1.41277
1.42026
1.42758
1.435
1.44226
1.44954
1.45669
1.46373
1.47068
1.47736
1.48397
1.49018
1.49625
1.50188
1.50723
1.51205
1.51633
1.52002
1.52292
1.52508
1.52629
1.52669
1.52666
1.52636
1.52529
1.52277
1.51984
1.51625
1.51336
1.51029
1.50847
1.50571
1.50663
0.893885
0.915313
0.940532
0.967585
0.995079
1.02205
1.048
1.07253
1.09585
1.11771
1.13849
1.15788
1.17621
1.19322
1.20902
1.22338
1.23624
1.24751
1.25733
1.26567
1.27272
1.2783
1.28285
1.28588
1.28813
1.28945
1.28962
1.2889
1.28744
1.28555
1.28373
1.28213
1.28068
1.27953
1.27861
1.27805
1.27788
1.27812
1.27894
1.28017
1.28156
1.28308
1.28503
1.2875
1.29048
1.29394
1.29777
1.30214
1.30677
1.31186
1.31715
1.32272
1.32852
1.33444
1.34064
1.34688
1.35343
1.35999
1.36686
1.37375
1.38084
1.38791
1.39506
1.40227
1.40945
1.41674
1.42393
1.43124
1.43844
1.44569
1.45285
1.45997
1.46704
1.47394
1.4808
1.48737
1.49385
1.49995
1.50586
1.51136
1.51653
1.52119
1.5253
1.52882
1.53157
1.53358
1.53467
1.53499
1.53493
1.53453
1.53322
1.53099
1.52772
1.52467
1.52155
1.51928
1.51715
1.51607
1.5143
1.5157
0.880518
0.902352
0.928252
0.955984
0.984042
1.01123
1.03722
1.06152
1.08451
1.10606
1.12664
1.14619
1.16495
1.18278
1.19974
1.2156
1.23019
1.24344
1.25527
1.26575
1.27482
1.2827
1.28921
1.29455
1.29862
1.30159
1.3036
1.30506
1.30542
1.305
1.30411
1.3031
1.30203
1.30115
1.30047
1.30008
1.3
1.30031
1.30111
1.30238
1.30371
1.30523
1.30714
1.3095
1.31245
1.31573
1.31949
1.32361
1.32811
1.33299
1.33809
1.34355
1.34912
1.355
1.36095
1.36716
1.37347
1.37996
1.38661
1.39335
1.4002
1.40704
1.41403
1.42096
1.42803
1.43502
1.44209
1.44913
1.45613
1.46316
1.47003
1.47696
1.48364
1.49034
1.49674
1.50304
1.50901
1.51471
1.5201
1.52504
1.52959
1.53346
1.53682
1.53933
1.54118
1.54203
1.54224
1.54211
1.54154
1.54007
1.53743
1.5344
1.53112
1.52841
1.52602
1.52448
1.5233
1.52285
1.52192
1.52379
0.871788
0.895121
0.921527
0.949057
0.97635
1.00257
1.02745
1.05087
1.07304
1.09414
1.11445
1.13409
1.15314
1.17163
1.18938
1.20642
1.22243
1.2374
1.25104
1.26354
1.27466
1.28465
1.29327
1.30075
1.30695
1.31205
1.31599
1.31891
1.32091
1.32254
1.32317
1.32314
1.32274
1.32228
1.32195
1.32179
1.32193
1.32235
1.32322
1.3245
1.3258
1.32736
1.32913
1.33146
1.33424
1.33738
1.34099
1.34487
1.34925
1.35385
1.35888
1.36409
1.36959
1.37529
1.38114
1.38721
1.39334
1.39974
1.40613
1.4127
1.41925
1.42594
1.43264
1.4394
1.44622
1.453
1.45988
1.46664
1.47349
1.48017
1.48688
1.49342
1.49986
1.50615
1.51218
1.51805
1.52347
1.52873
1.53341
1.53779
1.54139
1.54456
1.54679
1.54844
1.54903
1.54911
1.54886
1.54812
1.54631
1.54357
1.54032
1.53724
1.53443
1.53237
1.53078
1.5301
1.52966
1.5298
1.52959
1.53184
0.866397
0.891482
0.918198
0.94505
0.971087
0.995813
1.01926
1.04145
1.06274
1.08328
1.10332
1.123
1.14228
1.16124
1.17969
1.19756
1.21476
1.23102
1.24625
1.26037
1.27333
1.28509
1.2957
1.30508
1.31336
1.32038
1.32637
1.33114
1.33494
1.33782
1.34011
1.34179
1.3428
1.34322
1.34341
1.34362
1.34397
1.3445
1.34545
1.34667
1.34801
1.3495
1.35118
1.35345
1.35601
1.35909
1.36239
1.36616
1.37023
1.37466
1.37945
1.38446
1.38982
1.39528
1.40107
1.4069
1.413
1.41916
1.42543
1.43178
1.43815
1.44466
1.45111
1.45772
1.46424
1.47086
1.47741
1.48396
1.49048
1.49687
1.50326
1.50938
1.5155
1.52125
1.52692
1.5321
1.53713
1.5416
1.54575
1.54914
1.55203
1.55405
1.55543
1.55578
1.55569
1.55529
1.55434
1.55223
1.54927
1.54589
1.54291
1.54005
1.53815
1.53668
1.53608
1.536
1.53643
1.53695
1.53739
1.53981
0.863572
0.890539
0.917163
0.942839
0.967213
0.990265
1.01223
1.03332
1.05379
1.07392
1.09375
1.11345
1.13298
1.15225
1.17125
1.18975
1.20777
1.22502
1.24142
1.25691
1.27136
1.28477
1.2971
1.30834
1.31846
1.32746
1.33534
1.34209
1.34778
1.35238
1.35622
1.35928
1.3614
1.3631
1.36429
1.36506
1.36564
1.3663
1.36726
1.36839
1.36977
1.37113
1.37287
1.37497
1.37751
1.38038
1.38352
1.3871
1.39091
1.39518
1.39964
1.40451
1.40956
1.41491
1.42046
1.42618
1.43212
1.43809
1.44423
1.45036
1.45663
1.4629
1.46924
1.47562
1.48194
1.48836
1.49461
1.50097
1.50709
1.51326
1.51916
1.52501
1.53055
1.53591
1.54091
1.54556
1.54985
1.55365
1.55684
1.55939
1.56118
1.56222
1.56241
1.56214
1.56153
1.56027
1.55778
1.55472
1.55119
1.54817
1.54545
1.54345
1.54226
1.54158
1.54182
1.54238
1.54322
1.54414
1.54509
1.54775
0.860442
0.889323
0.91577
0.940181
0.963089
0.984749
1.00561
1.02592
1.04595
1.06583
1.08564
1.10542
1.12511
1.14468
1.16402
1.18305
1.20167
1.21968
1.23703
1.2536
1.2693
1.28409
1.29792
1.31073
1.32253
1.33324
1.34288
1.35141
1.35888
1.36517
1.37051
1.37504
1.37861
1.38141
1.38341
1.38506
1.38628
1.38742
1.38839
1.3896
1.39087
1.3922
1.3939
1.39584
1.39823
1.40079
1.40378
1.40703
1.41067
1.41466
1.41893
1.42357
1.42841
1.43361
1.43894
1.44457
1.45028
1.45611
1.46205
1.46802
1.47412
1.48016
1.48636
1.49245
1.49865
1.50474
1.51084
1.51685
1.52274
1.52856
1.53412
1.53958
1.54465
1.54952
1.55386
1.55796
1.56146
1.56445
1.56665
1.56822
1.56887
1.5689
1.5685
1.56761
1.56598
1.56311
1.55983
1.55631
1.55314
1.55059
1.54847
1.54749
1.5468
1.54717
1.54785
1.54871
1.54998
1.55157
1.5531
1.55567
0.853869
0.884608
0.910985
0.934607
0.956659
0.977733
0.998217
1.01837
1.03838
1.05837
1.07835
1.09833
1.11825
1.13805
1.15767
1.17703
1.19609
1.21472
1.2328
1.25019
1.26688
1.28274
1.29777
1.31188
1.32506
1.33725
1.34843
1.35854
1.36756
1.37548
1.3823
1.38814
1.39328
1.39727
1.40047
1.40295
1.40485
1.40646
1.40769
1.40901
1.4102
1.41161
1.41307
1.41482
1.41685
1.41914
1.42185
1.42479
1.42822
1.43186
1.43595
1.44029
1.44497
1.44994
1.45512
1.46057
1.46608
1.47181
1.47755
1.48344
1.48937
1.4953
1.50134
1.50725
1.51332
1.51914
1.52511
1.53078
1.53651
1.5419
1.54724
1.55214
1.55686
1.561
1.56491
1.56816
1.57096
1.57288
1.57423
1.57458
1.57445
1.57396
1.57283
1.57079
1.56757
1.56414
1.56069
1.55747
1.55505
1.55291
1.55199
1.55139
1.5518
1.55247
1.55341
1.5547
1.55663
1.55897
1.56086
1.56335
0.836805
0.870036
0.897318
0.921518
0.944153
0.9659
0.987133
1.00803
1.02869
1.04918
1.06961
1.08995
1.11024
1.13041
1.15046
1.17026
1.18981
1.20897
1.22762
1.24569
1.26314
1.2799
1.29586
1.31108
1.32535
1.33878
1.35119
1.36266
1.37308
1.38248
1.39073
1.39789
1.40414
1.40945
1.41376
1.4171
1.41983
1.42193
1.42366
1.4251
1.42638
1.42771
1.42899
1.43055
1.4322
1.43428
1.43658
1.43932
1.44238
1.44582
1.44965
1.45376
1.4583
1.46304
1.46814
1.4734
1.47884
1.48448
1.49013
1.49603
1.50179
1.50779
1.5136
1.51958
1.52535
1.53121
1.53683
1.54243
1.54775
1.55295
1.55775
1.56232
1.56634
1.57006
1.57318
1.57579
1.57752
1.57863
1.57885
1.57864
1.57801
1.57651
1.57404
1.57072
1.56714
1.56378
1.56053
1.55823
1.55613
1.55524
1.55471
1.55511
1.55577
1.55669
1.55811
1.56004
1.56259
1.5653
1.5675
1.57002
0.807383
0.843398
0.872827
0.899113
0.92373
0.947353
0.970229
0.99258
1.01453
1.03615
1.0575
1.07864
1.09954
1.12028
1.14074
1.16103
1.18103
1.20077
1.22001
1.23872
1.25683
1.27427
1.29101
1.307
1.32219
1.33658
1.35006
1.36264
1.37424
1.3848
1.39432
1.40273
1.4101
1.41661
1.42207
1.42648
1.43004
1.43289
1.43513
1.43687
1.43841
1.43969
1.44106
1.4424
1.44402
1.44584
1.448
1.45053
1.45338
1.45667
1.46024
1.46423
1.46851
1.47308
1.47799
1.48301
1.48837
1.49375
1.49941
1.50503
1.51087
1.51661
1.52247
1.52822
1.53399
1.53961
1.54514
1.55048
1.55558
1.56041
1.56487
1.56887
1.57245
1.57551
1.57793
1.57958
1.58044
1.58059
1.58041
1.5796
1.57767
1.57477
1.57142
1.56774
1.56452
1.56128
1.55908
1.55707
1.55621
1.55576
1.55618
1.55682
1.55778
1.55915
1.56125
1.56372
1.56663
1.5696
1.57201
1.57461
0.769984
0.807274
0.839029
0.868149
0.895519
0.921678
0.946839
0.971192
0.994874
1.01796
1.04054
1.06268
1.08444
1.10588
1.12703
1.14788
1.16841
1.1886
1.20837
1.22756
1.24623
1.26427
1.28175
1.29852
1.31459
1.32986
1.34429
1.35782
1.37039
1.38193
1.39246
1.4019
1.41022
1.41758
1.4241
1.4296
1.43417
1.43787
1.4409
1.44337
1.44531
1.44698
1.44845
1.4499
1.45145
1.45314
1.45513
1.45735
1.45998
1.46291
1.46622
1.46992
1.47391
1.47831
1.48289
1.48782
1.4929
1.49826
1.50371
1.50935
1.51503
1.52079
1.52653
1.53227
1.53792
1.54347
1.54882
1.55397
1.55881
1.5633
1.56732
1.57086
1.57389
1.57625
1.5778
1.57862
1.57885
1.57866
1.57757
1.57532
1.57218
1.56888
1.5652
1.56216
1.55903
1.55693
1.55504
1.55423
1.55388
1.55433
1.555
1.55595
1.55742
1.55942
1.56205
1.56486
1.56802
1.57118
1.57376
1.57641
0.733178
0.769376
0.801952
0.832648
0.861961
0.890065
0.917129
0.943272
0.968576
0.993166
1.01709
1.04043
1.06325
1.0856
1.10755
1.12908
1.15028
1.17108
1.19154
1.21141
1.23069
1.24938
1.26737
1.28469
1.30125
1.31704
1.33202
1.34617
1.35941
1.3718
1.38323
1.39371
1.40325
1.41172
1.41944
1.42626
1.43204
1.43686
1.44081
1.444
1.44655
1.44867
1.45043
1.45207
1.45362
1.45527
1.45707
1.4591
1.46144
1.46408
1.46712
1.47048
1.47425
1.47833
1.48272
1.48741
1.49235
1.49755
1.5029
1.50844
1.51405
1.51975
1.52544
1.53111
1.53667
1.54209
1.54729
1.5522
1.55676
1.56084
1.56443
1.56744
1.56988
1.57136
1.57232
1.5727
1.57247
1.57097
1.56859
1.56535
1.56224
1.55864
1.55578
1.55285
1.55088
1.54918
1.54846
1.54823
1.54872
1.54944
1.55046
1.55191
1.55405
1.55654
1.55951
1.56255
1.56592
1.56923
1.57196
1.57466
0.696018
0.730501
0.762739
0.793842
0.82401
0.853259
0.881593
0.909045
0.935677
0.961518
0.986678
1.01116
1.03507
1.05842
1.08127
1.10364
1.12554
1.14697
1.16797
1.18828
1.20801
1.22706
1.24554
1.26337
1.28055
1.29708
1.31283
1.32789
1.34205
1.35546
1.36792
1.37955
1.3902
1.3999
1.40864
1.41648
1.42345
1.42933
1.43437
1.43855
1.44202
1.44489
1.44723
1.44927
1.45102
1.45274
1.45442
1.45627
1.45833
1.46065
1.46336
1.46638
1.46986
1.47363
1.4778
1.48225
1.48701
1.49205
1.49725
1.50271
1.50817
1.51382
1.51932
1.52495
1.53025
1.53558
1.5404
1.54511
1.54913
1.55282
1.55579
1.55826
1.55983
1.56104
1.56147
1.56095
1.5592
1.55696
1.55372
1.5508
1.5474
1.54469
1.54198
1.54015
1.53863
1.53801
1.53796
1.53852
1.53926
1.54035
1.54186
1.54395
1.54654
1.54934
1.55256
1.55581
1.55935
1.56281
1.56565
1.56839
0.658279