/*--------------------------------*- C++ -*----------------------------------*\
  =========                 |
  \\      /  F ield         | OpenFOAM: The Open Source CFD Toolbox
   \\    /   O peration     | Website:  https://openfoam.org
    \\  /    A nd           | Version:  13
     \\/     M anipulation  |
\*---------------------------------------------------------------------------*/
FoamFile
{
    format      ascii;
    class       volScalarField;
    location    "10";
    object      p;
}
// * * * * * * * * * * * * * * * * * * * * * * * * * * * * * * * * * * * * * //

dimensions      [1 -1 -2 0 0 0 0];

internalField   nonuniform List<scalar> 
5250
(
1.00001
1.00004
1.00011
1.00031
1.0007
1.00191
1.00433
1.01158
1.02678
1.06974
1.17116
1.45267
2.24429
4.60717
10.696
11.2184
11.0924
11.0932
11.1888
11.4176
11.6325
11.7714
11.8817
11.9686
12.0357
1.00001
1.00004
1.00011
1.00029
1.00074
1.00178
1.00456
1.01081
1.0278
1.06696
1.17197
1.44507
2.23165
4.56325
10.6139
11.2112
11.0863
11.0853
11.1802
11.4084
11.623
11.7625
11.8744
11.9628
12.0314
1.00001
1.00004
1.00011
1.00028
1.00073
1.00177
1.00436
1.01091
1.02649
1.06664
1.16666
1.43629
2.19943
4.47205
10.4304
11.1945
11.0696
11.0586
11.1503
11.3736
11.5853
11.7229
11.8341
11.9216
11.9899
1.00001
1.00004
1.00011
1.00026
1.00072
1.00164
1.00442
1.01003
1.02666
1.0627
1.16304
1.41829
2.15622
4.33196
10.1425
11.1735
11.0455
11.0132
11.0991
11.3131
11.5193
11.6525
11.7603
11.8452
11.9138
1.00001
1.00004
1.0001
1.00028
1.00063
1.00171
1.00387
1.01032
1.02397
1.06212
1.15238
1.40057
2.09396
4.15043
9.74299
11.1524
11.0166
10.9507
11.0288
11.2297
11.4282
11.5547
11.6567
11.7379
11.8078
1.00001
1.00003
1.0001
1.00024
1.00063
1.00154
1.00377
1.00947
1.02288
1.05781
1.14359
1.3742
2.01914
3.92617
9.2215
11.1393
10.9853
10.8705
10.9385
11.122
11.3092
11.4246
11.5162
11.5895
11.6595
1.00001
1.00003
1.00009
1.00023
1.00058
1.00138
1.00362
1.00836
1.02198
1.05189
1.13421
1.34119
1.93324
3.659
8.56654
11.1423
10.9554
10.7731
10.8286
10.9893
11.1596
11.2571
11.3301
11.3861
11.45
1
1.00003
1.00008
1.00021
1.0005
1.00133
1.00305
1.00812
1.01866
1.04901
1.11802
1.30961
1.82864
3.35842
7.76967
11.1592
10.9284
10.66
10.7004
10.8316
10.9774
11.0467
11.0874
11.1066
11.1443
1
1.00003
1.00007
1.00019
1.00044
1.00118
1.00269
1.00719
1.01647
1.04329
1.10379
1.27107
1.71848
3.02873
6.85121
11.1804
10.9021
10.5358
10.5563
10.6486
10.7595
10.787
10.7746
10.7195
10.6674
1
1.00002
1.00006
1.00017
1.00038
1.00102
1.00234
1.00621
1.01423
1.0374
1.08901
1.23154
1.60525
2.68935
5.84292
11.1308
10.8453
10.4123
10.3954
10.4433
10.5019
10.4795
10.3854
10.1679
9.84848
1
1.00002
1.00005
1.00013
1.00036
1.00082
1.00216
1.00503
1.01286
1.031
1.07784
1.19526
1.5118
2.40906
5.02283
10.8188
10.6803
10.3086
10.2057
10.2205
10.2127
10.1304
9.88634
9.32209
7.88791
1
1.00002
1.00005
1.00011
1.00031
1.00071
1.00187
1.00433
1.01121
1.0267
1.06762
1.16827
1.43975
2.20449
4.44035
10.0346
10.3718
10.1916
10.0147
9.98596
9.92253
9.75628
9.37826
8.62024
7.16767
1
1.00001
1.00004
1.0001
1.00026
1.00062
1.00157
1.00385
1.00936
1.02348
1.05728
1.14506
1.37312
2.0179
3.88833
8.89657
10.1748
10.0652
9.84368
9.75422
9.64053
9.40393
8.9375
8.1859
7.07376
1
1.00001
1.00003
1.00008
1.00022
1.00051
1.00137
1.0031
1.00826
1.01897
1.04967
1.11966
1.31318
1.83679
3.36319
7.61243
10.0601
9.96129
9.71317
9.53799
9.37462
9.09537
8.6288
7.95386
7.08195
1
1.00001
1.00003
1.00007
1.00017
1.00045
1.00104
1.00276
1.00625
1.01666
1.03857
1.1002
1.24934
1.66816
2.8535
6.23488
9.97465
9.88432
9.61167
9.34571
9.13738
8.84879
8.41443
7.82283
7.10136
1
1.00001
1.00002
1.00005
1.00015
1.00034
1.00089
1.00202
1.00537
1.0122
1.03217
1.07561
1.19594
1.50271
2.37115
4.7877
9.72539
9.74254
9.53769
9.18814
8.94018
8.65652
8.26136
7.74361
7.13118
1
1.00001
1.00002
1.00004
1.00012
1.00028
1.00069
1.00171
1.00408
1.01037
1.02467
1.06257
1.1542
1.40127
2.08244
4.03701
8.8944
9.51776
9.37687
9.05999
8.78334
8.50828
8.15357
7.704
7.17733
1
1
1.00001
1.00004
1.00009
1.00021
1.00057
1.00129
1.00344
1.00777
1.02068
1.04801
1.12456
1.31269
1.84477
3.35021
7.38387
9.26463
9.19268
8.97088
8.67357
8.40216
8.08668
7.7051
7.24732
1
1
1.00001
1.00003
1.00007
1.00018
1.00041
1.00108
1.00249
1.00641
1.01526
1.03832
1.09423
1.23986
1.63145
2.73583
5.79397
9.07478
9.08423
8.941
8.63223
8.34531
8.06247
7.72263
7.34355
1
1
1.00001
1.00002
1.00006
1.00013
1.00033
1.00076
1.00196
1.00466
1.01157
1.02836
1.06973
1.17481
1.44984
2.20532
4.26119
8.61962
9.03986
8.91562
8.63285
8.3415
8.07245
7.77478
7.47749
1
1
1.00001
1.00002
1.00004
1.0001
1.00025
1.00058
1.0015
1.00351
1.00887
1.02142
1.05311
1.13197
1.33763
1.90171
3.48196
7.49686
8.91661
8.85018
8.64504
8.35969
8.11358
7.88542
7.66115
1
1
1
1.00001
1.00003
1.00007
1.00019
1.00043
1.00114
1.00256
1.00682
1.01556
1.04061
1.09684
1.25061
1.6541
2.79279
5.86142
8.70219
8.79433
8.68047
8.43033
8.21629
8.06154
7.89225
1
1
1
1.00001
1.00002
1.00006
1.00013
1.00034
1.00076
1.00202
1.00457
1.01196
1.02782
1.07081
1.17356
1.44935
2.18992
4.16696
8.24458
8.81826
8.75611
8.59238
8.42454
8.29946
8.1566
1
1
1
1.00001
1.00002
1.00004
1.0001
1.00024
1.00057
1.00147
1.00338
1.00885
1.02035
1.05276
1.12667
1.32912
1.86599
3.37048
7.14637
8.78887
8.87704
8.8228
8.70038
8.57553
8.43253
1
1
1
1
1.00001
1.00003
1.00007
1.00018
1.00043
1.00103
1.00261
1.00613
1.01573
1.03715
1.09461
1.23512
1.62028
2.67889
5.52014
8.66584
9.12444
9.09052
9.00322
8.87461
8.70719
1
1
1
1
1.00001
1.00002
1.00005
1.00013
1.0003
1.00077
1.00186
1.0045
1.01126
1.0269
1.0677
1.16652
1.43057
2.14085
4.05875
8.25825
9.4107
9.40182
9.3412
9.20391
8.9738
1
1
1
1
1.00001
1.00002
1.00004
1.0001
1.00023
1.00057
1.0014
1.00336
1.0085
1.02014
1.05121
1.12475
1.32248
1.85363
3.35498
7.22981
9.59936
9.75624
9.69187
9.52436
9.2133
1
1
1
1
1
1.00001
1.00003
1.00007
1.00017
1.00044
1.00101
1.00265
1.00617
1.01576
1.03793
1.09526
1.23985
1.63184
2.72949
5.72055
9.78381
10.1813
10.0766
9.81705
9.41599
1
1
1
1
1
1.00001
1.00002
1.00006
1.00013
1.00034
1.00082
1.00198
1.005
1.01187
1.03019
1.07275
1.18553
1.4777
2.29806
4.57866
9.67114
10.546
10.4129
10.0758
9.58537
1
1
1
1
1
1.00001
1.00002
1.00005
1.00011
1.00028
1.00064
1.00171
1.00391
1.01028
1.02411
1.06169
1.1523
1.39753
2.08006
4.0613
9.1549
10.7607
10.6363
10.2754
9.71003
1
1
1
1
1
1.00001
1.00002
1.00004
1.0001
1.00022
1.00058
1.00137
1.00343
1.00848
1.02073
1.05204
1.12944
1.33569
1.90782
3.58382
8.19784
10.9985
10.8484
10.3992
9.78815
1
1
1
1
1
1.00001
1.00001
1.00003
1.00008
1.00019
1.0005
1.00114
1.00306
1.00694
1.01857
1.04332
1.11294
1.28429
1.7715
3.18293
7.25984
11.3486
11.0824
10.4279
9.82509
1
1
1
1
1
1
1.00001
1.00003
1.00007
1.00017
1.00042
1.00102
1.00259
1.00614
1.01588
1.03783
1.0972
1.24455
1.65664
2.84603
6.35685
11.6692
11.2674
10.4199
9.85772
1
1
1
1
1
1
1.00001
1.00003
1.00006
1.00015
1.00037
1.0009
1.0023
1.00544
1.0141
1.03341
1.08587
1.21424
1.57026
2.58478
5.58007
11.7233
11.2925
10.4239
9.90877
1
1
1
1
1
1
1.00001
1.00002
1.00006
1.00013
1.00035
1.00082
1.0021
1.00507
1.01261
1.03123
1.07755
1.19703
1.51799
2.44273
5.19216
11.5072
11.198
10.4798
9.98386
1
1
1
1
1
1
1.00001
1.00002
1.00005
1.00012
1.00033
1.00075
1.00199
1.00454
1.01214
1.02808
1.07362
1.18073
1.4815
2.32966
4.86312
11.0739
11.0212
10.6142
10.0753
1
1
1
1
1
1
1.00001
1.00002
1.00005
1.00012
1.0003
1.00072
1.00179
1.00447
1.01083
1.02738
1.06712
1.17125
1.44684
2.23833
4.58187
10.6156
11.0074
10.7185
10.1536
1
1
1
1
1
1
1.00001
1.00002
1.00005
1.00011
1.00029
1.00066
1.00173
1.00406
1.0104
1.02528
1.06351
1.15975
1.41785
2.15329
4.3372
10.1481
11.0425
10.777
10.22
1
1
1
1
1
1
1.00001
1.00002
1.00004
1.0001
1.00027
1.00063
1.0016
1.0039
1.00963
1.02406
1.05934
1.15065
1.39138
2.07909
4.11683
9.6876
11.1241
10.8474
10.2624
1
1
1
1
1
1
1.00001
1.00002
1.00004
1.00009
1.00025
1.00058
1.00154
1.00353
1.00939
1.022
1.0569
1.14046
1.36902
2.00935
3.9168
9.24085
11.2326
10.9254
10.2843
1
1
1
1
1
1
1.00001
1.00001
1.00004
1.00009
1.00023
1.00056
1.0014
1.00348
1.00846
1.02145
1.05246
1.13371
1.34526
1.94745
3.73103
8.81214
11.3671
11.0096
10.2909
1
1
1
1
1
1
1.00001
1.00001
1.00003
1.00009
1.00021
1.00052
1.00134
1.00316
1.00829
1.01945
1.05076
1.12408
1.3269
1.88602
3.56175
8.40229
11.5233
11.0889
10.2995
1
1
1
1
1
1
1.00001
1.00001
1.00003
1.00008
1.00021
1.00048
1.00129
1.00293
1.0079
1.01818
1.04812
1.11661
1.30801
1.83177
3.40323
8.01373
11.6951
11.1652
10.3102
1
1
1
1
1
1
1.00001
1.00001
1.00003
1.00007
1.0002
1.00046
1.00118
1.00286
1.00715
1.01787
1.04416
1.11191
1.28825
1.78399
3.25647
7.64693
11.8752
11.2393
10.3233
1
1
1
1
1
1
1
1.00001
1.00003
1.00008
1.00017
1.00047
1.00105
1.00285
1.00654
1.01732
1.04121
1.1067
1.27159
1.739
3.12456
7.30381
12.0555
11.311
10.3408
1
1
1
1
1
1
1
1.00001
1.00003
1.00007
1.00017
1.00042
1.00105
1.00263
1.00634
1.01629
1.03947
1.10106
1.258
1.69894
3.00561
6.98555
12.2269
11.3816
10.3651
1
1
1
1
1
1
1
1.00001
1.00003
1.00006
1.00017
1.00039
1.00105
1.00239
1.00644
1.0148
1.0393
1.09444
1.24883
1.66225
2.90385
6.69203
12.3801
11.4512
10.3963
1
1
1
1
1
1
1
1.00001
1.00003
1.00006
1.00017
1.00038
1.00102
1.00232
1.00624
1.0143
1.03798
1.09104
1.23951
1.63509
2.81782
6.43077
12.5067
11.5189
10.4332
1
1
1
1
1
1
1
1.00001
1.00003
1.00006
1.00016
1.00039
1.00096
1.00241
1.00577
1.01483
1.03559
1.09112
1.23025
1.61822
2.75012
6.21849
12.5899
11.573
10.4687
1
1
1
1
1
1
1
1.00001
1.00003
1.00006
1.00016
1.00039
1.00094
1.0024
1.0057
1.01474
1.03517
1.09029
1.22715
1.609
2.71511
6.09109
12.6342
11.6115
10.4946
3.82746
3.31991
4.30701
4.35362
4.1181
4.03094
3.99482
3.96937
3.92243
3.86815
3.83767
3.82611
3.82354
3.82586
3.83673
3.85856
3.89465
3.94325
4.00114
4.06597
4.13564
4.20835
4.28244
4.35715
4.4331
4.50679
4.57705
4.64311
4.70453
4.76119
4.813
4.85976
4.90069
4.93887
4.97263
4.99947
5.01937
5.03353
5.04262
5.0463
5.0458
5.04219
5.03331
5.01845
5.0005
4.97945
4.95542
4.92823
4.89833
4.86585
4.83098
4.79393
4.75493
4.71406
4.67163
4.62766
4.58243
4.53598
4.48854
4.44019
4.39107
4.34134
4.29107
4.24044
4.18953
4.13849
4.08743
4.03647
3.98573
3.93532
3.88536
3.83594
3.78715
3.73907
3.69178
3.64532
3.59977
3.55517
3.51159
3.4691
3.42776
3.38764
3.34886
3.31152
3.27577
3.24176
3.20966
3.1797
3.15218
3.12747
3.10601
3.08838
3.07532
3.06763
3.06687
3.06762
3.07007
3.0757
3.08696
3.10239
4.75656
4.29045
4.42678
4.30921
4.09757
4.04048
4.03858
4.0047
3.93226
3.86512
3.82452
3.80941
3.8086
3.82042
3.83482
3.85618
3.8909
3.93908
3.99667
4.06106
4.13021
4.20232
4.27581
4.34905
4.42584
4.49917
4.56947
4.63558
4.69739
4.75425
4.80619
4.8531
4.89487
4.93251
4.9657
4.99282
5.01316
5.02768
5.03677
5.04064
5.04021
5.03738
5.02957
5.01394
4.99542
4.97455
4.95078
4.92392
4.89419
4.86184
4.82711
4.79019
4.75129
4.71057
4.66822
4.62439
4.57925
4.53294
4.48559
4.43737
4.38837
4.33875
4.28861
4.23809
4.18731
4.13638
4.08543
4.03459
3.98396
3.93366
3.88379
3.83447
3.78578
3.73779
3.69057
3.64419
3.5987
3.55416
3.51062
3.46817
3.42687
3.38679
3.34804
3.31077
3.27508
3.24112
3.20906
3.17916
3.15171
3.12708
3.1057
3.08815
3.07517
3.06771
3.06755
3.06843
3.07114
3.07739
3.08962
3.10786
5.60812
4.88486
4.61903
4.37317
4.1725
4.07446
4.0206
3.97042
3.91718
3.86425
3.83053
3.82112
3.82342
3.82629
3.83218
3.84905
3.88482
3.93373
3.9912
4.0557
4.12521
4.19777
4.27178
4.34636
4.4217
4.49483
4.56494
4.63115
4.69278
4.7496
4.80148
4.84833
4.89013
4.92737
4.95981
4.98657
5.00699
5.02152
5.03046
5.0341
5.03366
5.03121
5.02435
5.00977
4.9898
4.96816
4.94437
4.91778
4.88824
4.85604
4.82139
4.78457
4.74574
4.70513
4.66286
4.61915
4.57411
4.52793
4.48072
4.43263
4.38379
4.33432
4.28436
4.234
4.18339
4.13263
4.08186
4.03119
3.98074
3.93062
3.88094
3.83178
3.78326
3.73543
3.68836
3.64211
3.59674
3.5523
3.5089
3.46658
3.42541
3.38545
3.34678
3.30969
3.27421
3.24044
3.2086
3.17895
3.15179
3.12746
3.10646
3.08934
3.07678
3.07028
3.07052
3.07184
3.07529
3.08275
3.09646
3.11882
6.005
5.22793
4.79373
4.51205
4.3124
4.17387
4.09427
4.03759
3.9771
3.91364
3.86511
3.83706
3.82719
3.82908
3.83821
3.85928
3.89546
3.94264
3.99858
4.06133
4.12901
4.19993
4.27257
4.34574
4.41935
4.49126
4.5601
4.62524
4.68611
4.74224
4.79343
4.83959
4.88077
4.91717
4.94871
4.97485
4.99517
5.00961
5.01846
5.0218
5.02138
5.01926
5.0134
5.00058
4.97983
4.95726
4.93316
4.90673
4.87753
4.84563
4.81123
4.77462
4.736
4.6956
4.65356
4.61008
4.5653
4.51938
4.47245
4.42465
4.3761
4.32693
4.27725
4.2272
4.17688
4.12642
4.07595
4.02557
3.97543
3.92561
3.87624
3.82739
3.77917
3.73163
3.68484
3.63886
3.59375
3.54944
3.5063
3.46422
3.42331
3.38366
3.34543
3.30852
3.27322
3.23975
3.20829
3.1791
3.15247
3.12881
3.10855
3.09231
3.08073
3.07596
3.07646
3.07822
3.08276
3.09233
3.10787
3.13441
6.23892
5.51125
5.02643
4.71444
4.50316
4.35595
4.25539
4.18033
4.10345
4.02397
3.95791
3.91408
3.89235
3.88737
3.88917
3.89736
3.91848
3.96179
4.01797
4.07875
4.14339
4.21135
4.28138
4.35215
4.42278
4.49196
4.55842
4.62153
4.68047
4.73486
4.78457
4.8295
4.86961
4.9049
4.93536
4.9607
4.98059
4.99483
5.00353
5.00657
5.00614
5.00422
4.99903
4.98769
4.96728
4.94414
4.9195
4.89294
4.86395
4.83239
4.79835
4.76206
4.72374
4.68362
4.64188
4.5987
4.55425
4.50865
4.46207
4.41461
4.36643
4.31761
4.2683
4.21861
4.16866
4.11857
4.06847
4.01848
3.96873
3.91931
3.87033
3.82192
3.77413
3.72693
3.68045
3.63477
3.58998
3.54628
3.50343
3.46168
3.42111
3.38183
3.34392
3.3075
3.27273
3.23984
3.20903
3.18058
3.15485
3.1322
3.11318
3.09841
3.08852
3.0863
3.08705
3.08954
3.09546
3.10777
3.12529
3.15633
6.42355
5.78009
5.29954
4.97064
4.74712
4.59086
4.47593
4.37967
4.28379
4.18642
4.09805
4.02824
3.98069
3.95513
3.94993
3.95326
3.96518
3.99337
4.04621
4.10585
4.16783
4.23177
4.29707
4.36299
4.42895
4.49388
4.55693
4.61695
4.67338
4.72556
4.77353
4.81677
4.85541
4.88935
4.91855
4.94289
4.96212
4.97601
4.98452
4.98729
4.98686
4.98505
4.98033
4.97008
4.95076
4.92776
4.90275
4.87591
4.84695
4.81565
4.78199
4.74609
4.70816
4.66841
4.62705
4.58427
4.54021
4.49504
4.44889
4.40187
4.35413
4.30577
4.25691
4.20766
4.15817
4.10854
4.05891
4.0094
3.96013
3.9112
3.86265
3.81474
3.76748
3.72089
3.67503
3.62992
3.58565
3.54232
3.49995
3.45866
3.41856
3.37978
3.34245
3.30672
3.27274
3.24069
3.21086
3.18355
3.15913
3.13803
3.1208
3.10807
3.10088
3.10107
3.1023
3.10574
3.11348
3.12934
3.14914
3.18407
6.59089
6.0379
5.59298
5.26819
5.03886
4.87299
4.74187
4.62373
4.50549
4.38592
4.27338
4.17773
4.10572
4.06004
4.03827
4.03841
4.04252
4.05588
4.08645
4.13983
4.19859
4.25831
4.31829
4.37842
4.43854
4.49817
4.55653
4.61268
4.66589
4.71548
4.76113
4.80237
4.83931
4.87165
4.89941
4.92257
4.94091
4.95422
4.9624
4.96482
4.96437
4.9626
4.95811
4.94852
4.93054
4.90826
4.88328
4.85622
4.82715
4.79597
4.76262
4.72712
4.68964
4.65036
4.60948
4.56717
4.52361
4.47896
4.43332
4.38684
4.33964
4.29181
4.24349
4.19478
4.14584
4.09677
4.04774
3.99885
3.9502
3.90198
3.85433
3.8071
3.76042
3.71441
3.6691
3.62453
3.58079
3.53796
3.49617
3.45548
3.41606
3.37802
3.34153
3.30677
3.27382
3.243
3.2146
3.18895
3.16644
3.14751
3.1328
3.12282
3.11971
3.12031
3.12245
3.12776
3.13884
3.15926
3.18041
3.21764
6.76036
6.29482
5.90085
5.59594
5.36684
5.1893
5.03743
4.89399
4.74998
4.60653
4.47083
4.352
4.25686
4.1892
4.14832
4.13213
4.13272
4.13746
4.15127
4.18169
4.23154
4.28621
4.34108
4.3954
4.4493
4.50285
4.5556
4.60695
4.6562
4.70263
4.74566
4.78483
4.81987
4.85056
4.8768
4.89871
4.91605
4.92866
4.93644
4.93851
4.93805
4.93631
4.93199
4.92285
4.90619
4.88501
4.86058
4.83364
4.80455
4.77344
4.74031
4.70522
4.66823
4.6295
4.58919
4.54747
4.50451
4.46044
4.41541
4.36953
4.32292
4.27569
4.22796
4.17986
4.13153
4.0831
4.03473
3.98661
3.93888
3.89153
3.84461
3.79811
3.75211
3.70671
3.66202
3.61809
3.57502
3.53291
3.49187
3.45202
3.41351
3.37649
3.34115
3.30761
3.2761
3.24696
3.22048
3.19705
3.17707
3.16104
3.14959
3.14344
3.14362
3.14488
3.14857
3.15668
3.17282
3.19632
3.21818
3.25571
6.94698
6.56321
6.22371
5.94239
5.71324
5.51875
5.34106
5.16916
4.99927
4.83379
4.67903
4.54211
4.42875
4.34241
4.28314
4.24922
4.23521
4.23547
4.2389
4.24986
4.27461
4.31731
4.36447
4.41242
4.46024
4.50769
4.55446
4.60044
4.64513
4.68783
4.72789
4.7647
4.79776
4.82678
4.85159
4.8722
4.88852
4.90037
4.90772
4.90938
4.9089
4.90715
4.90291
4.89402
4.87848
4.85851
4.83497
4.8085
4.77961
4.74862
4.7157
4.68095
4.64444
4.60629
4.56662
4.52557
4.48328
4.4399
4.39554
4.35033
4.30438
4.2578
4.21074
4.16331
4.1157
4.06814
4.02078
3.97366
3.92683
3.88031
3.83416
3.78842
3.74318
3.69854
3.65459
3.61144
3.5692
3.52796
3.48787
3.44906
3.41169
3.37597
3.34201
3.31003
3.28041
3.25341
3.22938
3.20873
3.19192
3.17948
3.17193
3.17048
3.17126
3.17392
3.18038
3.19374
3.21366
3.2384
3.25951
3.29513
7.16373
6.85004
6.55612
6.29192
6.05569
5.83884
5.63324
5.43453
5.24245
5.06008
4.89196
4.74287
4.6165
4.51523
4.43908
4.38737
4.35549
4.33907
4.33363
4.335
4.34131
4.35726
4.38969
4.42794
4.46933
4.51085
4.55188
4.59262
4.63249
4.67099
4.7076
4.74162
4.77245
4.79965
4.82301
4.84244
4.85776
4.86893
4.87588
4.87714
4.87664
4.87488
4.87067
4.86193
4.84734
4.82857
4.80611
4.78043
4.75204
4.72137
4.68873
4.65434
4.61832
4.58076
4.54177
4.50144
4.45991
4.41726
4.37364
4.32915
4.2839
4.23804
4.19169
4.14511
4.09852
4.05203
4.00566
3.95946
3.91347
3.86777
3.82242
3.77752
3.73314
3.68937
3.64633
3.60412
3.56287
3.52271
3.4838
3.44629
3.41039
3.37631
3.3441
3.31419
3.28692
3.26261
3.24166
3.2245
3.2116
3.20345
3.20081
3.20135
3.20347
3.2089
3.22037
3.23905
3.2605
3.28447
3.30345
3.33535
7.41397
7.15084
6.88472
6.62461
6.37421
6.13389
5.90351
5.68358
5.47588
5.28286
5.107
4.95063
4.81553
4.70262
4.6125
4.54282
4.49224
4.45756
4.43543
4.42218
4.41933
4.42139
4.42941
4.44777
4.47896
4.51242
4.5472
4.58278
4.6181
4.65247
4.68541
4.71622
4.74438
4.7695
4.7913
4.80957
4.82409
4.83469
4.84123
4.84221
4.84169
4.83991
4.83574
4.82713
4.81333
4.79562
4.77428
4.74959
4.72197
4.69186
4.65969
4.62575
4.59024
4.5533
4.515
4.47543
4.43467
4.39283
4.35
4.30627
4.26178
4.2167
4.17134
4.12586
4.08037
4.03489
3.98948
3.9442
3.89913
3.85435
3.80994
3.766
3.72261
3.67987
3.63789
3.59681
3.55676
3.51792
3.48044
3.44454
3.41049
3.3782
3.34827
3.32095
3.29658
3.27557
3.25833
3.2453
3.23691
3.23371
3.23413
3.23597
3.24085
3.2513
3.26875
3.2892
3.31
3.33143
3.34719
3.37437
7.68758
7.45065
7.19259
6.92508
6.65773
6.39763
6.14953
5.91651
5.70057
5.50263
5.32332
5.16286
5.02161
4.8993
4.79604
4.71048
4.64202
4.58873
4.54851
4.51886
4.49914
4.48687
4.48616
4.48861
4.49706
4.51559
4.54347
4.57036
4.60064
4.63137
4.6609
4.68839
4.71363
4.73642
4.7565
4.77354
4.78724
4.79729
4.80365
4.80443
4.80389
4.80212
4.79801
4.78958
4.77647
4.75972
4.73944
4.71582
4.68917
4.65989
4.62842
4.5951
4.56021
4.5239
4.48631
4.4475
4.40755
4.36653
4.32451
4.28158
4.23797
4.19397
4.14975
4.1054
4.06096
4.0165
3.97209
3.92781
3.88375
3.83999
3.79663
3.75375
3.71148
3.66991
3.62917
3.58942
3.55081
3.51355
3.47783
3.44395
3.41188
3.38205
3.35487
3.33065
3.30981
3.29274
3.27987
3.27159
3.26827
3.26864
3.27042
3.27519
3.28537
3.30239
3.32188
3.3417
3.36004
3.37767
3.38953
3.41191
7.9676
7.73345
7.46791
7.18715
6.9052
6.6324
6.37525
6.13698
5.91872
5.71992
5.53981
5.37716
5.23104
5.10067
4.98578
4.88577
4.80072
4.72966
4.67148
4.62483
4.58864
4.56144
4.54373
4.53318
4.53332
4.53603
4.5444
4.56247
4.58195
4.6079
4.63349
4.65754
4.67998
4.70049
4.71876
4.73447
4.74725
4.7568
4.76289
4.76365
4.76313
4.76141
4.75744
4.74934
4.73689
4.72097
4.7017
4.67918
4.65363
4.62541
4.59488
4.5624
4.52826
4.49269
4.45584
4.4178
4.37866
4.33846
4.29727
4.25529
4.21282
4.17002
4.12697
4.08373
4.04038
3.997
3.95367
3.91049
3.86753
3.82491
3.78271
3.74105
3.70005
3.65983
3.62056
3.58238
3.54551
3.51015
3.47662
3.44498
3.41543
3.38859
3.36473
3.34426
3.32757
3.31511
3.3072
3.30414
3.30456
3.30651
3.31156
3.32223
3.3391
3.35807
3.37688
3.39418
3.40885
3.42202
3.43038
3.44736
8.23606
7.98787
7.70694
7.41323
7.12242
6.84488
6.58646
6.34918
6.13287
5.93578
5.75595
5.59131
5.44046
5.30247
5.17705
5.06404
4.9642
4.87705
4.8022
4.739
4.68659
4.64411
4.61103
4.5865
4.57077
4.5617
4.56192
4.56444
4.57185
4.58681
4.60476
4.62399
4.64349
4.6617
4.67815
4.69242
4.70416
4.71306
4.71883
4.71964
4.71915
4.71752
4.71379
4.70615
4.69437
4.67926
4.66095
4.63955
4.61522
4.58823
4.55887
4.52744
4.49424
4.45953
4.42349
4.38627
4.34796
4.30858
4.26835
4.22755
4.18632
4.14474
4.10288
4.06081
4.01863
3.97641
3.93427
3.89228
3.85054
3.80918
3.76829
3.72801
3.68847
3.64983
3.61226
3.57596
3.54116
3.50814
3.47716
3.44808
3.42175
3.39844
3.37855
3.36245
3.35056
3.34328
3.34075
3.34128
3.34349
3.34913
3.36083
3.37789
3.39661
3.41478
3.43104
3.44461
3.45514
3.46379
3.46933
3.481
8.48227
8.20992
7.91253
7.61038
7.31769
7.0427
6.789
6.55688
6.34474
6.15002
5.97017
5.80303
5.64717
5.50191
5.36708
5.24299
5.1299
5.02847
4.93869
4.86027
4.79263
4.73512
4.68723
4.64831
4.61801
4.59563
4.58125
4.57263
4.57265
4.57423
4.57942
4.59064
4.60546
4.62021
4.63456
4.64725
4.65782
4.66598
4.67142
4.67225
4.67179
4.67028
4.6668
4.65971
4.64863
4.63433
4.61702
4.59681
4.57382
4.5482
4.52018
4.48999
4.45792
4.42423
4.38914
4.35282
4.31536
4.27696
4.23791
4.19838
4.15841
4.11809
4.07748
4.03667
3.99574
3.9548
3.91394
3.87326
3.83289
3.79294
3.75354
3.71484
3.677
3.64021
3.60466
3.5706
3.53828
3.50811
3.47976
3.45414
3.43158
3.41245
3.39719
3.38605
3.37958
3.37795
3.37866
3.38125
3.38772
3.40083
3.41834
3.43696
3.45471
3.47024
3.48284
3.49213
3.49863
3.50305
3.50631
3.51362
8.70072
8.40034
8.09063
7.78697
7.49944
7.23267
6.98749
6.76239
6.5548
6.36185
6.18106
6.01063
5.84947
5.69722
5.55395
5.42007
5.29574
5.18203
5.07915
4.98702
4.90532
4.83368
4.77158
4.71859
4.6743
4.63826
4.61016
4.58933
4.57571
4.56865
4.56524
4.5663
4.56991
4.57787
4.58869
4.59873
4.60798
4.61526
4.6203
4.62122
4.62081
4.61942
4.61624
4.60972
4.59928
4.58585
4.56966
4.55077
4.52922
4.5051
4.47856
4.44979
4.41904
4.38655
4.35259
4.31729
4.28089
4.2437
4.20594
4.1677
4.12905
4.09005
4.05077
4.01131
3.97175
3.9322
3.89276
3.85356
3.81472
3.77637
3.73869
3.70182
3.66597
3.63134
3.59819
3.56678
3.53755
3.51019
3.48543
3.46385
3.44573
3.43148
3.42149
3.4157
3.41534
3.41628
3.41953
3.42701
3.44202
3.46008
3.47875
3.49621
3.51119
3.52303
3.53142
3.53636
3.53902
3.54039
3.54174
3.54538
8.88681
8.56226
8.24774
7.95057
7.67449
7.41984
7.18486
6.9668
6.76279
6.57031
6.38743
6.21299
6.0464
5.88757
5.73675
5.59429
5.4605
5.33637
5.22208
5.11774
5.02328
4.93852
4.8631
4.79671
4.73898
4.68956
4.64814
4.61437
4.58795
4.56849
4.55546
4.54533
4.542
4.54248
4.54439
4.54879
4.55558
4.56108
4.56532
4.56632
4.56598
4.56475
4.56184
4.55581
4.54602
4.53361
4.51869
4.50123
4.48122
4.45869
4.43374
4.40655
4.37731
4.34626
4.31363
4.2796
4.24454
4.20874
4.17236
4.13549
4.09822
4.06062
4.02277
3.98477
3.9467
3.90869
3.87084
3.8333
3.7962
3.75971
3.72399
3.68927
3.65575
3.62369
3.59338
3.56526
3.53917
3.51547
3.49505
3.47814
3.46513
3.45645
3.45202
3.45225
3.45375
3.45813
3.46758
3.48385
3.50261
3.52147
3.53876
3.55336
3.56457
3.57236
3.57603
3.5775
3.57734
3.57668
3.57507
3.57589
9.04059
8.70143
8.39224
8.10903
7.84865
7.60753
7.38224
7.16971
6.96755
6.77406
6.58817
6.40935
6.23745
6.07261
5.91508
5.76521
5.6231
5.49006
5.36587
5.2508
5.14496
5.0483
4.96063
4.88165
4.81118
4.74893
4.69463
4.64809
4.60906
4.57719
4.55286
4.533
4.51833
4.50962
4.50459
4.50366
4.50404
4.50516
4.50746
4.50792
4.50753
4.50625
4.5033
4.49734
4.48863
4.47753
4.46402
4.44805
4.42962
4.40875
4.38551
4.36004
4.33252
4.30315
4.27208
4.23965
4.20621
4.17198
4.1371
4.10172
4.06593
4.02984
3.99354
3.95712
3.92071
3.88441
3.84835
3.81269
3.77758
3.74323
3.70982
3.6776
3.64684
3.61783
3.59099
3.56641
3.544
3.52495
3.50951
3.49792
3.49076
3.48812
3.48868
3.49097
3.49686
3.50907
3.52641
3.54572
3.56476
3.58194
3.59625
3.60705
3.61412
3.61737
3.61732
3.61679
3.61516
3.6115
3.60413
3.60446
9.16795
8.82527
8.53152
8.26841
8.02534
7.79662
7.57878
7.36948
7.16737
6.97178
6.78242
6.59927
6.42248
6.25225
6.08884
5.93254
5.78377
5.64236
5.50935
5.38487
5.26897
5.16161
5.06272
4.97217
4.88975
4.81534
4.74881
4.68995
4.63863
4.59463
4.55782
4.52855
4.50273
4.48353
4.4698
4.46068
4.45485
4.45137
4.44964
4.44827
4.44649
4.44394
4.44026
4.43486
4.42736
4.41761
4.40554
4.3911
4.3743
4.35517
4.33376
4.31018
4.28456
4.25707
4.2279
4.19739
4.16579
4.13331
4.10012
4.06638
4.03222
3.99778
3.96318
3.92851
3.89393
3.85954
3.82552
3.792
3.7592
3.72732
3.69662
3.66735
3.63985
3.61449
3.59165
3.57079
3.55333
3.53951
3.5298
3.52396
3.52355
3.52456
3.52784
3.53556
3.55096
3.56953
3.5893
3.60839
3.62545
3.63949
3.64995
3.65655
3.65903
3.65883
3.65788
3.65539
3.65011
3.6422
3.63044
3.63046
9.26976
8.93997
8.67053
8.42997
8.20345
7.98477
7.77165
7.56351
7.36031
7.16222
6.96951
6.78246
6.60134
6.42636
6.25776
6.09574
5.94058
5.79229
5.65175
5.51899
5.39408
5.27709
5.16802
5.06683
4.97342
4.88773
4.80962
4.73904
4.67584
4.62006
4.5715
4.53016
4.49585
4.4649
4.44145
4.42353
4.41019
4.40042
4.39344
4.38828
4.38397
4.37978
4.37519
4.36969
4.36277
4.35406
4.34332
4.33044
4.31536
4.29808
4.27863
4.25709
4.23356
4.2082
4.18117
4.15278
4.12324
4.09273
4.06143
4.02954
3.9972
3.9646
3.93187
3.89916
3.86661
3.83439
3.80265
3.77161
3.74146
3.71248
3.68493
3.65915
3.63551
3.6146
3.59553
3.57988
3.56794
3.56017
3.55666
3.55704
3.55903
3.56433
3.57545
3.59262
3.61247
3.63285
3.65208
3.669
3.68278
3.69291
3.69916
3.70108
3.70078
3.69956
3.69657
3.69038
3.68049
3.67002
3.65579
3.65442
9.35745
9.05669
8.81491
8.59392
8.37916
8.16665
7.9561
7.74825
7.54389
7.34372
7.14828
6.95802
6.77323
6.59419
6.42104
6.25399
6.09319
5.93875
5.79159
5.6515
5.51862
5.39304
5.27483
5.16399
5.06052
4.96442
4.87563
4.79415
4.71995
4.65296
4.59316
4.54034
4.49475
4.45537
4.42058
4.39322
4.37129
4.35402
4.34071
4.33046
4.32236
4.31554
4.30927
4.3029
4.29585
4.28767
4.27796
4.2665
4.25312
4.23774
4.22033
4.20094
4.17963
4.15663
4.13192
4.10584
4.07857
4.05024
4.02107
3.99125
3.96098
3.93044
3.89983
3.86931
3.83906
3.80928
3.78017
3.75195
3.72489
3.69927
3.67543
3.65374
3.63485
3.61793
3.60422
3.59465
3.58867
3.588
3.58895
3.59222
3.59996
3.61533
3.63419
3.65499
3.67583
3.69522
3.71212
3.72575
3.73562
3.74153
3.74302
3.74263
3.74122
3.73784
3.73092
3.7208
3.70824
3.69582
3.67997
3.67699
9.43991
9.17655
8.95833
8.7509
8.5438
8.33557
8.12725
7.92019
7.71558
7.51433
7.31715
7.12457
6.93695
6.75455
6.57757
6.40617
6.24051
6.08087
5.92741
5.78074
5.64085
5.50769
5.38135
5.26186
5.14931
5.04375
4.9452
4.85369
4.76923
4.69181
4.62144
4.55813
4.5018
4.45278
4.40859
4.37076
4.33945
4.31381
4.293
4.27648
4.26342
4.25287
4.24393
4.23586
4.22799
4.21971
4.21059
4.20021
4.18831
4.17471
4.15931
4.14209
4.12309
4.10234
4.08023
4.0567
4.03189
4.00599
3.97919
3.95171
3.92376
3.89558
3.86736
3.83933
3.8117
3.7847
3.75858
3.73362
3.71012
3.6884
3.66889
3.65216
3.63775
3.62622
3.61893
3.61585
3.61632
3.61853
3.62423
3.63621
3.65401
3.67476
3.69653
3.71779
3.73734
3.75425
3.76782
3.77758
3.78327
3.78446
3.78401
3.78244
3.7788
3.77138
3.76082
3.74829
3.73389
3.7199
3.70281
3.69839
9.52747
9.29552
9.09214
8.89263
8.69096
8.4869
8.28166
8.07664
7.87309
7.67202
7.47424
7.28036
7.0908
6.90587
6.72582
6.55081
6.38102
6.21659
6.05784
5.90547
5.75936
5.61947
5.48587
5.35869
5.23803
5.124
5.01665
4.91608
4.82229
4.73533
4.65522
4.582
4.51568
4.45619
4.40411
4.35593
4.31521
4.28081
4.25215
4.22856
4.20935
4.19377
4.18098
4.17018
4.16059
4.15151
4.14234
4.13258
4.12183
4.1098
4.0963
4.08122
4.06456
4.04635
4.02676
4.00581
3.98361
3.96032
3.93612
3.91125
3.88592
3.86038
3.83486
3.80964
3.78498
3.76114
3.73846
3.71723
3.69785
3.68063
3.66636
3.65446
3.64569
3.64044
3.64057
3.64193
3.646
3.65488
3.67156
3.69144
3.71356
3.73625
3.75809
3.77794
3.79497
3.8086
3.81832
3.82398
3.82496
3.82447
3.82281
3.81898
3.81126
3.80058
3.78774
3.77345
3.7576
3.74228
3.72416
3.71856
9.61369
9.39983
9.20599
9.01324
8.81747
8.61856
8.41755
8.21573
8.01441
7.81468
7.61743
7.4233
7.2328
7.04628
6.86401
6.68622
6.51308
6.34465
6.18136
6.02398
5.87237
5.72653
5.58659
5.45263
5.32482
5.20328
5.08812
4.97944
4.87727
4.78172
4.69277
4.61053
4.535
4.46623
4.4043
4.3488
4.29846
4.25531
4.21834
4.18708
4.16104
4.13961
4.12204
4.10755
4.09534
4.08462
4.0747
4.06496
4.05488
4.04406
4.0322
4.0191
4.00467
3.98891
3.97186
3.95355
3.93408
3.91359
3.89223
3.87026
3.84783
3.82528
3.80279
3.78078
3.75945
3.73926
3.72046
3.70356
3.68883
3.67699
3.66814
3.66153
3.66012
3.66093
3.66401
3.67118
3.68563
3.70435
3.72647
3.75002
3.77362
3.79609
3.81643
3.8338
3.84762
3.85752
3.86303
3.86413
3.86361
3.86191
3.85801
3.85016
3.83945
3.82665
3.81217
3.79648
3.77943
3.76299
3.74404
3.73746
9.6898
9.48214
9.29713
9.11269
8.92391
8.73078
8.53451
8.33655
8.13827
7.94082
7.74506
7.55168
7.36119
7.17399
6.99039
6.81066
6.63501
6.46359
6.2966
6.13452
5.97799
5.82699
5.68154
5.54176
5.40778
5.27976
5.15782
5.04208
4.93258
4.82943
4.73264
4.64232
4.55849
4.48127
4.41063
4.34697
4.28859
4.23682
4.19158
4.15255
4.11935
4.0915
4.0684
4.04937
4.03363
4.02041
4.00895
3.99854
3.98856
3.97849
3.96792
3.95655
3.94419
3.93077
3.91624
3.90061
3.88398
3.86641
3.84811
3.82921
3.80999
3.79067
3.77163
3.75314
3.73567
3.71956
3.70526
3.69327
3.68389
3.67804
3.67465
3.67515
3.67745
3.68333
3.69549
3.713
3.73458
3.75841
3.78326
3.80792
3.83121
3.85217
3.87005
3.88428
3.89448
3.90031
3.90135
3.90086
3.89921
3.8954
3.8877
3.8771
3.86441
3.85006
3.83428
3.81743
3.79938
3.78199
3.7624
3.75505
9.75103
9.54276
9.36754
9.1929
9.01168
8.82436
8.6329
8.4391
8.24442
8.04993
7.85646
7.66463
7.47495
7.28786
7.1037
6.92279
6.74536
6.57165
6.40168
6.23603
6.07543
5.92
5.76983
5.62506
5.48582
5.35227
5.22451
5.10266
4.9868
4.877
4.77332
4.67586
4.58467
4.49986
4.42148
4.34965
4.28457
4.22443
4.17144
4.12485
4.08443
4.04987
4.02076
3.99653
3.97652
3.96
3.94622
3.93441
3.9239
3.91404
3.90432
3.89435
3.88383
3.87257
3.86048
3.84753
3.83378
3.8193
3.8042
3.78864
3.77286
3.75713
3.74183
3.72736
3.71415
3.70274
3.69345
3.68704
3.6837
3.6839
3.68549
3.69011
3.70007
3.71712
3.73727
3.7608
3.78636
3.81264
3.83847
3.86278
3.8846
3.90316
3.91802
3.92869
3.93494
3.93644
3.93597
3.93439
3.93078
3.92347
3.91315
3.90073
3.8866
3.87102
3.85416
3.83634
3.81747
3.7993
3.77924