/*--------------------------------*- C++ -*----------------------------------*\
  =========                 |
  \\      /  F ield         | OpenFOAM: The Open Source CFD Toolbox
   \\    /   O peration     | Website:  https://openfoam.org
    \\  /    A nd           | Version:  13
     \\/     M anipulation  |
\*---------------------------------------------------------------------------*/
FoamFile
{
    format      ascii;
    class       surfaceScalarField;
    location    "10";
    object      phi;
}
// * * * * * * * * * * * * * * * * * * * * * * * * * * * * * * * * * * * * * //

dimensions      [1 0 -1 0 0 0 0];

internalField   nonuniform List<scalar> 
10325
(
0.00840004
-1.44279e-11
0.0084
8.60397e-10
0.00840014
2.91417e-10
0.00839978
8.59436e-09
0.00840063
2.88226e-09
0.00839861
5.6563e-08
0.00840321
2.25863e-08
0.0083932
3.40529e-07
0.00841145
1.8658e-07
0.00838061
1.72059e-06
0.00841281
2.51384e-06
0.00837115
9.81476e-06
0.00835708
3.01088e-05
0.00822038
0.000126827
0.00762197
0.000587418
0.00701573
0.000606539
0.00640947
0.000606502
0.00578194
0.000627575
0.00512035
0.000661278
0.00441018
0.000709606
0.00364242
0.000767188
0.0028171
0.000824709
0.00193822
0.000878322
0.00100277
0.000934841
0.00100207
0.00840003
2.89081e-10
0.00840004
8.63856e-10
0.00840002
4.62832e-09
0.00840001
8.33108e-09
0.00839993
3.47314e-08
0.00840014
4.61048e-08
0.00839908
2.44455e-07
0.00840106
2.58193e-07
0.00839605
1.42014e-06
0.00840105
1.76888e-06
0.00839135
7.39653e-06
0.00838542
1.79884e-05
0.00834871
6.28263e-05
0.00821827
0.000254028
0.00761642
0.00117758
0.00700731
0.00121607
0.00641128
0.00120294
0.00578626
0.00125245
0.0051269
0.00132032
0.00441064
0.00142537
0.00363494
0.00154231
0.00280061
0.00165841
0.0019093
0.00176906
0.000968163
0.00187536
0.00196952
0.00840003
1.59392e-10
0.00840004
1.9425e-09
0.00839998
3.89944e-09
0.00840012
1.89606e-08
0.00839985
2.77147e-08
0.00840013
1.26494e-07
0.00839956
1.64874e-07
0.00839975
7.63153e-07
0.00839843
1.14834e-06
0.00839885
4.18178e-06
0.00839176
9.23431e-06
0.00838624
2.8776e-05
0.00835322
9.21682e-05
0.00822773
0.000374922
0.00763702
0.0017556
0.00702478
0.00182866
0.00643522
0.00179294
0.00581922
0.00186816
0.00516447
0.00197471
0.00445034
0.00213906
0.00367249
0.00231953
0.00283299
0.00249725
0.00193027
0.00267126
0.000975736
0.00282919
0.00294445
0.00840003
4.58899e-10
0.00840005
1.28436e-09
0.00839995
8.8146e-09
0.00840021
1.32328e-08
0.00839952
6.33898e-08
0.00840125
1.00007e-07
0.00839713
3.72051e-07
0.00840619
6.92921e-07
0.00838773
2.09148e-06
0.00841463
4.75159e-06
0.00837694
1.31465e-05
0.00839856
3.72403e-05
0.00834659
0.000121419
0.00824209
0.000484277
0.00767181
0.00231154
0.00706293
0.00243791
0.00648485
0.0023715
0.0058801
0.00247263
0.00523505
0.00261937
0.00452972
0.00284395
0.00375628
0.00309234
0.00291285
0.00334009
0.00199824
0.00358517
0.0010167
0.00381
0.0039604
0.00840003
3.85187e-10
0.0084
2.65976e-09
0.00840013
7.95948e-09
0.00839981
2.53289e-08
0.00840056
6.06644e-08
0.00839882
1.56099e-07
0.00840274
4.11695e-07
0.0083942
9.13109e-07
0.00840964
2.60386e-06
0.00838309
5.80723e-06
0.00841072
1.66014e-05
0.00837166
4.54802e-05
0.00836215
0.000150046
0.00825177
0.000581114
0.00772161
0.00282991
0.00711944
0.00304122
0.00655461
0.00293699
0.00596525
0.00306167
0.00533572
0.0032485
0.0046457
0.00353355
0.00388311
0.00385426
0.00303911
0.00418332
0.00210643
0.00451729
0.00108439
0.00483133
0.00504402
0.00840003
3.66664e-10
0.00840004
3.27206e-09
0.00839999
8.73189e-09
0.0084001
3.2445e-08
0.00839988
6.35608e-08
0.00840007
2.20388e-07
0.00839972
3.84512e-07
0.00839936
1.36779e-06
0.00839914
2.47729e-06
0.00839782
7.98945e-06
0.00839317
1.82767e-05
0.00838676
5.53589e-05
0.00835984
0.000173984
0.00826983
0.000666188
0.00780286
0.00328217
0.00720687
0.00363871
0.00665154
0.00349323
0.00608013
0.00363278
0.00547136
0.00385686
0.00480269
0.00420169
0.00405655
0.00459986
0.00321781
0.00502131
0.00226681
0.00546757
0.00118921
0.00590808
0.00623234
0.00840003
6.68951e-10
0.00840004
2.74923e-09
0.00840002
1.33446e-08
0.00840004
2.67508e-08
0.00839988
9.83285e-08
0.00840035
1.80933e-07
0.00839862
6.14644e-07
0.00840251
1.15677e-06
0.00839339
3.65998e-06
0.00840663
7.80597e-06
0.00838538
2.26734e-05
0.00839481
6.08343e-05
0.00835779
0.000196949
0.00829583
0.000730381
0.00794933
0.00361186
0.00734852
0.00424157
0.00679248
0.00405039
0.00623792
0.00418705
0.00565394
0.00444046
0.00501439
0.00484061
0.00429099
0.00532256
0.00346271
0.00584874
0.00249845
0.00643098
0.00135382
0.00705194
0.00758516
0.00840003
5.58539e-10
0.00840001
3.54544e-09
0.00840007
1.21504e-08
0.00839992
3.47341e-08
0.0084003
8.9996e-08
0.00839923
2.32876e-07
0.0084018
5.73159e-07
0.00839561
1.45527e-06
0.00840819
3.59152e-06
0.00838467
9.18555e-06
0.00841311
2.37799e-05
0.00837604
6.66374e-05
0.00838547
0.000209124
0.00833752
0.000762224
0.00821645
0.003718
0.00758444
0.00487673
0.00700653
0.00462988
0.00645913
0.00473426
0.00590021
0.00499906
0.0052927
0.00544752
0.00460267
0.00601201
0.00379741
0.00665311
0.00283586
0.00739153
0.00162541
0.00826135
0.00920946
0.00840003
5.70642e-10
0.00840002
3.66167e-09
0.00840007
1.23399e-08
0.00839993
3.58049e-08
0.00840029
9.26911e-08
0.0083993
2.37631e-07
0.00840178
5.93561e-07
0.00839602
1.47336e-06
0.00840814
3.71245e-06
0.00838617
9.27662e-06
0.00841551
2.4272e-05
0.00838284
6.68173e-05
0.00840816
0.00020689
0.00841555
0.000737808
0.00866439
0.00345388
0.00799514
0.00554951
0.00733766
0.00528918
0.00678752
0.00528439
0.00623712
0.0055492
0.00566263
0.00602139
0.00501061
0.00666318
0.00427507
0.00738764
0.00337784
0.00828767
0.00210166
0.0095364
0.0113098
0.00840003
4.92244e-10
0.00840002
3.50179e-09
0.00840006
1.07133e-08
0.00839996
3.42699e-08
0.00840023
8.00662e-08
0.00839953
2.25042e-07
0.00840137
5.1642e-07
0.00839723
1.37085e-06
0.00840692
3.26895e-06
0.00839054
8.39737e-06
0.00841819
2.12617e-05
0.00839875
5.8088e-05
0.00845308
0.000173779
0.00857601
0.000598194
0.00940925
0.00260503
0.00868939
0.00627183
0.00782802
0.00615215
0.00727951
0.00583352
0.00670023
0.0061282
0.00615895
0.00656219
0.00558717
0.00723404
0.00495977
0.00801392
0.00413897
0.00910711
0.00293449
0.0107393
0.0142427
0.00840003
4.26775e-10
0.00840004
2.90498e-09
0.0084
9.5738e-09
0.00840013
2.80901e-08
0.00839985
7.18285e-08
0.00840059
1.83804e-07
0.00839911
4.5391e-07
0.00840254
1.1369e-06
0.00839672
2.7664e-06
0.00840895
6.97922e-06
0.00839586
1.74743e-05
0.00842715
4.66919e-05
0.0084465
0.000135028
0.00860449
0.000446998
0.00933461
0.00186391
0.00903185
0.00656895
0.00841306
0.00676845
0.00778175
0.00646504
0.00726234
0.00664695
0.00676453
0.00705924
0.00632242
0.00767496
0.00584756
0.00848726
0.00542648
0.00952637
0.0053893
0.0107744
0.0113384
0.00829078
0.00840003
4.2752e-10
0.00840004
2.48989e-09
0.0084
9.07003e-09
0.00840013
2.44994e-08
0.00839985
6.66434e-08
0.00840055
1.6184e-07
0.00839909
4.18766e-07
0.00840254
9.91895e-07
0.00839587
2.55811e-06
0.00840914
6.17413e-06
0.00839099
1.58899e-05
0.0084203
4.14151e-05
0.00841266
0.000118781
0.00848405
0.000386217
0.00880561
0.00153254
0.00891719
0.00644368
0.00863935
0.00704379
0.00811403
0.00698937
0.00769148
0.007068
0.00729453
0.00745468
0.0069491
0.00801866
0.00668179
0.00875253
0.00658474
0.00962082
0.00698102
0.010375
0.0104261
0.00788961
0.00840003
3.43596e-10
0.00840004
2.58187e-09
0.00840001
7.97305e-09
0.00840009
2.51018e-08
0.00839993
5.93261e-08
0.00840022
1.66134e-07
0.00839977
3.71225e-07
0.00840027
1.02713e-06
0.00839961
2.28612e-06
0.00840092
6.20689e-06
0.00839917
1.46758e-05
0.00840531
3.98132e-05
0.00840705
0.000110188
0.00844029
0.000354487
0.00863264
0.00133432
0.0089097
0.00615173
0.00862602
0.0073258
0.0082806
0.00733303
0.00799773
0.00735
0.00773308
0.00771747
0.00750601
0.00824332
0.00739538
0.00886021
0.00755543
0.00945798
0.00801461
0.00991178
0.00985186
0.00858253
0.00840003
4.21048e-10
0.00840004
2.09779e-09
0.00840001
8.66325e-09
0.00840009
2.05323e-08
0.00839989
6.39271e-08
0.00840043
1.39277e-07
0.00839913
3.98516e-07
0.00840248
8.79734e-07
0.00839522
2.4137e-06
0.00841088
5.55549e-06
0.00838439
1.48317e-05
0.00842223
3.72644e-05
0.00838949
0.000105226
0.00844223
0.000327819
0.00856587
0.00119268
0.00914564
0.00555855
0.00886698
0.00760374
0.00856822
0.00763093
0.00830928
0.00760658
0.00813926
0.00788559
0.00803419
0.00834558
0.00805906
0.00883132
0.00826039
0.00925183
0.0086619
0.00950542
0.00938079
0.00912652
0.00840003
2.89613e-10
0.00840003
2.29391e-09
0.00840004
6.6838e-09
0.00840002
2.24346e-08
0.00840009
5.0267e-08
0.00839986
1.48453e-07
0.00840057
3.21365e-07
0.00839879
9.12064e-07
0.00840352
2.01412e-06
0.00839413
5.56169e-06
0.00841224
1.29642e-05
0.00839195
3.52439e-05
0.00842508
9.40365e-05
0.00844346
0.000289424
0.00862764
0.0010149
0.00977409
0.00439216
0.00937633
0.00799893
0.00896955
0.00803586
0.00869139
0.00788304
0.00853963
0.00803438
0.00850098
0.00838012
0.00857891
0.00874931
0.00879157
0.00903336
0.0091401
0.0091505
0.00897859
0.00953444
0.00840003
2.99253e-10
0.00840004
1.62465e-09
0.00840002
6.22812e-09
0.00840006
1.58294e-08
0.00839997
4.61539e-08
0.00840026
1.04147e-07
0.00839963
2.91549e-07
0.00840161
6.41114e-07
0.00839774
1.76765e-06
0.00840884
3.94874e-06
0.00839248
1.06475e-05
0.00843111
2.53948e-05
0.00842074
6.9395e-05
0.00854118
0.000197658
0.00888375
0.000652266
0.0106314
0.00264031
0.0100968
0.00852313
0.00973815
0.00839127
0.00921289
0.00840548
0.00899356
0.0082508
0.00894542
0.00842298
0.00902169
0.00866688
0.00921596
0.008832
0.00951318
0.0088446
0.00863482
0.00984778
0.00840003
2.04581e-10
0.00840003
1.50588e-09
0.00840003
4.70137e-09
0.00840006
1.46703e-08
0.00840001
3.48768e-08
0.0084001
9.744e-08
0.00840007
2.15902e-07
0.00840004
5.9997e-07
0.00840086
1.30666e-06
0.00839987
3.60042e-06
0.00840461
8.09094e-06
0.00840519
2.17242e-05
0.00842189
5.43966e-05
0.00846174
0.000155874
0.00861818
0.000495914
0.00932716
0.00192157
0.0102393
0.00759238
0.00995772
0.00866769
0.00964432
0.00871391
0.00940009
0.00849032
0.00933821
0.00847912
0.00940509
0.0085929
0.00957039
0.00865744
0.0098232
0.00858047
0.00834485
0.0101007
0.00840003
2.11597e-10
0.00840003
1.15137e-09
0.00840003
4.47315e-09
0.00840004
1.1263e-08
0.0084
3.28819e-08
0.00840015
7.53762e-08
0.00839979
2.0391e-07
0.00840091
4.7024e-07
0.00839846
1.22399e-06
0.00840527
2.91397e-06
0.00839298
7.38037e-06
0.00841867
1.83459e-05
0.00839499
4.74875e-05
0.00844922
0.000131257
0.0085104
0.000408391
0.00894893
0.00148947
0.0101399
0.00637861
0.0100728
0.00872969
0.00989683
0.00888457
0.00970757
0.00867501
0.00965784
0.0085205
0.00972254
0.00851881
0.00986787
0.00850146
0.0100992
0.00833723
0.00810483
0.0103253
0.00840003
1.58004e-10
0.00840003
1.06063e-09
0.00840004
3.42769e-09
0.00840001
1.02943e-08
0.00840009
2.5711e-08
0.00839994
6.71184e-08
0.00840035
1.65682e-07
0.00839962
4.06321e-07
0.00840154
1.0325e-06
0.00839834
2.44054e-06
0.00840614
6.4132e-06
0.00839721
1.52317e-05
0.00842063
4.07234e-05
0.00842265
0.000107915
0.00851843
0.000327467
0.00886033
0.00113454
0.0106134
0.0046044
0.0104213
0.00891426
0.0103039
0.0089961
0.0100857
0.00888641
0.00997743
0.00861961
0.0100119
0.00847225
0.0101498
0.00834923
0.0103264
0.00814689
0.00788808
0.0105276
0.00840003
1.25016e-10
0.00840004
7.88295e-10
0.00840003
2.72401e-09
0.00840005
7.75682e-09
0.00840001
2.00928e-08
0.00840014
5.12306e-08
0.00839993
1.25658e-07
0.00840054
3.13068e-07
0.00839978
7.59563e-07
0.00840205
1.89235e-06
0.00840065
4.58139e-06
0.00840951
1.14883e-05
0.00841269
2.85803e-05
0.00845646
7.52636e-05
0.00855744
0.000213022
0.0090061
0.000688445
0.0109372
0.0026599
0.011081
0.00875297
0.0107753
0.00929257
0.0104805
0.00917194
0.0103322
0.00875732
0.0103297
0.00846054
0.0104218
0.00824241
0.0105384
0.00801445
0.00768176
0.010727
0.00840003
9.60257e-11
0.00840003
6.234e-10
0.00840003
2.12378e-09
0.00840005
6.09405e-09
0.00840001
1.57372e-08
0.00840012
4.04618e-08
0.00839994
9.76663e-08
0.00840048
2.489e-07
0.00839963
5.88069e-07
0.008402
1.50685e-06
0.00839912
3.53943e-06
0.00840809
9.11167e-06
0.00840354
2.20247e-05
0.00843467
5.79088e-05
0.00847208
0.000158317
0.00867151
0.000496601
0.00947116
0.00184608
0.0110215
0.00717425
0.0110083
0.00929132
0.0108457
0.00932034
0.0106454
0.00894461
0.0106181
0.00847199
0.0106647
0.00817992
0.0107704
0.00788824
0.00748363
0.0109493
0.00840003
8.48934e-11
0.00840003
4.66225e-10
0.00840003
1.7893e-09
0.00840004
4.54199e-09
0.00840002
1.31495e-08
0.00840009
3.03583e-08
0.00839995
8.16902e-08
0.00840043
1.88682e-07
0.00839946
4.9061e-07
0.00840246
1.15885e-06
0.00839713
2.93957e-06
0.00841156
7.17832e-06
0.00839263
1.80574e-05
0.00843615
4.62133e-05
0.00843139
0.000125078
0.00857788
0.000376592
0.00907855
0.00132095
0.0111054
0.00511756
0.0111888
0.00918911
0.0111603
0.00933102
0.0109719
0.0091157
0.0108691
0.00855928
0.0108867
0.00814354
0.0110147
0.00774006
0.00729144
0.0111895
0.00840003
5.54766e-11
0.00840003
3.7231e-10
0.00840004
1.21437e-09
0.00840003
3.62619e-09
0.00840005
9.05699e-09
0.00840001
2.35007e-08
0.00840016
5.738e-08
0.0083999
1.41092e-07
0.00840079
3.49926e-07
0.00839941
8.37103e-07
0.00840419
2.11589e-06
0.00839787
4.9918e-06
0.00841845
1.28007e-05
0.00840931
3.10465e-05
0.00847906
8.27079e-05
0.00859418
0.000231947
0.00917344
0.000750811
0.0114398
0.00282703
0.0117217
0.00887453
0.011436
0.00959472
0.0113004
0.00922931
0.0111686
0.00867062
0.0111887
0.0081015
0.0113042
0.00760619
0.00711377
0.01147
0.00840003
4.07766e-11
0.00840003
2.69065e-10
0.00840003
9.12094e-10
0.00840004
2.63174e-09
0.00840003
6.74234e-09
0.00840005
1.7517e-08
0.00840005
4.1331e-08
0.00840007
1.08512e-07
0.00840027
2.45057e-07
0.00839989
6.56841e-07
0.00840213
1.45994e-06
0.00839877
3.9345e-06
0.00841165
8.8904e-06
0.0084027
2.36853e-05
0.00844723
5.82188e-05
0.00849011
0.000163523
0.00875173
0.000503416
0.00968262
0.00186653
0.011557
0.00695001
0.011537
0.00959025
0.0115529
0.00919247
0.0115002
0.00870316
0.0115053
0.00807707
0.0116119
0.00748736
0.00695084
0.0117716
0.00840003
3.23333e-11
0.00840003
1.93385e-10
0.00840003
6.93005e-10
0.00840003
1.88597e-09
0.00840004
5.09587e-09
0.00840003
1.24624e-08
0.00840007
3.18562e-08
0.00840005
7.59275e-08
0.00840013
1.93063e-07
0.00840035
4.57158e-07
0.00840012
1.15646e-06
0.00840257
2.77246e-06
0.00840076
6.97617e-06
0.00841313
1.7138e-05
0.00841769
4.38347e-05
0.00846922
0.000117348
0.00861063
0.000349093
0.00925324
0.00121186
0.0115711
0.00456907
0.0117904
0.00933583
0.0117407
0.00922267
0.0117429
0.00868067
0.0117974
0.00800647
0.0119359
0.00734595
0.00679242
0.0120997
0.00840003
2.12564e-11
0.00840003
1.40453e-10
0.00840003
4.69245e-10
0.00840003
1.37113e-09
0.00840004
3.48619e-09
0.00840003
8.93387e-09
0.00840008
2.18194e-08
0.00840001
5.3891e-08
0.00840023
1.31001e-07
0.00840009
3.19718e-07
0.00840065
7.8405e-07
0.00840131
1.89311e-06
0.00840284
4.68569e-06
0.00840913
1.14097e-05
0.00842217
2.87223e-05
0.00846189
7.42532e-05
0.00859789
0.00020963
0.00912762
0.000672308
0.0111166
0.00254155
0.0119734
0.00841487
0.0119774
0.00919348
0.0120469
0.00859067
0.0121435
0.00790042
0.0122723
0.00722724
0.00665887
0.0124198
0.00840003
1.63747e-11
0.00840003
9.67263e-11
0.00840003
3.46685e-10
0.00840003
9.41337e-10
0.00840004
2.54346e-09
0.00840003
6.17703e-09
0.00840006
1.58119e-08
0.00840002
3.73932e-08
0.00840013
9.53446e-08
0.00840011
2.22776e-07
0.00840028
5.68182e-07
0.00840106
1.33098e-06
0.00840079
3.38335e-06
0.00840666
8.08606e-06
0.00840864
2.05293e-05
0.00843438
5.20016e-05
0.00848935
0.000143874
0.00871054
0.00044538
0.00955434
0.00165998
0.0115622
0.00630228
0.011961
0.00876797
0.0121785
0.00837354
0.0123991
0.0076822
0.0125709
0.00706704
0.006525
0.012724
0.00840003
9.83544e-12
0.00840003
6.88678e-11
0.00840003
2.21235e-10
0.00840003
6.73921e-10
0.00840004
1.64934e-09
0.00840003
4.39641e-09
0.00840006
1.03235e-08
0.0084
2.65927e-08
0.0084002
6.20823e-08
0.00839988
1.58727e-07
0.00840093
3.72226e-07
0.00839934
9.4452e-07
0.00840422
2.24761e-06
0.00839863
5.65221e-06
0.00841709
1.38872e-05
0.00841177
3.55282e-05
0.00847744
9.52485e-05
0.00860808
0.000283628
0.00926209
0.000986629
0.0115275
0.00390337
0.0119288
0.00832162
0.0122751
0.00804323
0.0125308
0.00744268
0.0127594
0.00686332
0.00636554
0.012944
0.00840003
7.62704e-12
0.00840003
4.33142e-11
0.00840003
1.59965e-10
0.00840003
4.23375e-10
0.00840004
1.1745e-09
0.00840003
2.77218e-09
0.00840005
7.26342e-09
0.00840002
1.67119e-08
0.0084001
4.35121e-08
0.00840006
9.8273e-08
0.0084002
2.58766e-07
0.00840054
5.7896e-07
0.00840051
1.52143e-06
0.00840384
3.4675e-06
0.00840482
8.97336e-06
0.00842105
2.16039e-05
0.00845064
5.75511e-05
0.0085654
0.000162136
0.00900031
0.00053084
0.0107022
0.00213933
0.0116051
0.0073298
0.0121554
0.00750406
0.0125288
0.00708797
0.0128316
0.0065934
0.00617809
0.0130461
0.00840003
4.41945e-12
0.00840003
3.38139e-11
0.00840003
9.94986e-11
0.00840003
3.304e-10
0.00840003
7.38644e-10
0.00840003
2.13294e-09
0.00840005
4.67404e-09
0.00840001
1.2642e-08
0.00840013
2.87855e-08
0.00839988
7.34503e-08
0.00840059
1.75725e-07
0.00839925
4.23199e-07
0.008403
1.07349e-06
0.00839641
2.46066e-06
0.00841182
6.48036e-06
0.0083953
1.5181e-05
0.00843415
4.0859e-05
0.00844962
0.000112089
0.0086203
0.000359942
0.00929391
0.001405
0.010686
0.00579023
0.011461
0.00673748
0.0121325
0.00643303
0.0125722
0.00618351
0.00590186
0.0128729
0.00840003
3.57058e-12
0.00840003
2.35539e-11
0.00840003
7.9437e-11
0.00840003
2.2849e-10
0.00840003
5.87031e-10
0.00840004
1.5115e-09
0.00840002
3.58702e-09
0.00840006
9.39442e-09
0.00839999
2.11543e-08
0.00840016
5.72167e-08
0.00839988
1.25286e-07
0.0084004
3.45883e-07
0.00839977
7.46326e-07
0.0084009
2.08406e-06
0.00840012
4.58392e-06
0.00840444
1.25559e-05
0.00840481
3.06671e-05
0.00842822
8.77236e-05
0.00849346
0.000272259
0.00883544
0.00101758
0.00984364
0.0046123
0.010697
0.005918
0.0115049
0.00565769
0.0120334
0.00568215
0.0055179
0.0124404
0.00840003
3.00589e-12
0.00840003
1.55706e-11
0.00840003
6.33613e-11
0.00840003
1.5206e-10
0.00840003
4.65465e-10
0.00840003
1.03065e-09
0.00840003
2.90879e-09
0.00840005
6.4695e-09
0.00839999
1.7517e-08
0.00840015
4.03941e-08
0.00839974
1.03143e-07
0.00840089
2.53411e-07
0.00839825
6.11766e-07
0.00840494
1.56971e-06
0.00839181
3.72377e-06
0.00841606
9.74459e-06
0.00838687
2.45743e-05
0.0084299
6.89527e-05
0.00844649
0.000213041
0.0086595
0.000778455
0.00950259
0.00358972
0.0102256
0.0052458
0.0108635
0.00505662
0.0113969
0.0051593
0.00504514
0.0118791
0.00840003
1.83377e-12
0.00840003
1.19359e-11
0.00840003
4.02642e-11
0.00840003
1.17624e-10
0.00840003
3.02514e-10
0.00840003
7.77275e-10
0.00840004
1.93367e-09
0.00840002
4.78894e-09
0.00840006
1.18725e-08
0.00840001
2.92344e-08
0.00840007
7.28895e-08
0.00840011
1.77807e-07
0.00839972
4.48477e-07
0.00840121
1.09256e-06
0.00839819
2.78244e-06
0.00840556
6.91401e-06
0.00840061
1.80773e-05
0.0084201
4.94385e-05
0.00845931
0.000151739
0.00866619
0.000541171
0.00958419
0.0024827
0.0101029
0.00476908
0.0103893
0.00480472
0.0108906
0.00467575
0.00457018
0.0113818
0.00840003
1.23606e-12
0.00840003
9.38003e-12
0.00840003
2.70001e-11
0.00840003
9.21996e-11
0.00840003
2.04836e-10
0.00840003
5.90384e-10
0.00840004
1.34421e-09
0.00840002
3.46548e-09
0.00840005
8.72986e-09
0.00840002
1.974e-08
0.00840004
5.59977e-08
0.00840013
1.1343e-07
0.00839964
3.51717e-07
0.00840132
6.6707e-07
0.00839784
2.15424e-06
0.00840626
4.28928e-06
0.00839955
1.27868e-05
0.00842202
3.15013e-05
0.00845781
9.64012e-05
0.00865099
0.000324529
0.00958108
0.00145627
0.00987804
0.00441168
0.00995593
0.00469395
0.0104359
0.00419883
0.00410811
0.0109019
0.00840003
1.25185e-12
0.00840003
6.61436e-12
0.00840003
2.6034e-11
0.00840003
6.47723e-11
0.00840003
1.86787e-10
0.00840004
4.437e-10
0.00840003
1.10376e-09
0.00840005
2.85757e-09
0.0084
6.3104e-09
0.00840011
1.80179e-08
0.00839988
3.63652e-08
0.00840035
1.11738e-07
0.00839947
2.12531e-07
0.00840092
6.86449e-07
0.00839839
1.27931e-06
0.00840303
4.03559e-06
0.00839663
8.59547e-06
0.00840996
2.52179e-05
0.00841578
7.03622e-05
0.00848615
0.000237416
0.00884048
0.00102784
0.00932361
0.00383806
0.00959017
0.00437451
0.00995807
0.00384369
0.00367945
0.0103981
0.00840003
9.06252e-13
0.00840003
6.25518e-12
0.00840003
1.92151e-11
0.00840003
6.07272e-11
0.00840003
1.46666e-10
0.00840003
3.76909e-10
0.00840003
9.82778e-10
0.00840003
2.14886e-09
0.00840002
6.27501e-09
0.00840007
1.21526e-08
0.00839987
3.93501e-08
0.00840043
6.85531e-08
0.00839892
2.43775e-07
0.00840265
4.02685e-07
0.00839408
1.45621e-06
0.00841078
2.6596e-06
0.00838378
8.39875e-06
0.0084157
1.97416e-05
0.00839076
6.01086e-05
0.00842955
0.000195336
0.00857155
0.000818427
0.00879629
0.00350971
0.00934015
0.00378276
0.00960657
0.00360151
0.0033344
0.00996797
0.00840003
7.78725e-13
0.00840003
5.50389e-12
0.00840003
1.73238e-11
0.00840003
5.33733e-11
0.00840003
1.28625e-10
0.00840004
3.50916e-10
0.00840003
8.07595e-10
0.00840004
2.18371e-09
0.00840001
4.83387e-09
0.00840008
1.31906e-08
0.00839993
2.89734e-08
0.00840013
7.99357e-08
0.00839981
1.71463e-07
0.00839984
4.79147e-07
0.00839949
1.05663e-06
0.00839945
2.81636e-06
0.00839674
6.84253e-06
0.00839902
1.84562e-05
0.00839148
5.29766e-05
0.008408
0.000173383
0.00847775
0.000692006
0.00862815
0.00322303
0.0090096
0.00338774
0.00934192
0.00327393
0.00301558
0.0096757
0.00840003
8.35579e-13
0.00840003
4.50483e-12
0.00840003
1.73929e-11
0.00840003
4.43261e-11
0.00840003
1.27821e-10
0.00840003
2.97529e-10
0.00840003
7.9037e-10
0.00840005
1.80444e-09
0.0084
4.80695e-09
0.00840011
1.08882e-08
0.00839986
2.85478e-08
0.00840043
6.57169e-08
0.00839916
1.71459e-07
0.00840157
3.95518e-07
0.00839654
1.02861e-06
0.00840449
2.46017e-06
0.00839013
6.33339e-06
0.00840503
1.64615e-05
0.00838545
4.72022e-05
0.00839815
0.000153415
0.00842378
0.000606207
0.00854797
0.00294812
0.00883473
0.00310639
0.00920123
0.00291819
0.00274096
0.00949041
0.00840003
6.68153e-13
0.00840003
4.68526e-12
0.00840003
1.50034e-11
0.00840003
4.51985e-11
0.00840003
1.1152e-10
0.00840003
3.00588e-10
0.00840003
6.88662e-10
0.00840004
1.89499e-09
0.00840001
4.05459e-09
0.00840009
1.15995e-08
0.0083999
2.39912e-08
0.00840024
7.0269e-08
0.00839956
1.41872e-07
0.00840037
4.22734e-07
0.00839845
8.63463e-07
0.00840069
2.48122e-06
0.00839428
5.62925e-06
0.00839906
1.55783e-05
0.00838556
4.30025e-05
0.00838596
0.000139913
0.00839358
0.00054176
0.00848288
0.00269099
0.00876107
0.00285213
0.00909554
0.0026046
0.0024816
0.00936891
0.00840003
7.21712e-13
0.00840003
3.91022e-12
0.00840003
1.50285e-11
0.00840003
3.83792e-11
0.00840003
1.11368e-10
0.00840003
2.50847e-10
0.00840003
7.12675e-10
0.00840004
1.49406e-09
0.0084
4.42891e-09
0.0084001
8.90402e-09
0.00839984
2.69677e-08
0.00840046
5.2522e-08
0.00839898
1.6475e-07
0.00840235
3.15143e-07
0.00839462
9.75935e-07
0.00840843
2.02097e-06
0.00838391
5.72259e-06
0.00840975
1.39783e-05
0.00837437
4.04681e-05
0.00838651
0.000128337
0.00837332
0.000490415
0.00843245
0.00244828
0.00871371
0.00260703
0.00902537
0.00232198
0.00223591
0.00928365
0.00840003
7.26174e-13
0.00840003
3.50382e-12
0.00840003
1.51983e-11
0.00840003
3.37721e-11
0.00840003
1.09928e-10
0.00840003
2.35934e-10
0.00840003
6.55142e-10
0.00840004
1.56292e-09
0.00840001
3.67028e-09
0.00840007
1.02544e-08
0.00839993
2.03524e-08
0.00840012
6.6347e-08
0.00839978
1.11976e-07
0.00839979
4.17811e-07
0.00839934
6.53601e-07
0.00839873
2.44522e-06
0.00839619
4.48432e-06
0.00839504
1.4247e-05
0.00838402
3.6279e-05
0.0083757
0.000119256
0.00836362
0.000444967
0.00839351
0.00221435
0.008678
0.00237577
0.00895227
0.00208533
0.00197989
0.00922041
0.00840003
4.33311e-13
0.00840003
4.03683e-12
0.00840003
1.03659e-11
0.00840003
3.92176e-11
0.00840003
8.02158e-11
0.00840003
2.52187e-10
0.00840004
5.14868e-10
0.00840003
1.51392e-09
0.00840004
3.2372e-09
0.00840002
8.76236e-09
0.00840001
2.06092e-08
0.00840005
5.03131e-08
0.0083996
1.30123e-07
0.00840072
2.94186e-07
0.00839693
8.07193e-07
0.00840357
1.78943e-06
0.00838933
4.94584e-06
0.00840152
1.20168e-05
0.00837809
3.46714e-05
0.00837903
0.00010767
0.008355
0.000403106
0.0083611
0.00198476
0.00865787
0.00215131
0.00893354
0.00185307
0.00174098
0.00919055
0.00840003
5.07089e-13
0.00840003
3.0009e-12
0.00840003
1.04011e-11
0.00840003
2.90418e-11
0.00840003
7.75745e-11
0.00840003
1.86908e-10
0.00840003
5.18005e-10
0.00840004
1.10909e-09
0.00840002
3.37601e-09
0.00840007
6.48687e-09
0.0083999
2.1348e-08
0.00840033
3.87947e-08
0.0083991
1.32276e-07
0.008402
2.31898e-07
0.00839491
8.10025e-07
0.00840841
1.47085e-06
0.00838199
4.74247e-06
0.0084108
1.06041e-05
0.00836912
3.18059e-05
0.00838021
9.69993e-05
0.00834851
0.000361056
0.00833325
0.00175781
0.00864935
0.00192641
0.00893041
0.00162219
0.00150393
0.00918814
0.00840003
6.38897e-13
0.00840003
1.55428e-12
0.00840003
1.15052e-11
0.00840003
1.56212e-11
0.00840003
8.2669e-11
0.00840003
1.15374e-10
0.00840003
5.09835e-10
0.00840004
7.93166e-10
0.00840001
2.97286e-09
0.00840008
5.49155e-09
0.00839993
1.7301e-08
0.0084002
3.70014e-08
0.00839958
9.94892e-08
0.00840035
2.5188e-07
0.00839842
5.66125e-07
0.00840014
1.64241e-06
0.0083939
3.54708e-06
0.00839643
1.03341e-05
0.00837931
2.70419e-05
0.00837162
8.69552e-05
0.00834957
0.000317109
0.00831345
0.00152794
0.00864853
0.00169601
0.00893616
0.00139075
0.00126648
0.00919949
0.00840003
9.51057e-14
0.00840003
2.62012e-12
0.00840003
3.8334e-12
0.00840003
2.61015e-11
0.00840003
3.17915e-11
0.00840003
1.71785e-10
0.00840004
2.30281e-10
0.00840002
1.02364e-09
0.00840005
1.68412e-09
0.00839998
5.89778e-09
0.00840016
1.17548e-08
0.00839969
3.37229e-08
0.00840076
8.25021e-08
0.00839818
1.89955e-07
0.00840339
5.60716e-07
0.00839171
1.14027e-06
0.00840847
3.52492e-06
0.00837843
7.97172e-06
0.00839716
2.40753e-05
0.00836173
7.30616e-05
0.00835062
0.000271999
0.0082891
0.0012993
0.00864102
0.00145887
0.00893913
0.0011578
0.00103227
0.00920309
0.00840003
2.34171e-13
0.00840003
1.26194e-12
0.00840003
5.17967e-12
0.00840003
1.24046e-11
0.00840003
3.77434e-11
0.00840003
9.28747e-11
0.00840003
2.1992e-10
0.00840004
6.81183e-10
0.00840002
1.2306e-09
0.00840006
4.7166e-09
0.00839996
7.1508e-09
0.00840008
3.19414e-08
0.00839989
4.16512e-08
0.00839964
2.0882e-07
0.00839989
2.67129e-07
0.00839781
1.26825e-06
0.0083979
2.07095e-06
0.00839291
7.45663e-06
0.00838389
1.81488e-05
0.00837173
6.05273e-05
0.00834369
0.000221973
0.00827112
0.00107009
0.00864287
0.00120891
0.00894334
0.000927652
0.000810196
0.00919546
0.00840003
1.3116e-13
0.00840003
8.44084e-13
0.00840003
2.8636e-12
0.00840003
8.34644e-12
0.00840003
2.1947e-11
0.00840003
5.64312e-11
0.00840003
1.4514e-10
0.00840003
3.62017e-10
0.00840002
9.37174e-10
0.00840006
2.33786e-09
0.00839994
6.12853e-09
0.00840025
1.53605e-08
0.00839934
4.05916e-08
0.00840154
1.02801e-07
0.008396
2.70727e-07
0.00840711
6.9476e-07
0.00838438
1.83715e-06
0.00841129
4.89911e-06
0.00837072
1.40756e-05
0.00838524
4.45573e-05
0.00833331
0.000168769
0.00828844
0.000820012
0.00866931
0.000939734
0.00895181
0.000706926
0.000603763
0.00918552
0.00840003
8.15906e-14
0.00840003
6.20907e-13
0.00840003
1.20587e-12
0.00840003
6.09816e-12
0.00840003
1.01825e-11
0.00840003
3.0785e-11
0.00840003
9.55307e-11
0.00840003
1.41419e-10
0.00840002
7.98496e-10
0.00840006
6.38329e-10
0.00839994
6.05207e-09
0.00840025
2.84654e-09
0.00839937
4.29623e-08
0.00840152
1.92851e-08
0.00839616
2.79048e-07
0.00840715
1.53201e-07
0.00838489
1.56391e-06
0.00841239
2.28407e-06
0.00837245
9.55643e-06
0.00839004
2.77607e-05
0.00834113
0.00011143
0.00833828
0.000544645
0.00869659
0.000650426
0.00895742
0.000487226
0.0004038
0.00918087
0.00840003
6.09058e-14
0.00840003
1.59088e-13
0.00840003
1.00844e-12
0.00840003
1.53703e-12
0.00840003
7.63488e-12
0.00840003
9.60753e-12
0.00840003
5.53743e-11
0.00840004
6.51589e-11
0.00840002
3.37978e-10
0.00840006
4.55462e-10
0.00839999
2.12162e-09
0.00840006
3.17887e-09
0.00839999
1.26603e-08
0.00839967
2.48998e-08
0.00840035
7.26309e-08
0.00839795
1.81278e-07
0.00840042
4.62194e-07
0.00839505
1.28986e-06
0.00839201
3.77401e-06
0.00838445
1.25153e-05
0.00836428
4.99781e-05
0.00838155
0.000252818
0.00869838
0.0003392
0.00895757
0.000254506
0.00020364
0.0091834
0.00840003
0.00840003
0.00840003
0.00840003
0.00840003
0.00840003
0.00840003
0.00840004
0.00840002
0.00840005
0.0084
0.00840003
0.00840003
0.00839959
0.00840059
0.00839741
0.00840194
0.00839365
0.00839648
0.00838749
0.00838372
0.00840167
0.00869405
0.00896029
0.00918712
0.00396041
0.00432651
0.00155688
0.00239556
-0.000689063
0.0022417
-0.00160345
0.000912161
-0.00222149
0.000616218
-0.00256147
0.0003399
-0.00266111
0.000100568
-0.00269326
3.26855e-05
-0.00275259
5.95311e-05
-0.00280841
5.57449e-05
-0.00285608
4.79603e-05
-0.00287423
1.84399e-05
-0.00286627
-7.84574e-06
-0.00284338
-2.3008e-05
-0.00281165
-3.17815e-05
-0.0027686
-4.29432e-05
-0.00270572
-6.24623e-05
-0.00262456
-8.05972e-05
-0.00252757
-9.61764e-05
-0.00241639
-0.000110471
-0.00229157
-0.00012391
-0.00215465
-0.000136281
-0.00200623
-0.000148216
-0.00184843
-0.000158187
-0.00167387
-0.000174657
-0.00149167
-0.000182961
-0.00130209
-0.000190398
-0.00110732
-0.000195698
-0.000908422
-0.00019991
-0.000704962
-0.000204709
-0.000496553
-0.000209549
-0.00028368
-0.000213578
-6.43618e-05
-0.00021977
0.0001597
-0.000224722
0.000377194
-0.000218075
0.000587945
-0.000210967
0.00079392
-0.000205771
0.000995776
-0.000201591
0.00119152
-0.000195333
0.00138168
-0.000189448
0.00156512
-0.000182449
0.00174469
-0.000178226
0.00192311
-0.000177034
0.0020984
-0.000173534
0.00226787
-0.000167372
0.00243065
-0.000160903
0.00258672
-0.000154243
0.00273756
-0.000148346
0.00288232
-0.000142505
0.00302134
-0.000136756
0.00315485
-0.000131137
0.0032824
-0.000125599
0.00340459
-0.000120084
0.00352125
-0.000114775
0.00363245
-0.000109423
0.00373859
-0.000104321
0.00383946
-9.92176e-05
0.00393534
-9.43493e-05
0.00402573
-8.95143e-05
0.0041116
-8.48725e-05
0.00419234
-8.03422e-05
0.0042686
-7.59221e-05
0.00434031
-7.16578e-05
0.00440748
-6.74688e-05
0.00447061
-6.3424e-05
0.0045295
-5.94641e-05
0.00458463
-5.56232e-05
0.004636
-5.18868e-05
0.00468378
-4.8266e-05
0.00472816
-4.47636e-05
0.00476924
-4.13909e-05
0.00480724