/*--------------------------------*- C++ -*----------------------------------*\
  =========                 |
  \\      /  F ield         | OpenFOAM: The Open Source CFD Toolbox
   \\    /   O peration     | Website:  https://openfoam.org
    \\  /    A nd           | Version:  13
     \\/     M anipulation  |
\*---------------------------------------------------------------------------*/
FoamFile
{
    format      ascii;
    class       volScalarField;
    location    "10";
    object      rho;
}
// * * * * * * * * * * * * * * * * * * * * * * * * * * * * * * * * * * * * * //

dimensions      [1 -3 0 0 0 0 0];

internalField   nonuniform List<scalar> 
5250
(
1.40001
1.40003
1.40008
1.40022
1.40051
1.40134
1.40313
1.40798
1.41897
1.44667
1.5086
1.64676
1.93103
2.68637
5.48959
5.73244
5.67659
5.67
5.69424
5.7775
5.86059
5.913
5.95412
5.98753
6.01493
1.40001
1.40003
1.40009
1.40019
1.40056
1.40119
1.4034
1.40727
1.41998
1.44434
1.50987
1.64242
1.92775
2.67007
5.4534
5.73005
5.67484
5.66764
5.6917
5.77498
5.85814
5.91094
5.953
5.98729
6.01576
1.40001
1.40003
1.40008
1.40022
1.40048
1.40134
1.40291
1.40805
1.41781
1.44608
1.50453
1.64056
1.9174
2.63773
5.3729
5.72469
5.66993
5.65859
5.68172
5.76327
5.8457
5.89742
5.94044
5.9743
6.00214
1.40001
1.40003
1.40008
1.40019
1.40052
1.40117
1.4031
1.40716
1.41836
1.44286
1.50339
1.63152
1.90462
2.58822
5.24605
5.71828
5.66316
5.64289
5.6643
5.74216
5.82283
5.87333
5.91396
5.94821
5.97728
1.40001
1.40003
1.40007
1.4002
1.40046
1.40119
1.40283
1.40707
1.41713
1.4416
1.49806
1.62309
1.88496
2.52511
5.0691
5.71286
5.6557
5.62121
5.64015
5.7132
5.79083
5.84013
5.87859
5.9108
5.94113
1.40001
1.40003
1.40007
1.40019
1.40042
1.40117
1.40251
1.40702
1.41536
1.44035
1.49112
1.61248
1.85951
2.44992
4.83618
5.71242
5.64908
5.59349
5.6089
5.67567
5.74834
5.79349
5.83011
5.86009
5.89172
1.40001
1.40002
1.40007
1.40015
1.40044
1.40093
1.40268
1.40569
1.41575
1.43488
1.48769
1.59494
1.83192
2.36229
4.54102
5.72186
5.64581
5.56068
5.57156
5.62953
5.6971
5.73437
5.7638
5.7886
5.82071
1.40001
1.40002
1.40006
1.40016
1.40035
1.40097
1.40213
1.40577
1.41303
1.43368
1.47698
1.58107
1.7944
2.26825
4.17743
5.74228
5.64842
5.52374
5.52896
5.57352
5.63238
5.66054
5.6784
5.6908
5.7185
1.40001
1.40002
1.40005
1.40014
1.40031
1.40086
1.4019
1.40509
1.41159
1.42976
1.46855
1.56187
1.75457
2.16893
3.75212
5.77438
5.66035
5.48876
5.48533
5.5128
5.55638
5.56742
5.56599
5.55296
5.55854
1.40001
1.40002
1.40004
1.40013
1.40027
1.40075
1.40162
1.40447
1.40989
1.42609
1.45912
1.54211
1.71174
2.07241
3.27676
5.78681
5.66977
5.46209
5.44019
5.44734
5.46804
5.4589
5.42869
5.36028
5.30623
1.40001
1.40002
1.40004
1.4001
1.40024
1.40062
1.40144
1.40378
1.40864
1.42235
1.45134
1.52327
1.67328
1.98923
2.89478
5.67071
5.62552
5.44794
5.38612
5.3788
5.36839
5.33578
5.24655
5.03776
4.44316
1.40001
1.40002
1.40004
1.40009
1.40021
1.40054
1.40126
1.40326
1.40752
1.41935
1.4448
1.50794
1.64116
1.92316
2.65128
5.32106
5.49343
5.41465
5.32589
5.30401
5.27142
5.2044
5.05991
4.7647
4.14274
1.40001
1.40001
1.40003
1.40008
1.40018
1.40048
1.40105
1.40289
1.40628
1.41703
1.43812
1.49453
1.61026
1.8624
2.44963
4.80411
5.40862
5.36971
5.26581
5.22373
5.17435
5.07996
4.89365
4.59174
4.12132
1.40001
1.40001
1.40003
1.40006
1.40017
1.40037
1.40097
1.40224
1.40572
1.41357
1.43363
1.47873
1.58245
1.79876
2.27615
4.21183
5.36879
5.33507
5.22597
5.14634
5.08195
4.96834
4.78177
4.50391
4.1394
1.40001
1.40001
1.40002
1.40006
1.40012
1.40034
1.40071
1.40202
1.40433
1.41189
1.42636
1.46696
1.55009
1.73715
2.11889
3.5651
5.36241
5.32606
5.20299
5.08384
4.99557
4.87898
4.7027
4.46053
4.15773
1.40001
1.40001
1.40002
1.40004
1.40011
1.40024
1.40065
1.40142
1.40383
1.40863
1.42236
1.45117
1.52294
1.6716
1.97871
2.85932
5.30164
5.30299
5.20896
5.04248
4.93457
4.814
4.65076
4.43598
4.1801
1.40001
1.40001
1.40002
1.40004
1.40008
1.40022
1.40047
1.40129
1.40275
1.40765
1.4167
1.44355
1.49782
1.62674
1.88584
2.53165
4.92482
5.22495
5.16684
5.01375
4.88481
4.76946
4.61766
4.42914
4.20705
1.40001
1.40001
1.40002
1.40003
1.40007
1.40015
1.40042
1.4009
1.40248
1.40546
1.41454
1.43298
1.48153
1.58279
1.80371
2.28346
4.20768
5.12319
5.09683
4.99811
4.85689
4.73702
4.60314
4.43954
4.24483
1.40001
1.40001
1.40001
1.40003
1.40005
1.40013
1.40031
1.40073
1.40189
1.4043
1.41127
1.42569
1.46402
1.54503
1.72441
2.08593
3.4376
5.06941
5.06765
5.0056
4.86038
4.72874
4.60588
4.45906
4.29333
1.40001
1.40001
1.40001
1.40002
1.40004
1.4001
1.40023
1.40058
1.40132
1.40352
1.4078
1.42058
1.44633
1.51253
1.64851
1.92675
2.67317
4.89744
5.08642
5.02571
4.88819
4.7471
4.6256
4.49031
4.35838
1.40001
1.40001
1.40001
1.40002
1.40003
1.40008
1.40018
1.40044
1.40101
1.40265
1.40596
1.41567
1.43554
1.48727
1.59518
1.82697
2.34717
4.34945
5.05042
5.01875
4.92102
4.77864
4.65937
4.55065
4.44824
1.40001
1.40001
1.40001
1.40001
1.40003
1.40005
1.40014
1.40031
1.40081
1.40186
1.40474
1.41121
1.42772
1.46514
1.55178
1.7338
2.10784
3.53509
4.97407
5.00908
4.95474
4.82851
4.71787
4.63878
4.55921
1.40001
1.40001
1.40001
1.40001
1.40002
1.40005
1.4001
1.40024
1.40056
1.4014
1.40339
1.40817
1.42009
1.44743
1.51168
1.64977
1.92095
2.66158
4.78683
5.05348
5.00978
4.91965
4.82729
4.76022
4.68994
1.40001
1.40001
1.40001
1.40001
1.40002
1.40004
1.40007
1.40019
1.40039
1.4011
1.40232
1.40647
1.414
1.43692
1.48229
1.59387
1.81433
2.32003
4.22433
5.04875
5.0751
5.03812
4.96559
4.89747
4.82712
1.40001
1.40001
1.40001
1.40001
1.40001
1.40003
1.40006
1.40012
1.40033
1.4007
1.40197
1.40416
1.41153
1.4252
1.46438
1.54354
1.72299
2.08088
3.37716
4.98541
5.19846
5.16892
5.11661
5.04856
4.96971
1.40001
1.40001
1.40001
1.40001
1.40001
1.40002
1.40004
1.40009
1.40024
1.40052
1.40142
1.40304
1.40838
1.41824
1.44742
1.50562
1.64388
1.90767
2.61809
4.76942
5.3352
5.31602
5.27493
5.20748
5.10211
1.40001
1.40001
1.40001
1.40001
1.40001
1.40002
1.40003
1.40007
1.40018
1.40039
1.40106
1.40228
1.40631
1.41374
1.43623
1.48096
1.59132
1.81136
2.31865
4.20758
5.38896
5.46896
5.44019
5.37068
5.23262
1.40001
1.40001
1.40001
1.40001
1.40001
1.40001
1.40003
1.40006
1.40013
1.40031
1.40077
1.4018
1.40466
1.41067
1.42737
1.46281
1.54909
1.72772
2.10828
3.39556
5.41746
5.62859
5.59592
5.49712
5.33038
1.40001
1.40001
1.40001
1.40001
1.40001
1.40001
1.40002
1.40004
1.40011
1.40023
1.40063
1.40134
1.40376
1.40809
1.42184
1.44865
1.51921
1.66279
1.96477
2.79523
5.30243
5.75447
5.72377
5.60911
5.40734
1.40001
1.40001
1.40001
1.40001
1.40001
1.40001
1.40002
1.40004
1.40008
1.40021
1.40048
1.40118
1.40293
1.407
1.41755
1.44145
1.4994
1.62474
1.89148
2.55713
4.969
5.77065
5.76138
5.65371
5.43559
1.40001
1.40001
1.40001
1.40001
1.40001
1.40001
1.40002
1.40003
1.40007
1.40017
1.40039
1.40105
1.40231
1.40634
1.41404
1.43682
1.48356
1.59674
1.82836
2.37948
4.44727
5.79952
5.7895
5.65494
5.42665
1.40001
1.40001
1.40001
1.40001
1.40001
1.40001
1.40002
1.40003
1.40007
1.40014
1.40037
1.40081
1.40218
1.40499
1.41299
1.43027
1.4746
1.5701
1.77918
2.24899
3.95149
5.90063
5.84521
5.61552
5.38926
1.40001
1.40001
1.40001
1.40001
1.40001
1.40001
1.40001
1.40002
1.40006
1.40012
1.40033
1.40068
1.40196
1.40415
1.41168
1.42563
1.46613
1.54859
1.73653
2.15021
3.48609
6.00614
5.89142
5.56673
5.35438
1.40001
1.40001
1.40001
1.40001
1.40001
1.40001
1.40001
1.40002
1.40005
1.40011
1.40029
1.40061
1.40174
1.40368
1.41035
1.42268
1.45876
1.53213
1.70136
2.05477
3.11073
6.01836
5.88577
5.53992
5.33832
1.40001
1.40001
1.40001
1.40001
1.40001
1.40001
1.40001
1.40002
1.40005
1.40011
1.40024
1.40063
1.40141
1.40381
1.40852
1.42251
1.45139
1.52458
1.67659
1.99846
2.93596
5.89277
5.8025
5.52043
5.32944
1.40001
1.40001
1.40001
1.40001
1.40001
1.40001
1.40001
1.40002
1.40005
1.40009
1.40025
1.40052
1.40146
1.40317
1.40868
1.41948
1.45012
1.51376
1.6619
1.95845
2.80172
5.68499
5.69272
5.55345
5.34138
1.40001
1.40001
1.40001
1.40001
1.40001
1.40001
1.40001
1.40002
1.40004
1.40009
1.40021
1.40055
1.4012
1.40337
1.40729
1.41983
1.44465
1.51002
1.64509
1.92874
2.70122
5.47059
5.66927
5.57877
5.35522
1.40001
1.40001
1.40001
1.40001
1.40001
1.40001
1.40001
1.40002
1.40004
1.40008
1.4002
1.4005
1.40116
1.40308
1.40699
1.4184
1.44229
1.50342
1.63188
1.90905
2.61256
5.24753
5.67249
5.59074
5.37052
1.40001
1.40001
1.40001
1.40001
1.40001
1.40001
1.40001
1.40002
1.40004
1.40008
1.40018
1.40048
1.40107
1.40294
1.40648
1.41752
1.43961
1.49819
1.61974
1.8849
2.53895
5.02704
5.69799
5.61224
5.38047
1.40001
1.40001
1.40001
1.40001
1.40001
1.40001
1.40001
1.40002
1.40004
1.40007
1.40018
1.40043
1.40107
1.40263
1.40639
1.41599
1.43823
1.49194
1.60985
1.8614
2.4752
4.81043
5.73621
5.64098
5.38451
1.40001
1.40001
1.40001
1.40001
1.40001
1.40001
1.40001
1.40002
1.40003
1.40007
1.40016
1.40043
1.40094
1.40264
1.4057
1.41569
1.43517
1.48829
1.59835
1.84066
2.41785
4.59997
5.78627
5.67291
5.38307
1.40001
1.40001
1.40001
1.40001
1.40001
1.40001
1.40001
1.40002
1.40003
1.40006
1.40017
1.40036
1.40101
1.40216
1.4061
1.41333
1.43567
1.48046
1.59182
1.8178
2.36828
4.39536
5.8464
5.70295
5.38436
1.40001
1.40001
1.40001
1.40001
1.40001
1.40001
1.40001
1.40001
1.40003
1.40006
1.40016
1.40034
1.40093
1.4021
1.40557
1.41296
1.4331
1.47709
1.58175
1.79916
2.32125
4.19973
5.91535
5.73344
5.38698
1.40001
1.40001
1.40001
1.40001
1.40001
1.40001
1.40001
1.40001
1.40003
1.40006
1.40014
1.40036
1.40079
1.40219
1.40481
1.41319
1.42973
1.47532
1.57082
1.78284
2.27813
4.01528
5.98862
5.76218
5.39157
1.40001
1.40001
1.40001
1.40001
1.40001
1.40001
1.40001
1.40001
1.40003
1.40006
1.40013
1.40033
1.40078
1.40198
1.40482
1.41192
1.42924
1.47027
1.56419
1.76508
2.24117
3.8398
6.06294
5.79235
5.40134
1.40001
1.40001
1.40001
1.40001
1.40001
1.40001
1.40001
1.40001
1.40002
1.40006
1.40012
1.40033
1.4007
1.40201
1.40427
1.41203
1.42665
1.4686
1.55549
1.75112
2.2035
3.67699
6.13853
5.82653
5.41394
1.40001
1.40001
1.40001
1.40001
1.40001
1.40001
1.40001
1.40001
1.40003
1.40005
1.40013
1.40028
1.40077
1.4017
1.40459
1.4105
1.4273
1.46327
1.55203
1.73595
2.16496
3.53472
6.21213
5.86135
5.42634
1.40001
1.40001
1.40001
1.40001
1.40001
1.40001
1.40001
1.40001
1.40003
1.40005
1.40013
1.40027
1.40074
1.40164
1.40443
1.41015
1.42635
1.46109
1.54691
1.72547
2.12658
3.4205
6.27394
5.89167
5.43983
1.40001
1.40001
1.40001
1.40001
1.40001
1.40001
1.40001
1.40001
1.40002
1.40005
1.40011
1.4003
1.40064
1.40183
1.40388
1.41092
1.424
1.46213
1.54035
1.71979
2.09505
3.33438
6.31221
5.91289
5.45297
1.40001
1.40001
1.40001
1.40001
1.40001
1.40001
1.40001
1.40001
1.40002
1.40005
1.40011
1.4003
1.40063
1.40182
1.40384
1.41082
1.42376
1.46147
1.53861
1.71573
2.07915
3.28375
6.32989
5.92717
5.46287
2.27249
1.86421
2.16291
1.98052
1.88662
1.86788
1.8589
1.8506
1.83327
1.81413
1.80533
1.80189
1.80118
1.80254
1.80778
1.81711
1.83195
1.85165
1.87501
1.90093
1.92943
1.95872
1.9897
2.0208
2.05303
2.08461
2.11575
2.1455
2.17366
2.20099
2.22709
2.2502
2.2699
2.28899
2.30652
2.32233
2.33509
2.34747
2.35497
2.36281
2.36696
2.37236
2.374
2.37448
2.37275
2.371
2.36593
2.36126
2.35483
2.34733
2.33875
2.3294
2.31839
2.3076
2.29482
2.2825
2.26857
2.25495
2.23993
2.22473
2.20912
2.19266
2.17643
2.15923
2.14223
2.1247
2.10715
2.08945
2.07169
2.05387
2.03611
2.01831
2.00069
1.98308
1.96575
1.94852
1.93163
1.91487
1.89858
1.88237
1.86682
1.8513
1.83655
1.82201
1.8082
1.79488
1.78237
1.77046
1.75971
1.74976
1.7412
1.73416
1.72868
1.72556
1.72536
1.72572
1.72685
1.72933
1.73354
1.74346
2.80506
2.43819
2.35848
2.1414
1.91766
1.86445
1.81224
1.7503
1.71876
1.69443
1.68002
1.67402
1.67457
1.68114
1.68954
1.70223
1.7214
1.74853
1.7813
1.81709
1.85398
1.8892
1.92559
1.96322
2.00328
2.04257
2.08138
2.11974
2.15589
2.19077
2.22332
2.25335
2.28266
2.3092
2.33545
2.35769
2.37905
2.39579
2.41089
2.4233
2.43429
2.443
2.45119
2.45431
2.45714
2.45772
2.4571
2.45525
2.45118
2.44637
2.43964
2.43235
2.42335
2.41364
2.40275
2.39075
2.3783
2.36446
2.35051
2.33538
2.32
2.30393
2.28734
2.27045
2.25301
2.2354
2.2174
2.19922
2.18087
2.16235
2.14387
2.12525
2.10687
2.08839
2.07029
2.0521
2.0344
2.01663
1.99938
1.98225
1.96552
1.94926
1.93323
1.91795
1.90309
1.88885
1.87553
1.86271
1.85117
1.84055
1.83123
1.82366
1.81763
1.81416
1.81401
1.81431
1.81547
1.8182
1.82273
1.83474
3.31984
2.86067
2.61871
2.42008
2.22209
2.05971
1.96948
1.85575
1.77502
1.72268
1.6926
1.67981
1.67674
1.67497
1.67122
1.6793
1.69804
1.72735
1.7652
1.80755
1.85202
1.89796
1.94561
1.9945
2.045
2.09601
2.14682
2.1956
2.24331
2.28873
2.33154
2.37214
2.40991
2.44501
2.47792
2.50668
2.53328
2.55498
2.57518
2.59102
2.60492
2.61679
2.62682
2.63292
2.63639
2.63779
2.63848
2.63646
2.63373
2.62792
2.62216
2.61297
2.60453
2.59248
2.58152
2.56715
2.55392
2.53775
2.52259
2.50494
2.48821
2.46929
2.45134
2.43139
2.41252
2.3919
2.37236
2.35145
2.33147
2.31053
2.29032
2.26956
2.24932
2.2289
2.20885
2.18891
2.16917
2.1499
2.13063
2.1121
2.09363
2.0758
2.05839
2.0415
2.02554
2.01
1.99549
1.98178
1.96916
1.95782
1.94776
1.93969
1.93338
1.92985
1.92995
1.93052
1.93214
1.93562
1.94103
1.9563
3.5834
3.13108
2.83794
2.62809
2.46413
2.32365
2.21761
2.13468
2.0487
1.96684
1.9099
1.86661
1.84528
1.83409
1.83162
1.84189
1.86113
1.88944
1.92502
1.96771
2.01519
2.06709
2.11981
2.17451
2.23049
2.28639
2.34159
2.3947
2.44576
2.49311
2.53735
2.57721
2.61409
2.64732
2.67679
2.70348
2.72588
2.74573
2.76139
2.77447
2.78439
2.79335
2.79992
2.80333
2.80238
2.7998
2.79651
2.79109
2.78483
2.77588
2.7665
2.75458
2.74251
2.72826
2.71387
2.69777
2.68146
2.66388
2.64604
2.62725
2.60817
2.58834
2.56826
2.54751
2.52667
2.50518
2.48382
2.46186
2.44021
2.41806
2.39632
2.37427
2.35263
2.33092
2.3095
2.28835
2.2673
2.24669
2.22636
2.20649
2.1872
2.16813
2.14997
2.13214
2.11489
2.09873
2.083
2.06867
2.05529
2.04316
2.03294
2.02404
2.01768
2.01439
2.01421
2.01436
2.0164
2.0207
2.0259
2.04348
3.73709
3.34025
3.04607
2.83361
2.67634
2.54951
2.45188
2.36953
2.29935
2.22796
2.17561
2.13527
2.11411
2.10424
2.10284
2.10854
2.12227
2.14938
2.18334
2.22261
2.26523
2.31014
2.35742
2.40519
2.4529
2.49931
2.544
2.58641
2.62606
2.66319
2.69678
2.72851
2.75623
2.78179
2.80404
2.82433
2.84095
2.85542
2.86627
2.8749
2.88085
2.8863
2.88986
2.8908
2.88704
2.88121
2.87476
2.86653
2.85759
2.84647
2.83472
2.82101
2.80689
2.79114
2.77508
2.75766
2.74006
2.7213
2.7025
2.68268
2.66293
2.64223
2.62171
2.60027
2.57913
2.55714
2.53547
2.51323
2.49117
2.46896
2.44673
2.42471
2.40268
2.38085
2.35926
2.33781
2.31697
2.2963
2.27606
2.2563
2.23668
2.21807
2.19947
2.18201
2.16489
2.14881
2.13366
2.11941
2.10677
2.09507
2.0857
2.07768
2.07241
2.07084
2.07102
2.07209
2.07465
2.08068
2.08721
2.10766
3.84739
3.51498
3.24124
3.0374
2.88306
2.76468
2.66996
2.59028
2.51728
2.45001
2.39175
2.34787
2.31774
2.30105
2.29807
2.30122
2.30949
2.32641
2.35607
2.39009
2.42618
2.46356
2.50171
2.54018
2.57854
2.61616
2.65279
2.68781
2.72098
2.75195
2.78128
2.80763
2.83254
2.85454
2.87478
2.8923
2.90771
2.92019
2.93059
2.93739
2.94319
2.94706
2.95084
2.95078
2.94783
2.9411
2.93497
2.92606
2.91757
2.90632
2.89487
2.8811
2.86679
2.85088
2.83427
2.81658
2.79819
2.7789
2.75916
2.7385
2.71769
2.696
2.67419
2.65179
2.62911
2.60629
2.58316
2.56011
2.53704
2.51395
2.4912
2.46831
2.44629
2.424
2.40242
2.38078
2.35947
2.33858
2.31775
2.29766
2.27762
2.25852
2.23964
2.22176
2.20449
2.18808
2.17288
2.15855
2.14591
2.13468
2.12521
2.11833
2.11337
2.1132
2.11326
2.11476
2.11754
2.12571
2.13365
2.15691
3.93834
3.66515
3.42581
3.23518
3.09057
2.97686
2.88418
2.80214
2.7257
2.65283
2.58782
2.53359
2.49432
2.46932
2.45791
2.45891
2.46339
2.47214
2.48973
2.51911
2.55194
2.58549
2.61959
2.65392
2.6884
2.72289
2.75664
2.78972
2.82111
2.85092
2.87878
2.90443
2.92827
2.94938
2.96887
2.98525
3.00007
3.01131
3.02098
3.02645
3.03116
3.03395
3.03634
3.03543
3.03116
3.02368
3.01552
3.00548
2.99498
2.98282
2.96985
2.9554
2.94002
2.9236
2.9062
2.88819
2.86909
2.84968
2.82919
2.80843
2.78692
2.76488
2.7426
2.71948
2.69656
2.67279
2.64937
2.62548
2.60185
2.57828
2.55496
2.53192
2.50876
2.48607
2.46347
2.44109
2.41925
2.3973
2.37634
2.35519
2.33517
2.31526
2.2964
2.27816
2.26078
2.2446
2.22925
2.21573
2.20324
2.19308
2.18461
2.17869
2.1764
2.17637
2.17733
2.1798
2.1845
2.19571
2.20495
2.23031
4.02571
3.80007
3.59865
3.43029
3.29498
3.18593
3.09155
3.00466
2.92095
2.84177
2.76754
2.70493
2.65426
2.61977
2.59814
2.59062
2.59215
2.59732
2.60582
2.62305
2.65017
2.68017
2.71097
2.74128
2.77185
2.80179
2.83172
2.86061
2.88859
2.91518
2.94001
2.96297
2.98383
3.00241
3.01899
3.03326
3.04538
3.05494
3.06258
3.06683
3.07011
3.07232
3.07377
3.07283
3.06834
3.06135
3.0527
3.04269
3.03138
3.01913
3.00545
2.99096
2.97505
2.95844
2.9407
2.92218
2.903
2.88289
2.86258
2.84131
2.81999
2.79796
2.77573
2.75333
2.7305
2.70798
2.685
2.66252
2.63982
2.61724
2.59476
2.57197
2.54963
2.52683
2.50475
2.48233
2.46065
2.43899
2.4179
2.39738
2.37716
2.35805
2.3392
2.32171
2.30478
2.28926
2.275
2.26209
2.25127
2.24196
2.23553
2.23111
2.23093
2.23118
2.23271
2.23553
2.24358
2.25519
2.26531
2.28961
4.11629
3.93545
3.76573
3.61955
3.49487
3.38589
3.28726
3.19241
3.1017
3.01399
2.934
2.86268
2.80506
2.76054
2.73131
2.71411
2.70849
2.71014
2.71452
2.72137
2.7356
2.7589
2.78502
2.81167
2.83818
2.86467
2.89057
2.91629
2.94113
2.96524
2.98785
3.00898
3.02826
3.04555
3.06081
3.07398
3.08505
3.09381
3.10065
3.10414
3.10671
3.1083
3.10889
3.10727
3.10209
3.09485
3.08548
3.07484
3.06271
3.04956
3.03535
3.02007
3.00389
2.98669
2.96862
2.94985
2.93013
2.91003
2.88896
2.86759
2.84555
2.82305
2.80038
2.777
2.75392
2.7302
2.70703
2.68333
2.66007
2.63662
2.61335
2.59028
2.56718
2.54456
2.52187
2.4998
2.47781
2.45643
2.43548
2.415
2.39544
2.37625
2.35838
2.34097
2.32512
2.31029
2.29705
2.28562
2.27589
2.26875
2.26365
2.26238
2.26225
2.26333
2.26605
2.27181
2.2819
2.29493
2.30474
2.32864
4.21696
4.07249
3.93076
3.79929
3.67947
3.56826
3.46256
3.36092
3.26293
3.17089
3.08545
3.01084
2.94642
2.89643
2.85778
2.83319
2.817
2.81099
2.80895
2.81279
2.81693
2.82667
2.84462
2.86575
2.88844
2.91146
2.93379
2.95649
2.97823
2.99968
3.01998
3.03901
3.05663
3.07223
3.0861
3.09782
3.10771
3.11553
3.12136
3.124
3.126
3.12695
3.12727
3.12518
3.12023
3.11331
3.10417
3.09384
3.08156
3.06848
3.05408
3.03869
3.0227
3.00531
2.98785
2.96885
2.94986
2.92968
2.90919
2.88811
2.86634
2.84451
2.8218
2.79947
2.77647
2.75394
2.7309
2.70819
2.68529
2.66246
2.63989
2.61709
2.59492
2.57241
2.55065
2.52873
2.50752
2.48653
2.46613
2.44645
2.42727
2.40929
2.39176
2.37575
2.36063
2.34724
2.33544
2.32544
2.31789
2.31241
2.31027
2.30993
2.31073
2.31292
2.31764
2.32709
2.33772
2.35096
2.35945
2.38142
4.33555
4.21529
4.09202
3.96781
3.84736
3.73027
3.61754
3.50925
3.40685
3.31158
3.22458
3.14687
3.0801
3.02396
2.97996
2.94577
2.92171
2.90539
2.89597
2.89061
2.89108
2.89418
2.89926
2.90984
2.9272
2.94535
2.96473
2.98426
3.00361
3.02286
3.04078
3.05833
3.07389
3.08845
3.10101
3.11211
3.12125
3.12853
3.13386
3.13639
3.13761
3.13868
3.13832
3.13609
3.13114
3.12417
3.11554
3.10497
3.09299
3.07966
3.06501
3.04975
3.0331
3.01625
2.998
2.97958
2.96
2.94005
2.91938
2.89806
2.87647
2.85412
2.83203
2.80932
2.78696
2.76414
2.74155
2.71877
2.696
2.67343
2.65069
2.6285
2.60608
2.58435
2.56252
2.54135
2.5204
2.50002
2.48033
2.46114
2.44317
2.42561
2.40965
2.39452
2.38124
2.36938
2.35952
2.35187
2.34645
2.34394
2.34361
2.34428
2.34617
2.35083
2.35885
2.37016
2.38018
2.39288
2.39925
2.41868
4.46496
4.35739
4.24049
4.11799
3.99363
3.87225
3.75413
3.64303
3.53927
3.44305
3.35583
3.27687
3.20826
3.148
3.09835
3.05642
3.02405
2.99821
2.9801
2.96634
2.95892
2.95372
2.95577
2.95845
2.96378
2.97404
2.98998
3.00432
3.02107
3.03775
3.05403
3.06946
3.08356
3.09677
3.10853
3.11882
3.12758
3.13447
3.13979
3.14183
3.14327
3.14421
3.14388
3.14179
3.1368
3.13037
3.12187
3.11172
3.10019
3.0869
3.07298
3.05745
3.04161
3.02453
3.00695
2.9886
2.96944
2.94994
2.92941
2.90879
2.88721
2.86579
2.84374
2.82176
2.7995
2.77708
2.75477
2.73206
2.70981
2.68708
2.665
2.64261
2.6208
2.59909
2.57772
2.55695
2.53634
2.51678
2.49744
2.4795
2.46201
2.44595
2.43107
2.41766
2.40613
2.39628
2.38881
2.38348
2.38087
2.38051
2.38104
2.38286
2.38652
2.39562
2.40483
2.41596
2.42479
2.43547
2.43991
2.45641
4.60351
4.49724
4.37777
4.25033
4.1211
3.99468
3.87468
3.76182
3.65884
3.56373
3.47831
3.39989
3.32997
3.26708
3.21209
3.16415
3.12384
3.09025
3.0633
3.04173
3.02556
3.01296
3.00615
3.00164
3.00405
3.00635
3.0116
3.02229
3.03291
3.04755
3.06202
3.07591
3.08878
3.10098
3.11178
3.12148
3.12975
3.13636
3.14138
3.14342
3.14495
3.14558
3.14541
3.14294
3.13823
3.13196
3.12359
3.1141
3.10249
3.08996
3.0758
3.0607
3.04475
3.02767
3.01036
2.99174
2.9732
2.95334
2.93356
2.91274
2.89203
2.87073
2.8493
2.82771
2.80572
2.78394
2.76167
2.73982
2.71761
2.69579
2.67395
2.65233
2.63111
2.60995
2.58954
2.56915
2.5498
2.53065
2.51277
2.49547
2.4794
2.46459
2.45127
2.43982
2.43014
2.42284
2.41772
2.4153
2.41507
2.41563
2.41721
2.42231
2.43018
2.4405
2.44986
2.45976
2.46717
2.47534
2.47854
2.49181
4.7372
4.62544
4.50006
4.36798
4.23661
4.1091
3.99021
3.87868
3.77731
3.68362
3.59864
3.52024
3.44876
3.38305
3.32365
3.26993
3.22259
3.18129
3.14583
3.11622
3.09158
3.0724
3.0574
3.04698
3.04063
3.03778
3.03972
3.04294
3.04787
3.05724
3.06784
3.07945
3.09089
3.10182
3.11176
3.1207
3.1283
3.13458
3.13931
3.1416
3.14289
3.14372
3.14367
3.14137
3.13737
3.13116
3.12369
3.11435
3.10352
3.09139
3.0776
3.06314
3.04712
3.03078
3.01316
2.99527
2.97643
2.95712
2.93729
2.91699
2.89658
2.87556
2.85469
2.83317
2.81192
2.79019
2.76864
2.74699
2.72531
2.70398
2.68244
2.66161
2.64057
2.62044
2.60029
2.58112
2.56236
2.54454
2.52781
2.51172
2.49736
2.4841
2.47303
2.46345
2.45652
2.45155
2.44947
2.44932
2.44987
2.45186
2.45676
2.46563
2.47489
2.48483
2.49324
2.50109
2.50669
2.51214
2.51429
2.52426
4.86855
4.74753
4.61396
4.47705
4.34336
4.21648
4.09906
3.99077
3.89158
3.8001
3.71566
3.63702
3.56358
3.49525
3.43146
3.37313
3.31957
3.27202
3.22958
3.19325
3.1616
3.13558
3.11365
3.09655
3.08329
3.07425
3.06884
3.06641
3.06827
3.07119
3.0748
3.08215
3.09136
3.10042
3.10957
3.11771
3.12493
3.13092
3.13558
3.13788
3.13901
3.14011
3.13975
3.13793
3.13387
3.12801
3.12092
3.11187
3.10195
3.09007
3.07737
3.06309
3.04795
3.03178
3.01468
2.99702
2.9783
2.95942
2.93965
2.91997
2.89958
2.87924
2.85847
2.83756
2.81663
2.79537
2.77445
2.75311
2.73231
2.71121
2.6907
2.67019
2.6502
2.63068
2.61156
2.59345
2.5757
2.5596
2.54367
2.52976
2.5167
2.50609
2.49679
2.49029
2.48559
2.48414
2.48406
2.48477
2.48687
2.49301
2.50165
2.51142
2.52058
2.52927
2.53588
2.54163
2.54498
2.54794
2.54945
2.5567
4.97948
4.84722
4.70962
4.57333
4.44292
4.32029
4.20722
4.10245
4.00599
3.91594
3.83146
3.75198
3.67643
3.60535
3.5382
3.47549
3.41735
3.36408
3.31605
3.2731
3.23514
3.20187
3.17338
3.14904
3.12927
3.11311
3.10128
3.09245
3.08768
3.08595
3.08618
3.08881
3.09231
3.09819
3.10574
3.11281
3.11955
3.12508
3.12972
3.13177
3.13308
3.13402
3.13362
3.13217
3.12787
3.12269
3.11548
3.10736
3.09762
3.08658
3.07438
3.06064
3.04621
3.03024
3.01391
2.99624
2.9783
2.95958
2.94057
2.92128
2.90146
2.88171
2.8613
2.84117
2.82044
2.80002
2.7793
2.75873
2.73832
2.71786
2.69804
2.67807
2.65914
2.64018
2.62256
2.60518
2.58955
2.57419
2.56071
2.54828
2.5381
2.52946
2.52348
2.51914
2.51854
2.51847
2.51948
2.52212
2.52953
2.53833
2.54854
2.55721
2.56586
2.57204
2.57701
2.5799
2.58192
2.58292
2.58403
2.58857
5.08603
4.9416
4.80061
4.66673
4.54122
4.42433
4.31608
4.21516
4.12041
4.03117
3.94602
3.86505
3.78766
3.71368
3.64369
3.57709
3.51481
3.45682
3.40339
3.35474
3.31057
3.27117
3.23621
3.20567
3.17929
3.1569
3.13842
3.12357
3.11247
3.10466
3.10033
3.09711
3.09718
3.09957
3.10207
3.10594
3.11112
3.11547
3.11957
3.12136
3.12307
3.12366
3.12394
3.12234
3.11878
3.11388
3.10739
3.1
3.09075
3.08069
3.06873
3.056
3.04172
3.02663
3.01052
2.99352
2.97611
2.95791
2.9397
2.92079
2.90193
2.88257
2.86308
2.84348
2.82348
2.80382
2.78358
2.764
2.74392
2.72465
2.70517
2.68657
2.66819
2.65075
2.63406
2.61851
2.60405
2.59074
2.57911
2.56934
2.56152
2.55606
2.55268
2.55236
2.55248
2.55407
2.55765
2.56617
2.57524
2.58554
2.59449
2.60243
2.60898
2.61299
2.61564
2.61684
2.61717
2.61705
2.61661
2.61947
5.16982
5.02088
4.88335
4.7557
4.63817
4.52797
4.42472
4.32671
4.23338
4.14399
4.05801
3.97544
3.89592
3.81973
3.74678
3.67724
3.61123
3.54929
3.49143
3.43779
3.38837
3.34342
3.30269
3.26607
3.23356
3.20487
3.18
3.15882
3.1414
3.12717
3.11695
3.10875
3.10281
3.10025
3.09887
3.10039
3.10176
3.10411
3.10666
3.10861
3.11001
3.1107
3.11097
3.1091
3.10625
3.10154
3.096
3.08886
3.08059
3.07103
3.06001
3.04802
3.0345
3.0203
3.00473
2.9887
2.9718
2.95447
2.93676
2.91848
2.90025
2.88133
2.8627
2.84345
2.82451
2.80524
2.78617
2.76718
2.74831
2.72997
2.71172
2.69444
2.67739
2.66166
2.64657
2.63312
2.62027
2.60956
2.60034
2.59347
2.58857
2.58645
2.58622
2.58654
2.589
2.59417
2.60309
2.61277
2.62274
2.63223
2.63948
2.64634
2.64968
2.6522
2.65246
2.65251
2.65237
2.65063
2.64683
2.64915
5.23181
5.08459
4.95682
4.84026
4.73209
4.62956
4.53111
4.43578
4.34329
4.25386
4.16715
4.08332
4.00215
3.92376
3.84828
3.77586
3.70692
3.64112
3.57928
3.52114
3.46716
3.41694
3.3708
3.32841
3.28991
3.25516
3.22416
3.19677
3.17287
3.15243
3.13563
3.12245
3.11116
3.10261
3.09706
3.09379
3.09191
3.09164
3.09172
3.09266
3.09267
3.0928
3.09191
3.09026
3.08748
3.08327
3.07824
3.0715
3.06409
3.05491
3.04497
3.03353
3.02114
3.00773
2.99316
2.97813
2.962
2.94574
2.92865
2.91143
2.89384
2.87588
2.85809
2.83963
2.82182
2.80326
2.78559
2.76739
2.75018
2.73278
2.7165
2.70035
2.68562
2.67135
2.65903
2.64698
2.6373
2.62891
2.62328
2.61901
2.61846
2.61847
2.61928
2.62269
2.62994
2.63952
2.64985
2.65967
2.66944
2.67637
2.68313
2.68637
2.68844
2.68859
2.68848
2.68753
2.68555
2.68163
2.67496
2.67694
5.25891
5.12336
5.01144
4.9101
4.81379
4.71953
4.62656
4.53469
4.44385
4.35447
4.26724
4.18227
4.10003
4.02038
3.94359
3.86939
3.79818
3.72963
3.66448
3.60268
3.54439
3.48974
3.43843
3.39105
3.34675
3.30642
3.2692
3.2358
3.20577
3.17947
3.1564
3.1369
3.1208
3.10571
3.0948
3.08618
3.08029
3.07591
3.07317
3.07126
3.06964
3.06833
3.06632
3.06436
3.06105
3.05744
3.05232
3.04655
3.03951
3.03139
3.02236
3.01194
3.00089
2.98845
2.97544
2.96144
2.94677
2.93174
2.91576
2.90002
2.88317
2.86689
2.84963
2.83304
2.81578
2.79917
2.78223
2.76602
2.74978
2.73448
2.71948
2.70573
2.69263
2.68145
2.67062
2.66206
2.65489
2.65043
2.6478
2.64776
2.64839
2.65033
2.65564
2.66428
2.67457
2.68565
2.69535
2.70534
2.71211
2.71868
2.72181
2.72349
2.72357
2.72324
2.72229
2.71928
2.71473
2.70936
2.7013
2.70232
5.26471
5.15181
5.05963
4.97287
4.88592
4.79815
4.70924
4.62028
4.53182
4.44431
4.35812
4.27373
4.19091
4.11043
4.03178
3.95591
3.88239
3.8118
3.74414
3.67941
3.61762
3.55871
3.50296
3.45039
3.40107
3.35529
3.31273
3.27373
3.23804
3.20562
3.17656
3.15066
3.12836
3.10919
3.0916
3.07788
3.06682
3.05817
3.05147
3.04607
3.04223
3.03862
3.03586
3.03262
3.02962
3.0259
3.02169
3.01676
3.01072
3.00401
2.99594
2.98709
2.97703
2.96601
2.95422
2.94125
2.92809
2.91372
2.89943
2.88412
2.86903
2.85322
2.83774
2.82188
2.8064
2.79088
2.77579
2.76107
2.74685
2.7334
2.72079
2.70919
2.6992
2.68998
2.6825
2.67706
2.6735
2.67293
2.67328
2.67462
2.67788
2.68568
2.69562
2.70618
2.71793
2.72759
2.73775
2.74454
2.75094
2.75401
2.75543
2.7555
2.75518
2.75374
2.75082
2.74561
2.73959
2.73313
2.72415
2.72415
5.24989
5.16064
5.08718
5.01502
4.93818
4.85806
4.77543
4.69145
4.60692
4.52216
4.43765
4.35389
4.27127
4.1902
4.11094
4.03371
3.95854
3.88566
3.81517
3.74723
3.68231
3.6201
3.56113
3.50495
3.45195
3.40184
3.35473
3.31058
3.26941
3.23113
3.19601
3.16388
3.13488
3.10958
3.08651
3.06662
3.05017
3.03653
3.02561
3.01717
3.01031
3.00494
3.00033
2.99636
2.99265
2.98877
2.98479
2.98
2.97476
2.96852
2.96143
2.95352
2.94443
2.9348
2.92403
2.9129
2.90068
2.88815
2.87484
2.86134
2.84735
2.83334
2.81915
2.8051
2.79115
2.77757
2.76434
2.75173
2.7398
2.72878
2.7188
2.71033
2.70294
2.69694
2.69312
2.69159
2.6919
2.6932
2.69601
2.702
2.71111
2.72264
2.73365
2.74605
2.75585
2.76607
2.77306
2.77938
2.78251
2.78379
2.78391
2.7835
2.78219
2.77859
2.77374
2.76722
2.76019
2.75284
2.74319
2.74224
5.24039
5.16739
5.10375
5.03827
4.96846
4.89444
4.81754
4.73864
4.65824
4.57726
4.49586
4.41453
4.33371
4.2536
4.17483
4.09733
4.02183
3.94809
3.87672
3.80765
3.74083
3.6763
3.61374
3.5536
3.49575
3.44047
3.38788
3.33817
3.29122
3.24754
3.2068
3.16937
3.13543
3.10462
3.07809
3.05291
3.03166
3.01348
2.99811
2.98525
2.97457
2.96601
2.95887
2.95313
2.94802
2.9435
2.93902
2.93438
2.92942
2.92378
2.91764
2.91058
2.90295
2.89445
2.88532
2.87554
2.86505
2.85409
2.84251
2.83068
2.81848
2.80624
2.79392
2.7818
2.76992
2.75846
2.7476
2.73744
2.72826
2.72006
2.71353
2.70798
2.70424
2.70174
2.70295
2.70394
2.70655
2.71109
2.72066
2.73082
2.74371
2.7553
2.76832
2.77866
2.78904
2.79639
2.80275
2.80614
2.80734
2.8076
2.80733
2.80581
2.80247
2.79715
2.79112
2.78361
2.77585
2.76772
2.75754
2.7558
5.23266
5.16336
5.1027
5.04105
4.97605
4.90743
4.83556
4.76115
4.68513
4.60779
4.53016
4.45204
4.37423
4.29672
4.21986
4.1439
4.06881
3.99474
3.92203
3.8507
3.78132
3.71346
3.64797
3.58465
3.52377
3.46566
3.40981
3.35699
3.3064
3.25903
3.21408
3.17248
3.13369
3.09808
3.06575
3.0364
3.00955
2.98605
2.96598
2.94877
2.93441
2.92266
2.91285
2.90501
2.89817
2.89245
2.88705
2.88199
2.87687
2.87146
2.86591
2.85967
2.85326
2.84606
2.83859
2.83044
2.82182
2.81282
2.80319
2.79355
2.78325
2.77335
2.76288
2.75331
2.74331
2.73473
2.72597
2.71908
2.71242
2.70803
2.70451
2.70258
2.70297
2.70496
2.70738
2.71197
2.72014
2.73157
2.74316
2.75736
2.7698
2.78334
2.79432
2.80503
2.81279
2.81932
2.82299
2.82437
2.82458
2.8245
2.82312
2.81954
2.81467
2.80817
2.8013
2.79306
2.78468
2.77597
2.76534
2.76297
5.22349
5.15446
5.09537
5.03702
4.97521
4.91013
4.84129
4.77006
4.69697
4.62277
4.54786
4.4724
4.39644
4.32039
4.24415
4.16843
4.09315
4.01882
3.94564
3.87394
3.80406
3.73596
3.66965
3.60513
3.5425
3.48174
3.42315
3.36694
3.31297
3.26204
3.21334
3.16798
3.12497
3.08537
3.04847
3.01519
2.98444
2.95674
2.9326
2.91124
2.893
2.8773
2.86391
2.85282
2.84318
2.83547
2.82838
2.8227
2.81708
2.81212
2.80705
2.80173
2.79653
2.79033
2.78455
2.77744
2.77089
2.76309
2.75591
2.74775
2.74029
2.73212
2.72493
2.71722
2.71095