/*--------------------------------*- C++ -*----------------------------------*\
  =========                 |
  \\      /  F ield         | OpenFOAM: The Open Source CFD Toolbox
   \\    /   O peration     | Website:  https://openfoam.org
    \\  /    A nd           | Version:  13
     \\/     M anipulation  |
\*---------------------------------------------------------------------------*/
FoamFile
{
    format      ascii;
    class       volScalarField;
    location    "10";
    object      T;
}
// * * * * * * * * * * * * * * * * * * * * * * * * * * * * * * * * * * * * * //

dimensions      [0 0 0 1 0 0 0];

internalField   nonuniform List<scalar> 
5250
(
1.00001
1.00002
1.00006
1.00016
1.00035
1.00096
1.00209
1.00584
1.01305
1.03523
1.08686
1.235
1.62712
2.40103
2.7278
2.73981
2.7357
2.73907
2.75092
2.76671
2.77883
2.78707
2.79376
2.79851
2.80138
1.00001
1.00002
1.00005
1.00016
1.00034
1.00094
1.00213
1.00559
1.01334
1.03421
1.08669
1.23178
1.6207
2.39266
2.72483
2.7392
2.73504
2.73827
2.75003
2.7657
2.77773
2.78594
2.79259
2.79726
2.79999
1.00001
1.00002
1.00006
1.00013
1.00038
1.00082
1.00228
1.00513
1.0136
1.03266
1.08561
1.22569
1.60593
2.37359
2.71783
2.73768
2.73328
2.73603
2.74749
2.76286
2.7746
2.78292
2.78898
2.79368
2.79666
1.00001
1.00002
1.00006
1.00013
1.00036
1.00081
1.0022
1.00489
1.01337
1.03114
1.08306
1.21703
1.58495
2.34322
2.7067
2.73559
2.7306
2.73238
2.74329
2.75826
2.76964
2.77758
2.784
2.78796
2.79046
1.00001
1.00002
1.00005
1.00014
1.00031
1.00086
1.00186
1.00525
1.01159
1.03147
1.07695
1.20806
1.55523
2.30114
2.69086
2.73303
2.72703
2.72736
2.73757
2.75181
2.76292
2.76991
2.77608
2.78019
2.78246
1.00001
1.00002
1.00005
1.00011
1.00033
1.00071
1.00198
1.00444
1.01178
1.02818
1.07371
1.19313
1.52019
2.2436
2.66949
2.73003
2.72247
2.72079
2.73029
2.74344
2.75435
2.76077
2.76544
2.76879
2.77057
1.00001
1.00002
1.00004
1.00012
1.00027
1.00072
1.00171
1.00428
1.01062
1.02633
1.06736
1.17727
1.47743
2.16849
2.64108
2.72626
2.71664
2.71234
2.72098
2.73292
2.74236
2.74833
2.75203
2.75379
2.75397
1
1.00002
1.00004
1.0001
1.00026
1.00064
1.00153
1.00398
1.00927
1.02437
1.05975
1.15963
1.42673
2.07287
2.60389
2.72068
2.70869
2.70181
2.70948
2.72077
2.72857
2.73215
2.73358
2.73236
2.72834
1
1.00001
1.00004
1.00009
1.00022
1.00058
1.00134
1.00355
1.00813
1.02158
1.05227
1.13934
1.37121
1.955
2.55635
2.7107
2.69648
2.68734
2.69426
2.70428
2.71101
2.71253
2.71011
2.70258
2.68676
1
1.00001
1.00003
1.00008
1.0002
1.00049
1.00118
1.00301
1.00711
1.01842
1.04488
1.11805
1.31291
1.81678
2.4964
2.69289
2.67798
2.66881
2.67521
2.684
2.68884
2.6876
2.67828
2.65567
2.59844
1
1.00001
1.00003
1.00006
1.00019
1.00038
1.00113
1.00233
1.00666
1.01481
1.03972
1.09853
1.2649
1.69548
2.42919
2.67099
2.65798
2.6491
2.65276
2.66023
2.66334
2.65802
2.6381
2.59063
2.48542
1
1.00001
1.00003
1.00005
1.00016
1.00033
1.00098
1.002
1.00581
1.01271
1.03452
1.08465
1.22819
1.6048
2.34472
2.64016
2.64328
2.63512
2.63253
2.63582
2.63527
2.62448
2.59483
2.53287
2.42226
1
1.00001
1.00002
1.00005
1.00014
1.00029
1.00082
1.00178
1.00486
1.01118
1.02926
1.07264
1.19383
1.51689
2.22225
2.59262
2.63372
2.62422
2.61711
2.61421
2.6084
2.59167
2.5569
2.49585
2.40294
1
1.00001
1.00002
1.00004
1.00011
1.00025
1.00068
1.0015
1.00417
1.00919
1.02505
1.06005
1.16178
1.4296
2.06861
2.53036
2.62334
2.614
2.6021
2.5947
2.58258
2.56294
2.52634
2.4724
2.39522
1
1.00001
1.00001
1.00003
1.00009
1.00021
1.00053
1.00132
1.00316
1.0081
1.01938
1.04998
1.12838
1.3444
1.88538
2.44842
2.60416
2.59819
2.58628
2.57365
2.56074
2.53912
2.505
2.45532
2.39119
1
1
1.00001
1.00003
1.00007
1.00017
1.00043
1.00101
1.00263
1.006
1.01596
1.03769
1.0994
1.25856
1.67767
2.34419
2.56818
2.57206
2.56343
2.55102
2.53645
2.51748
2.4869
2.4439
2.38838
1
1
1.00001
1.00002
1.00006
1.00013
1.00036
1.00079
1.00212
1.00489
1.0126
1.03051
1.07882
1.20597
1.54596
2.23247
2.52846
2.55025
2.54075
2.52985
2.51734
2.49748
2.47204
2.43516
2.38844
1
1
1.00001
1.00002
1.00004
1.00011
1.00027
1.00065
1.00166
1.00386
1.01019
1.02389
1.06268
1.1611
1.43187
2.05404
2.4568
2.53173
2.52506
2.5128
2.50017
2.48322
2.4595
2.4298
2.39027
1
1
1.00001
1.00001
1.00003
1.00009
1.00019
1.00056
1.00115
1.00334
1.00715
1.01961
1.04639
1.12348
1.32453
1.83619
2.35966
2.50616
2.50964
2.50069
2.48647
2.47074
2.45067
2.42466
2.39465
1
1
1
1.00001
1.00003
1.00006
1.00017
1.00035
1.00102
1.00215
1.00598
1.01346
1.03546
1.08741
1.23129
1.60242
2.23169
2.46405
2.48817
2.48361
2.4725
2.46006
2.44324
2.42405
2.40193
1
1
1
1.00001
1.00002
1.00005
1.00013
1.00027
1.00078
1.00161
1.00459
1.01012
1.02704
1.06556
1.17397
1.45728
2.07687
2.4131
2.47174
2.4688
2.45947
2.44915
2.4379
2.42594
2.41121
1
1
1
1.00001
1.00001
1.00004
1.00009
1.00021
1.00056
1.00124
1.00342
1.00749
1.02041
1.04808
1.12829
1.33565
1.85494
2.3213
2.44932
2.45796
2.45275
2.44434
2.43814
2.43301
2.42349
1
1
1
1
1.00001
1.00003
1.00006
1.00017
1.00036
1.00102
1.00215
1.00609
1.01328
1.03573
1.08686
1.22993
1.59603
2.19184
2.4113
2.44299
2.44694
2.44517
2.44328
2.44092
2.43485
1
1
1
1
1.00001
1.00002
1.00005
1.00011
1.0003
1.00068
1.00173
1.00421
1.01024
1.02571
1.06413
1.16746
1.43987
2.03389
2.36841
2.43713
2.4488
2.4517
2.453
2.45142
2.44568
1
1
1
1
1.00001
1.00002
1.00003
1.00009
1.0002
1.00054
1.0012
1.00315
1.00744
1.01881
1.04649
1.12027
1.31655
1.80234
2.28838
2.43355
2.45732
2.46217
2.46346
2.461
2.45288
1
1
1
1
1
1.00001
1.00002
1.00007
1.00014
1.0004
1.00085
1.00233
1.00525
1.0137
1.03272
1.08469
1.21834
1.57113
2.17039
2.42411
2.46946
2.47602
2.47922
2.47443
2.46239
1
1
1
1
1
1.00001
1.00002
1.00005
1.0001
1.0003
1.00064
1.00173
1.00398
1.01023
1.0247
1.06327
1.16348
1.43268
2.02574
2.4056
2.49383
2.49751
2.49415
2.48277
2.46505
1
1
1
1
1
1.00001
1.00001
1.00004
1.00008
1.00023
1.00047
1.00137
1.00284
1.00807
1.01803
1.04824
1.12052
1.32231
1.81252
2.35861
2.52838
2.5324
2.52099
2.5002
2.47308
1
1
1
1
1
1
1.00001
1.00003
1.00006
1.00017
1.00037
1.00103
1.00232
1.00606
1.01437
1.03672
1.09251
1.24417
1.6375
2.29325
2.55348
2.56574
2.54694
2.51487
2.48173
1
1
1
1
1
1
1.00001
1.00002
1.00005
1.00014
1.00031
1.00087
1.00182
1.00525
1.01144
1.03117
1.07592
1.20422
1.53958
2.22353
2.57937
2.61064
2.58459
2.54446
2.50094
1
1
1
1
1
1
1.00001
1.00002
1.00005
1.0001
1.0003
1.00063
1.00178
1.00394
1.01059
1.02508
1.06583
1.17112
1.46085
2.1086
2.58069
2.65504
2.62334
2.57455
2.52522
1
1
1
1
1
1
1.00001
1.00002
1.00004
1.00009
1.00024
1.00056
1.0015
1.00337
1.00921
1.02124
1.05663
1.14516
1.39397
1.98138
2.57215
2.69262
2.65438
2.59977
2.55233
1
1
1
1
1
1
1.00001
1.00001
1.00003
1.00009
1.00019
1.00053
1.00119
1.00317
1.00747
1.01918
1.04771
1.12514
1.3356
1.85305
2.5529
2.72004
2.67753
2.62055
2.57749
1
1
1
1
1
1
1
1.00001
1.00003
1.00008
1.00017
1.00047
1.00106
1.0028
1.00666
1.01693
1.04214
1.10953
1.29212
1.76112
2.51135
2.7271
2.68606
2.63426
2.59863
1
1
1
1
1
1
1
1.00001
1.00003
1.00006
1.00018
1.00037
1.00109
1.00235
1.00649
1.01492
1.0394
1.09922
1.26757
1.71124
2.47587
2.73389
2.70182
2.65773
2.62269
1
1
1
1
1
1
1
1.00001
1.00002
1.00006
1.00015
1.00038
1.00095
1.00228
1.00591
1.01397
1.03652
1.092
1.24803
1.66537
2.43008
2.72709
2.71042
2.67581
2.6408
1
1
1
1
1
1
1
1.00001
1.00003
1.00005
1.00016
1.00033
1.00094
1.00207
1.00559
1.01304
1.03414
1.08592
1.23129
1.62472
2.37472
2.71669
2.71823
2.68984
2.65443
1
1
1
1
1
1
1
1.00001
1.00002
1.00005
1.00015
1.0003
1.0009
1.00187
1.00538
1.01199
1.03233
1.07998
1.21639
1.57912
2.32419
2.70745
2.72536
2.69873
2.66419
1
1
1
1
1
1
1
1.00001
1.00002
1.00005
1.00014
1.00029
1.00084
1.00179
1.00498
1.01141
1.0302
1.07524
1.20263
1.54424
2.27006
2.69795
2.7332
2.70594
2.67029
1
1
1
1
1
1
1
1.00001
1.00002
1.00005
1.00013
1.00028
1.00078
1.00166
1.0048
1.01046
1.02881
1.07018
1.19057
1.51129
2.2154
2.68941
2.74147
2.71151
2.67398
1
1
1
1
1
1
1
1.00001
1.00002
1.00004
1.00012
1.00025
1.00073
1.0016
1.00438
1.01014
1.02667
1.06646
1.17833
1.48123
2.16037
2.68198
2.7503
2.71705
2.67641
1
1
1
1
1
1
1
1.00001
1.00002
1.00005
1.0001
1.00027
1.00062
1.00162
1.00392
1.00984
1.02465
1.06299
1.16701
1.45255
2.10552
2.67629
2.75941
2.7222
2.67802
1
1
1
1
1
1
1
1.00001
1.00002
1.00004
1.0001
1.00024
1.00063
1.00143
1.00391
1.00885
1.02392
1.05834
1.15772
1.42538
2.05258
2.67143
2.76791
2.72636
2.67949
1
1
1
1
1
1
1
1.00001
1.00002
1.00003
1.0001
1.00021
1.00062
1.0013
1.00371
1.00837
1.02245
1.05515
1.14816
1.40091
2.00123
2.66625
2.77616
2.73075
2.68061
1
1
1
1
1
1
1
1.00001
1.00001
1.00004
1.00008
1.00023
1.0005
1.00144
1.00309
1.00874
1.01992
1.05381
1.13812
1.37932
1.95183
2.663
2.78376
2.73386
2.68029
1
1
1
1
1
1
1
1.00001
1.00001
1.00003
1.00009
1.00019
1.00055
1.0012
1.00329
1.00763
1.02006
1.04963
1.13225
1.35829
1.90963
2.65973
2.78858
2.73477
2.68035
1
1
1
1
1
1
1
1.00001
1.00001
1.00003
1.00008
1.0002
1.00051
1.00118
1.00316
1.00725
1.01943
1.04712
1.1265
1.34056
1.87782
2.65053
2.79007
2.73516
2.68227
1
1
1
1
1
1
1
1.00001
1.00001
1.00003
1.00008
1.00019
1.00049
1.00115
1.00306
1.00701
1.01881
1.04543
1.12179
1.32667
1.85507
2.63211
2.79082
2.73717
2.68512
1
1
1
1
1
1
1
1
1.00001
1.00003
1.00008
1.00018
1.0005
1.00111
1.00299
1.00698
1.01814
1.04476
1.11816
1.31732
1.83775
2.61096
2.79235
2.74015
2.68775
1
1
1
1
1
1
1
1
1.00001
1.00003
1.00008
1.00018
1.0005
1.0011
1.00295
1.00696
1.0179
1.04443
1.1166
1.31292
1.82823
2.5969
2.79436
2.74266
2.68953
2.35798
2.49322
2.78784
3.07752
3.05591
3.02126
3.00864
3.00289
2.99543
2.98514
2.97606
2.97276
2.97192
2.97148
2.97129
2.97285
2.97636
2.98143
2.98752
2.99453
3.00084
3.00794
3.01325
3.01862
3.02303
3.02671
3.02866
3.02977
3.03008
3.0285
3.02557
3.0236
3.0226
3.02074
3.01827
3.01391
3.00937
3.00194
2.99779
2.99002
2.98448
2.97556
2.96827
2.95891
2.95047
2.94022
2.9323
2.92198
2.91218
2.90211
2.89189
2.88123
2.87135
2.85999
2.85003
2.83845
2.82796
2.8162
2.80543
2.79417
2.78279
2.77192
2.76027
2.74943
2.73797
2.72693
2.71571
2.70457
2.69347
2.68249
2.67152
2.66081
2.65011
2.63969
2.62928
2.61916
2.60904
2.59926
2.58943
2.58012
2.57062
2.56183
2.55283
2.54452
2.53627
2.52857
2.5211
2.51438
2.50784
2.50233
2.49737
2.49328
2.4906
2.48887
2.48854
2.48863
2.48899
2.48998
2.49302
2.49122
2.374
2.46357
2.62776
2.81727
2.99148
3.03398
3.11992
3.20323
3.203
3.19351
3.18708
3.18587
3.18413
3.18154
3.17764
3.17153
3.16445
3.15393
3.14116
3.12891
3.11887
3.11416
3.10874
3.10138
3.09303
3.08379
3.07358
3.06162
3.05042
3.03818
3.02642
3.01523
3.00213
2.99045
2.97674
2.96476
2.95011
2.93798
2.92486
2.91212
2.89872
2.88676
2.87266
2.86009
2.84624
2.83368
2.82085
2.80767
2.79535
2.78233
2.77007
2.75712
2.7449
2.73231
2.72002
2.70801
2.69562
2.68397
2.67169
2.66009
2.64816
2.63648
2.62492
2.6133
2.60197
2.59057
2.57943
2.56838
2.55749
2.54683
2.53622
2.52595
2.51562
2.50572
2.4957
2.48618
2.47651
2.4674
2.4582
2.44946
2.44089
2.43248
2.42458
2.4167
2.40931
2.4023
2.39543
2.38945
2.38358
2.37859
2.37435
2.37075
2.3686
2.36738
2.36745
2.36775
2.36832
2.36958
2.37308
2.37147
2.36499
2.39064
2.46941
2.52985
2.62884
2.76945
2.85804
2.99534
3.08958
3.14043
3.16835
3.18465
3.19239
3.19817
3.21027
3.20889
3.20297
3.18826
3.16548
3.14126
3.1184
3.09644
3.07386
3.05086
3.02709
3.00228
2.97693
2.95301
2.92867
2.9053
2.88312
2.86142
2.84086
2.82139
2.80225
2.78504
2.76709
2.75155
2.73482
2.72007
2.70533
2.69174
2.6778
2.66385
2.64974
2.63685
2.62353
2.61143
2.59843
2.58702
2.5742
2.56353
2.55097
2.54089
2.52876
2.51907
2.50743
2.49793
2.48675
2.47739
2.46656
2.45742
2.44687
2.43795
2.42766
2.41887
2.40884
2.40009
2.39037
2.38165
2.37231
2.36368
2.35475
2.34628
2.33774
2.32946
2.32137
2.31325
2.30565
2.29782
2.29057
2.28329
2.27629
2.2697
2.26306
2.25703
2.25111
2.24573
2.24082
2.23639
2.23285
2.22979
2.22797
2.22733
2.22739
2.22768
2.22832
2.2297
2.23338
2.23195
2.34611
2.33757
2.36483
2.4036
2.45011
2.51477
2.58476
2.64801
2.7178
2.78575
2.83322
2.87789
2.90367
2.92284
2.93376
2.93341
2.9303
2.92135
2.90804
2.8896
2.86853
2.84454
2.82177
2.7979
2.77388
2.7501
2.72643
2.70404
2.68243
2.663
2.64482
2.62899
2.61395
2.60039
2.58825
2.57625
2.56551
2.55433
2.54433
2.53401
2.52478
2.51561
2.50678
2.49733
2.48782
2.47882
2.46967
2.46121
2.45206
2.44387
2.43476
2.42668
2.41765
2.40955
2.40063
2.3924
2.38357
2.37517
2.36635
2.3578
2.34899
2.34039
2.33161
2.32309
2.31437
2.30602
2.29741
2.28926
2.2808
2.27285
2.26462
2.25685
2.24891
2.2413
2.23373
2.22625
2.21906
2.21181
2.20486
2.19804
2.19122
2.1849
2.17845
2.17244
2.16679
2.16115
2.15633
2.15151
2.14737
2.14391
2.14074
2.13892
2.13762
2.1378
2.13834
2.1394
2.14039
2.14247
2.1477
2.14741
2.33725
2.30994
2.3102
2.32927
2.35562
2.39197
2.42979
2.46989
2.49848
2.52859
2.54691
2.56629
2.5776
2.58637
2.58929
2.58773
2.58491
2.58053
2.57641
2.56918
2.56079
2.55219
2.5426
2.53329
2.52433
2.51621
2.50857
2.5016
2.49525
2.48906
2.48386
2.47802
2.47348
2.46851
2.46414
2.45899
2.45441
2.44895
2.44393
2.43807
2.43283
2.42731
2.4218
2.41552
2.40877
2.4024
2.39579
2.3897
2.38297
2.37676
2.3698
2.3633
2.35608
2.34925
2.34179
2.33466
2.32694
2.31953
2.31153
2.30385
2.2956
2.28771
2.27929
2.27133
2.26284
2.25487
2.24649
2.23851
2.23038
2.22242
2.21459
2.20674
2.19912
2.19154
2.18401
2.17669
2.16921
2.16209
2.15496
2.14793
2.14137
2.13455
2.12847
2.12213
2.11643
2.11084
2.10562
2.10098
2.09648
2.09305
2.08969
2.0878
2.08643
2.08651
2.08684
2.08744
2.08886
2.09109
2.0963
2.09659
2.33743
2.30219
2.28906
2.29108
2.30519
2.32476
2.34697
2.36714
2.38247
2.39224
2.39879
2.40199
2.4045
2.40638
2.40633
2.40506
2.40368
2.40316
2.40431
2.40502
2.40502
2.40485
2.40472
2.40463
2.40468
2.40484
2.40492
2.40484
2.40455
2.40405
2.40284
2.40185
2.39983
2.39797
2.39532
2.39259
2.38917
2.38562
2.38121
2.37702
2.37213
2.36815
2.36288
2.35807
2.35126
2.34569
2.33866
2.33293
2.32583
2.31975
2.31265
2.30625
2.29925
2.29256
2.28556
2.27865
2.27158
2.26459
2.25738
2.25037
2.24301
2.23594
2.2286
2.22143
2.21423
2.20696
2.19982
2.19255
2.18531
2.17813
2.17073
2.16369
2.15611
2.14904
2.14161
2.13456
2.12757
2.12063
2.11409
2.10742
2.10131
2.09505
2.08938
2.08367
2.07842
2.0735
2.06879
2.0648
2.06104
2.05804
2.05586
2.05413
2.05418
2.05448
2.05524
2.05605
2.05847
2.06101
2.06632
2.06671
2.34293
2.30634
2.28565
2.27978
2.28257
2.29174
2.30175
2.31011
2.31416
2.31463
2.3119
2.30852
2.30445
2.30188
2.30016
2.29931
2.29746
2.2969
2.29786
2.30073
2.30336
2.30582
2.30785
2.30972
2.3114
2.31279
2.3141
2.31485
2.3155
2.31563
2.31543
2.31486
2.31367
2.31247
2.31037
2.30856
2.30571
2.3033
2.29972
2.29668
2.2929
2.28997
2.2861
2.28236
2.27727
2.27259
2.26714
2.26211
2.25646
2.25102
2.24513
2.23929
2.23316
2.22689
2.22053
2.21387
2.20735
2.20045
2.1938
2.18685
2.18001
2.17317
2.16616
2.1595
2.15245
2.14589
2.13894
2.13234
2.12552
2.11877
2.112
2.1051
2.09849
2.09173
2.08517
2.07873
2.07218
2.06614
2.05975
2.05405
2.04804
2.04264
2.03717
2.03212
2.02734
2.02273
2.01882
2.01493
2.01205
2.00928
2.00766
2.00669
2.0068
2.00722
2.00771
2.00884
2.01163
2.01437
2.01936
2.01977
2.35103
2.31911
2.29565
2.28387
2.28032
2.28036
2.28119
2.28033
2.27666
2.26942
2.26165
2.25248
2.2453
2.23871
2.23532
2.23306
2.23205
2.23017
2.23032
2.2319
2.23539
2.23893
2.24183
2.24479
2.24725
2.25
2.25229
2.25468
2.25671
2.25842
2.25984
2.26083
2.26147
2.26179
2.26154
2.26101
2.25998
2.25869
2.25661
2.25442
2.25181
2.24939
2.24637
2.24289
2.23857
2.23399
2.22912
2.22406
2.21892
2.2135
2.20814
2.20241
2.19678
2.19079
2.18481
2.17867
2.17235
2.1661
2.15945
2.15301
2.14615
2.13941
2.13247
2.12536
2.11835
2.11093
2.10378
2.09624
2.08895
2.08164
2.07437
2.06743
2.06029
2.05373
2.04685
2.04056
2.03404
2.02792
2.02185
2.01589
2.01035
2.00467
1.99966
1.9945
1.99002
1.98569
1.98185
1.97865
1.97574
1.97393
1.97243
1.97249
1.97276
1.97332
1.97429
1.97688
1.97986
1.98425
1.9889
1.99073
2.36276
2.33481
2.31382
2.29846
2.28866
2.28191
2.27469
2.2669
2.2565
2.24531
2.23267
2.22134
2.21039
2.20225
2.19544
2.19186
2.18916
2.18796
2.1862
2.18634
2.18763
2.19082
2.19398
2.19706
2.20013
2.20297
2.20589
2.20851
2.21113
2.21331
2.21533
2.2169
2.21807
2.21882
2.2191
2.21898
2.21843
2.21751
2.21593
2.21419
2.21214
2.21023
2.20789
2.20504
2.20171
2.19783
2.19382
2.18936
2.18482
2.18001
2.17504
2.16993
2.16461
2.15919
2.15363
2.14784
2.1421
2.13602
2.1301
2.1239
2.11774
2.11153
2.10509
2.09891
2.09229
2.08608
2.07944
2.07322
2.06671
2.06039
2.05401
2.04758
2.04133
2.03492
2.02883
2.02258
2.01666
2.01071
2.00496
1.99946
1.99395
1.98901
1.98392
1.97955
1.97521
1.97152
1.96824
1.96544
1.9635
1.962
1.96175
1.96196
1.96255
1.96326
1.96489
1.96815
1.97167
1.97556
1.97998
1.98107
2.37832
2.35485
2.33507
2.31852
2.30413
2.29086
2.27767
2.26378
2.24935
2.23412
2.2197
2.20538
2.19355
2.18246
2.17467
2.168
2.16461
2.16107
2.15992
2.15765
2.15761
2.15808
2.16043
2.16318
2.16625
2.16909
2.17215
2.17477
2.17764
2.18004
2.18235
2.18436
2.18589
2.18719
2.18795
2.18846
2.18839
2.18792
2.18695
2.18567
2.18405
2.18259
2.18049
2.17803
2.17494
2.17133
2.16759
2.16321
2.15893
2.15414
2.14934
2.14438
2.13904
2.13392
2.12812
2.12272
2.11667
2.11088
2.10475
2.09854
2.09238
2.08587
2.07966
2.07295
2.06664
2.0599
2.05351
2.04685
2.04033
2.03379
2.02714
2.02077
2.0141
2.0079
2.0014
1.99538
1.98924
1.98341
1.97773
1.97217
1.96705
1.96193
1.95745
1.95302
1.94935
1.94597
1.94325
1.94128
1.9398
1.93947
1.93966
1.94028
1.94089
1.94234
1.94531
1.94866
1.95264
1.95591
1.96014
1.9608
2.39407
2.37498
2.35547
2.33743
2.3195
2.30211
2.28469
2.26745
2.25025
2.23338
2.21729
2.20248
2.18881
2.17717
2.16698
2.15901
2.15256
2.14794
2.14423
2.14179
2.14006
2.13877
2.13889
2.13994
2.14217
2.14488
2.14728
2.14992
2.15253
2.15474
2.15721
2.15893
2.16083
2.16203
2.16312
2.16362
2.1638
2.16351
2.16275
2.16144
2.16037
2.15884
2.15722
2.15491
2.15215
2.14902
2.14539
2.14155
2.13734
2.13291
2.1284
2.12348
2.11874
2.11343
2.10841
2.10285
2.09749
2.0918
2.08607
2.08029
2.07425
2.06838
2.06209
2.0561
2.04974
2.04362
2.03728
2.03103
2.02478
2.01842
2.01229
2.00587
1.99981
1.99348
1.98753
1.98145
1.97567
1.97002
1.96451
1.95941
1.95431
1.94982
1.94535
1.94166
1.93816
1.93545
1.93331
1.93185
1.9313
1.93145
1.93198
1.93253
1.93388
1.93627
1.94004
1.94287
1.94692
1.94912
1.95315
1.95319
2.41047
2.39386
2.37464
2.35434
2.33393
2.31306
2.29331
2.2737
2.25494
2.23747
2.22081
2.20578
2.19131
2.17886
2.16712
2.15765
2.14906
2.14269
2.13682
2.13274
2.12876
2.12669
2.12488
2.12411
2.12429
2.12568
2.1274
2.12977
2.132
2.13446
2.13662
2.13841
2.14009
2.14127
2.14221
2.14279
2.14292
2.1427
2.14191
2.14086
2.13964
2.13821
2.13661
2.13427
2.13182
2.1287
2.12541
2.12171
2.11756
2.11341
2.10864
2.10409
2.09899
2.09404
2.08878
2.08342
2.07804
2.0723
2.06674
2.06074
2.05499
2.04885
2.04297
2.03687
2.03085
2.02483
2.01866
2.01275
2.00652
2.00068
1.99448
1.98866
1.98263
1.9768
1.97106
1.96531
1.95997
1.95448
1.94959
1.94457
1.94015
1.93581
1.932
1.92869
1.92581
1.92375
1.92223
1.92167
1.92181
1.92233
1.92294
1.92428
1.9273
1.92993
1.93388
1.93646
1.93999
1.94162
1.94489
1.94458
2.42308
2.40745
2.38823
2.36736
2.34581
2.32444
2.30352
2.28395
2.26472
2.24706
2.22975
2.21421
2.19927
2.18573
2.17308
2.16175
2.15153
2.14272
2.13498
2.12865
2.12329
2.11952
2.11608
2.11433
2.11271
2.11235
2.11256
2.11346
2.11505
2.11681
2.11851
2.11989
2.12122
2.12214
2.12299
2.12344
2.12355
2.12334
2.12265
2.12162
2.12036
2.11917
2.11752
2.11557
2.11319
2.11031
2.10732
2.10362
2.09996
2.09569
2.09144
2.0869
2.08214
2.07743
2.07224
2.06734
2.0618
2.05661
2.05082
2.0453
2.03939
2.03364
2.02779
2.02187
2.01608
2.01004
2.00428
1.9982
1.9924
1.98639
1.98052
1.97467
1.96878
1.96317
1.95741
1.95214
1.94672
1.94188
1.93702
1.93269
1.92854
1.92488
1.92171
1.91899
1.91702
1.91559
1.91507
1.91521
1.91564
1.91632
1.918
1.92013
1.92363
1.92637
1.92976
1.93185
1.93436
1.93543
1.93765
1.93687
2.43404
2.41773
2.39769
2.37605
2.35363
2.33211
2.31092
2.29173
2.27306
2.25597
2.23928
2.22367
2.20853
2.19432
2.18071
2.16814
2.15662
2.14626
2.13715
2.12906
2.1223
2.11619
2.11143
2.10737
2.10453
2.10233
2.10109
2.10002
2.10003
2.10044
2.10138
2.1022
2.10325
2.10406
2.10474
2.10511
2.10525
2.10501
2.10441
2.10323
2.10215
2.10088
2.09925
2.09738
2.0948
2.09219
2.08899
2.08563
2.08194
2.07788
2.07383
2.06926
2.06489
2.05999
2.05528
2.05017
2.04512
2.03984
2.03443
2.02901
2.02338
2.01792
2.01215
2.00664
2.0008
1.9952
1.98942
1.9837
1.97804
1.97223
1.96672
1.96093
1.95559
1.94997
1.94485
1.93961
1.9348
1.93018
1.9258
1.92192
1.91822
1.91532
1.91263
1.91091
1.90953
1.90925
1.90942
1.90984
1.91067
1.91235
1.9152
1.918
1.92141
1.92396
1.9266
1.92815
1.92972
1.93035
1.93179
1.93063
2.43917
2.42104
2.40088
2.37982
2.35873
2.3384
2.31874
2.30023
2.28253
2.26575
2.24947
2.23377
2.21858
2.20376
2.18972
2.17608
2.1635
2.15154
2.1409
2.13087
2.12225
2.11419
2.10755
2.10159
2.09687
2.09284
2.08997
2.08769
2.08643
2.08517
2.08508
2.0852
2.08571
2.08628
2.08659
2.08685
2.08675
2.08641
2.08574
2.08459
2.08363
2.08223
2.08092
2.07896
2.0767
2.07419
2.07114
2.06807
2.0643
2.06064
2.05639
2.05218
2.04764
2.043
2.0383
2.03335
2.02851
2.02329
2.0183
2.01295
2.0078
2.00239
1.99705
1.99162
1.98608
1.98068
1.975
1.96962
1.96393
1.95858
1.95302
1.94772
1.94243
1.93726
1.93238
1.92749
1.92321
1.91881
1.91522
1.91157
1.90894
1.90634
1.90488
1.90359
1.90354
1.90374
1.9042
1.90511
1.90714
1.90981
1.91302
1.91595
1.91884
1.92085
1.92281
1.92357
1.92461
1.92481
1.92546
1.924
2.44625
2.42624
2.40506
2.38378
2.36315
2.34377
2.32517
2.30774
2.29076
2.27445
2.25854
2.2428
2.22751
2.21231
2.1976
2.18333
2.16954
2.15657
2.14437
2.1331
2.12277
2.11351
2.10509
2.0978
2.09124
2.08588
2.08115
2.07767
2.0747
2.07267
2.07096
2.06968
2.06897
2.06864
2.06849
2.06831
2.06799
2.06759
2.06678
2.06584
2.06479
2.06355
2.06239
2.06044
2.05859
2.05599
2.05347
2.05033
2.04703
2.04342
2.03944
2.03543
2.03094
2.02664
2.02184
2.01727
2.01231
2.00744
2.00245
1.99735
1.99234
1.98704
1.982
1.9766
1.97149
1.9661
1.96088
1.95561
1.95033
1.94526
1.94
1.93519
1.93009
1.92559
1.92083
1.91677
1.91253
1.90906
1.90557
1.90301
1.90065
1.89925
1.89821
1.89827
1.89852
1.89909
1.90014
1.9023
1.90504
1.90839
1.91101
1.91408
1.9158
1.91764
1.9185
1.91904
1.91898
1.91898
1.91888
1.91749
2.44623
2.42577
2.40529
2.38515
2.36595
2.34788
2.33055
2.31393
2.29782
2.28184
2.26619
2.25048
2.23489
2.21953
2.20421
2.1895
2.175
2.16122
2.14814
2.13574
2.12429
2.1136
2.10381
2.09486
2.08682
2.0797
2.07347
2.06819
2.06369
2.0601
2.05709
2.05465
2.0531
2.05174
2.05094
2.05037
2.05001
2.04963
2.04883
2.0481
2.04683
2.04589
2.0444
2.04275
2.04069
2.03832
2.03585
2.03282
2.02984
2.02623
2.02274
2.01871
2.01473
2.01042
2.006
2.00148
1.99669
1.99203
1.98705
1.98224
1.97714
1.97216
1.96708
1.96192
1.95695
1.95169
1.94685
1.94162
1.9369
1.93185
1.92728
1.92253
1.91818
1.91387
1.90989
1.90619
1.90275
1.89972
1.8972
1.8952
1.89388
1.89316
1.89325
1.89361
1.89434
1.89557
1.89808
1.90066
1.90416
1.90679
1.90954
1.91157
1.91279
1.91402
1.91405
1.91396
1.91363
1.91336
1.91282
1.91118
2.44823
2.42628
2.40597
2.38717
2.36907
2.35218
2.33578
2.31992
2.30421
2.28855
2.2729
2.25714
2.24144
2.22573
2.2102
2.19494
2.17997
2.16553
2.15162
2.13834
2.12579
2.1139
2.1028
2.09253
2.08305
2.07451
2.06683
2.06005
2.05409
2.04917
2.04495
2.0414
2.03869
2.03645
2.03508
2.03367
2.03294
2.0319
2.03127
2.0302
2.02912
2.02809
2.02659
2.02512
2.02305
2.02111
2.01862
2.01605
2.01309
2.00984
2.00644
2.00264
1.99886
1.99464
1.99051
1.98599
1.98153
1.97693
1.97223
1.96761
1.96271
1.95805
1.95305
1.94833
1.94335
1.93859
1.93373
1.92896
1.92432
1.91963
1.91531
1.91085
1.90693
1.90294
1.89959
1.89623
1.89355
1.8911
1.88949
1.88825
1.88795
1.88806
1.88854
1.88954
1.89093
1.89375
1.89659
1.89991
1.90285
1.90512
1.90748
1.90825
1.90958
1.90948
1.90928
1.90896
1.9082
1.90752
1.90636
1.90487
2.4533
2.42997
2.40965
2.39157
2.37433
2.35774
2.34166
2.32593
2.31031
2.29451
2.27864
2.26263
2.24667
2.23081
2.21512
2.19966
2.18437
2.16948
2.15494
2.14103
2.12756
2.11484
2.10272
2.09141
2.08081
2.07102
2.06205
2.05394
2.04676
2.04049
2.03499
2.03045
2.0262
2.02312
2.02054
2.01855
2.01714
2.01574
2.01491
2.01367
2.01286
2.01162
2.01054
2.00916
2.00757
2.00588
2.00367
2.00149
1.99865
1.99589
1.99256
1.98919
1.98548
1.98153
1.97753
1.97317
1.96898
1.96442
1.96001
1.95538
1.95074
1.94616
1.94132
1.93685
1.93192
1.92754
1.92266
1.91835
1.91366
1.90951
1.90513
1.90135
1.89744
1.89429
1.89104
1.88861
1.88628
1.88494
1.88381
1.88375
1.88393
1.88446
1.88563
1.8873
1.8903
1.89329
1.89635
1.89939
1.90139
1.90381
1.90447
1.90562
1.90544
1.90524
1.90482
1.90419
1.90284
1.90149
1.90008
1.89869
2.46776
2.44293
2.42222
2.40362
2.38583
2.36861
2.35171
2.3351
2.31882
2.30273
2.28657
2.27041
2.25411
2.23784
2.22155
2.20553
2.18969
2.17428
2.15923
2.14469
2.13062
2.11705
2.10423
2.09185
2.08047
2.06957
2.05968
2.0504
2.04201
2.03433
2.02766
2.02182
2.01686
2.0127
2.0092
2.00668
2.00445
2.00286
2.00146
2.00036
1.99944
1.99839
1.99761
1.99637
1.99537
1.99373
1.99215
1.99
1.98766
1.98501
1.98193
1.97878
1.97509
1.97142
1.96732
1.9632
1.95894
1.95442
1.9501
1.94529
1.94096
1.93606
1.9317
1.92685
1.92248
1.91777
1.91348
1.90898
1.9049
1.90072
1.89703
1.89333
1.89025
1.88721
1.88487
1.8827
1.88148
1.88055
1.88056
1.88079
1.88139
1.88281
1.88491
1.88782
1.89095
1.89377
1.89695
1.8987
1.90107
1.90169
1.90272
1.90254
1.90232
1.90193
1.90106
1.89997
1.89805
1.8964
1.89469
1.89326
2.48836
2.46115
2.4391
2.41944
2.40095
2.38287
2.36526
2.34782
2.33052
2.31335
2.29632
2.27934
2.26265
2.24597
2.22966
2.2133
2.19723
2.1812
2.16558
2.15038
2.13569
2.12164
2.10815
2.0953
2.0831
2.07142
2.06051
2.05021
2.04072
2.03211
2.02434
2.01752
2.01149
2.00616
2.00182
1.9983
1.99549
1.99324
1.99151
1.99032
1.98911
1.98833
1.98725
1.98643
1.98514
1.98379
1.98206
1.97998
1.97773
1.97497
1.97216
1.96892
1.96555
1.962
1.95812
1.95434
1.95008
1.94609
1.9416
1.93743
1.93285
1.92857
1.92399
1.91966
1.91516
1.91087
1.90658
1.90244
1.89849
1.89471
1.89122
1.88811
1.8853
1.88296
1.88105
1.87987
1.87925
1.87929
1.87954
1.88031
1.88207
1.88462
1.88747
1.89086
1.89342
1.89667
1.89827
1.90053
1.90113
1.90201
1.90179
1.90154
1.90104
1.90032
1.89882
1.89726
1.89501
1.89313
1.89123
1.88969
2.51737
2.48946
2.46536
2.44293
2.42222
2.40216
2.38265
2.36352
2.3447
2.32634
2.30844
2.29093
2.27374
2.25679
2.24003
2.22343
2.20707
2.19094
2.17511
2.15975
2.14464
2.13
2.1156
2.10178
2.08841
2.07572
2.06374
2.05257
2.04225
2.0329
2.02441
2.01695
2.01045
2.00474
1.99968
1.99539
1.99178
1.9889
1.98645
1.98435
1.98279
1.98142
1.9803
1.97914
1.97791
1.97661
1.97496
1.97326
1.97113
1.96886
1.9663
1.9634
1.96043
1.95697
1.95358
1.94974
1.94598
1.94187
1.93781
1.93351
1.92926
1.92488
1.92056
1.91618
1.9119
1.90764
1.90355
1.89956
1.89583
1.89234
1.88924
1.88651
1.8842
1.8824
1.88129
1.88075
1.88078
1.88102
1.88202
1.88405
1.88691
1.88959
1.89313
1.89542
1.89861
1.90015
1.90222
1.90281
1.90353
1.90325
1.90294
1.90244
1.9015
1.90023
1.89822
1.89635
1.89388
1.89182
1.88976
1.88816
2.54533
2.51844
2.49406
2.47103
2.44892
2.42759
2.4067
2.3862
2.36621
2.34657
2.32747
2.30886
2.29068
2.27296
2.25547
2.23833
2.22124
2.20442
2.18768
2.17134
2.15544
2.14
2.12529
2.11115
2.09777
2.08507
2.07308
2.06177
2.05128
2.04139
2.03235
2.024
2.0163
2.00949
2.00312
1.99755
1.99274
1.98878
1.98559
1.98309
1.98117
1.97953
1.97826
1.97698
1.97585
1.97457
1.97321
1.97167
1.96987
1.96791
1.96558
1.96309
1.96022
1.95717
1.95385
1.95029
1.94659
1.94264
1.93863
1.93444
1.93023
1.9259
1.92161
1.91729
1.91305
1.9089
1.90488
1.9011
1.89755
1.89441
1.89161
1.88933
1.88741
1.88643
1.88565
1.88566
1.88595
1.88738
1.88932
1.89249
1.89488
1.89844
1.90055
1.90349
1.90495
1.90677
1.90729
1.90782
1.90749
1.90706
1.90642
1.90555
1.90396
1.90223
1.8999
1.89784
1.89515
1.89297
1.89076
1.88911
2.57215
2.54869
2.52581
2.50317
2.48078
2.45873
2.43708
2.41582
2.39486
2.37437
2.3541
2.33436
2.31491
2.2959
2.27724
2.25892
2.24104
2.22356
2.20649
2.19014
2.1742
2.15895
2.144
2.12956
2.11557
2.10194
2.08909
2.07663
2.06515
2.05412
2.0441
2.03461
2.02606
2.01826
2.01126
2.00512
1.99959
1.99509
1.99114
1.98792
1.98523
1.98295
1.98118
1.97955
1.97831
1.97704
1.97593
1.97467
1.97328
1.97171
1.96974
1.96762
1.96496
1.96219
1.95894
1.95552
1.95184
1.94788
1.94391
1.9396
1.9355
1.93102
1.92695
1.92246
1.91858
1.91426
1.91076
1.9069
1.90398
1.90094
1.89884
1.89677
1.89576
1.89479
1.89468
1.89518
1.89693
1.89858
1.90185
1.90401
1.90738
1.90941
1.9121
1.91347
1.91507
1.91555
1.91579
1.9154
1.915
1.91421
1.91322
1.91175
1.90973
1.90777
1.90521
1.90296
1.90012
1.89779
1.89549
1.89379
2.59707
2.57545
2.55448
2.53281
2.51115
2.48937
2.46801
2.44677
2.42574
2.40487
2.38423
2.36392
2.3441
2.3247
2.3059
2.28742
2.26941
2.25167
2.23419
2.21695
2.20008
2.18359
2.16756
2.15207
2.13717
2.12299
2.10945
2.09655
2.08443
2.0727
2.06194
2.05155
2.04223
2.03341
2.02557
2.01837
2.01179
2.00612
2.00104
1.99694
1.99347
1.9908
1.98882
1.9872
1.9862
1.98507
1.98437
1.9832
1.98219
1.98068
1.97899
1.97706
1.97455
1.9722
1.969
1.96615
1.9624
1.95903
1.95484
1.95102
1.94651
1.94244
1.93778
1.93375
1.92919
1.92549
1.9214
1.91827
1.91512
1.91273
1.91067
1.90936
1.90816
1.90805
1.90872
1.91057
1.91206
1.91511
1.91711
1.92021
1.92213
1.92457
1.92594
1.9272
1.92785
1.92777
1.92739
1.92668
1.92607
1.92484
1.9234
1.92152
1.91929
1.91712
1.91445
1.91208
1.9092
1.9068
1.9045
1.90278
2.61615
2.59665
2.57763
2.55835
2.53806
2.51782
2.4972
2.47683
2.45625
2.43601
2.41585
2.39612
2.37662
2.35732
2.33827
2.31928
2.30059
2.28204
2.26389
2.24601
2.22865
2.21177
2.19541
2.17946
2.16404
2.14906
2.13456
2.12071
2.10743
2.09491
2.08321
2.07214
2.06201
2.05233
2.04361
2.03534
2.02794
2.02118
2.01531
2.01042
2.00614
2.00282
1.99987
1.99762
1.99559
1.99394
1.99246
1.9911
1.9899
1.98856
1.98738
1.98582
1.98436
1.98239
1.98035
1.97785
1.97506
1.97195
1.96846
1.9648
1.96076
1.95675
1.9525
1.94836
1.94432
1.94048
1.93702
1.93387
1.93144
1.92922
1.92756
1.92648
1.92651
1.9273
1.92907
1.9305
1.93331
1.93523
1.93808
1.93989
1.94209
1.94346
1.94448
1.9451
1.94495
1.94436
1.94387
1.94292
1.94205
1.94032
1.93861
1.93645
1.93411
1.93173
1.92891
1.92635
1.9233
1.92065
1.91823
1.9162
2.63013
2.61231
2.59568
2.57839
2.56049
2.54183
2.52327
2.50439
2.48561
2.46652
2.44713
2.42775
2.40819
2.38877
2.36956
2.35057
2.33191
2.31352
2.29525