/*--------------------------------*- C++ -*----------------------------------*\
  =========                 |
  \\      /  F ield         | OpenFOAM: The Open Source CFD Toolbox
   \\    /   O peration     | Website:  https://openfoam.org
    \\  /    A nd           | Version:  13
     \\/     M anipulation  |
\*---------------------------------------------------------------------------*/
FoamFile
{
    format      ascii;
    class       volVectorField;
    location    "10";
    object      U;
}
// * * * * * * * * * * * * * * * * * * * * * * * * * * * * * * * * * * * * * //

dimensions      [0 1 -1 0 0 0 0];

internalField   nonuniform List<vector> 
5250
(
(2.99999 -1.25071e-08 0)
(2.99998 1.34464e-07 0)
(2.99995 -1.28952e-07 0)
(2.99988 1.36496e-06 0)
(2.99969 -6.99448e-07 0)
(2.99925 8.76431e-06 0)
(2.99813 -2.04915e-06 0)
(2.9954 5.04154e-05 0)
(2.98857 1.7685e-05 0)
(2.97132 0.00024074 0)
(2.92575 0.000335244 0)
(2.79822 0.00122485 0)
(2.42218 0.00315297 0)
(1.41203 0.00942746 0)
(0.609642 0.0214589 0)
(0.557273 0.0226178 0)
(0.574827 0.0236573 0)
(0.559725 0.0251732 0)
(0.503771 0.0269777 0)
(0.417283 0.0291128 0)
(0.337117 0.0316759 0)
(0.268746 0.0346071 0)
(0.19877 0.0377054 0)
(0.119351 0.041362 0)
(0.0525042 0.0466147 0)
(2.99999 3.69442e-08 0)
(2.99998 2.09304e-07 0)
(2.99995 6.33488e-07 0)
(2.99988 2.01778e-06 0)
(2.9997 4.79254e-06 0)
(2.99925 1.2061e-05 0)
(2.99817 3.48277e-05 0)
(2.99541 7.18929e-05 0)
(2.98873 0.000224051 0)
(2.97158 0.000488307 0)
(2.92659 0.00135909 0)
(2.80053 0.00349947 0)
(2.42898 0.00994851 0)
(1.42649 0.0290721 0)
(0.618812 0.0648831 0)
(0.556526 0.065282 0)
(0.574326 0.0655605 0)
(0.559682 0.0679296 0)
(0.503943 0.070947 0)
(0.417657 0.0748957 0)
(0.33738 0.0794403 0)
(0.268326 0.0842219 0)
(0.197284 0.0886689 0)
(0.116502 0.0930402 0)
(0.0491427 0.0974336 0)
(2.99999 6.1664e-08 0)
(2.99998 3.7445e-07 0)
(2.99995 1.26654e-06 0)
(2.99988 3.55733e-06 0)
(2.9997 9.38839e-06 0)
(2.99927 2.22153e-05 0)
(2.99818 6.14517e-05 0)
(2.99556 0.000133783 0)
(2.98891 0.000377084 0)
(2.97226 0.000854319 0)
(2.9283 0.0022968 0)
(2.80527 0.00595297 0)
(2.44375 0.0168096 0)
(1.45865 0.0493427 0)
(0.640404 0.111607 0)
(0.556271 0.110427 0)
(0.575219 0.109846 0)
(0.56218 0.114334 0)
(0.507338 0.119996 0)
(0.422011 0.127621 0)
(0.341985 0.136017 0)
(0.272403 0.144687 0)
(0.200359 0.152971 0)
(0.118109 0.160598 0)
(0.0487938 0.166408 0)
(2.99999 7.17301e-08 0)
(2.99998 4.8751e-07 0)
(2.99995 1.74289e-06 0)
(2.99988 4.82789e-06 0)
(2.99971 1.29404e-05 0)
(2.99929 3.37328e-05 0)
(2.99826 7.76186e-05 0)
(2.99568 0.000214543 0)
(2.98933 0.000473407 0)
(2.97317 0.00128344 0)
(2.93086 0.00311 0)
(2.81255 0.00841534 0)
(2.46556 0.0233314 0)
(1.50846 0.0687173 0)
(0.673296 0.158912 0)
(0.555263 0.154995 0)
(0.577184 0.153089 0)
(0.567408 0.159966 0)
(0.514173 0.168535 0)
(0.430521 0.180124 0)
(0.35101 0.192736 0)
(0.281101 0.205864 0)
(0.207993 0.218744 0)
(0.123543 0.230409 0)
(0.0506794 0.238127 0)
(3 1.23378e-07 0)
(2.99998 5.78884e-07 0)
(2.99996 2.46898e-06 0)
(2.99989 5.66642e-06 0)
(2.99973 1.8217e-05 0)
(2.99933 3.77105e-05 0)
(2.99833 0.000114925 0)
(2.99589 0.000235487 0)
(2.9898 0.000686094 0)
(2.97446 0.00152072 0)
(2.9342 0.00414147 0)
(2.82225 0.0106017 0)
(2.49408 0.0299585 0)
(1.57652 0.0872868 0)
(0.717464 0.207812 0)
(0.552784 0.199265 0)
(0.579941 0.195378 0)
(0.575176 0.204694 0)
(0.524122 0.21617 0)
(0.442808 0.231718 0)
(0.364165 0.248771 0)
(0.294154 0.266858 0)
(0.219894 0.285097 0)
(0.132339 0.301831 0)
(0.0543916 0.312413 0)
(3 1.09879e-07 0)
(2.99998 8.78544e-07 0)
(2.99996 2.47351e-06 0)
(2.9999 8.5686e-06 0)
(2.99974 1.84087e-05 0)
(2.99937 5.56176e-05 0)
(2.99842 0.00011818 0)
(2.99615 0.000335529 0)
(2.9904 0.000747117 0)
(2.97605 0.00200212 0)
(2.93842 0.00485872 0)
(2.8341 0.0130615 0)
(2.52979 0.0361904 0)
(1.66342 0.105366 0)
(0.773846 0.25898 0)
(0.548716 0.243512 0)
(0.584107 0.23687 0)
(0.586183 0.248725 0)
(0.537699 0.263194 0)
(0.459377 0.282941 0)
(0.382092 0.305021 0)
(0.312363 0.329057 0)
(0.237079 0.354136 0)
(0.145634 0.378115 0)
(0.0605804 0.393954 0)
(3 1.46366e-07 0)
(2.99999 8.99184e-07 0)
(2.99996 3.2513e-06 0)
(2.9999 8.83432e-06 0)
(2.99976 2.39896e-05 0)
(2.99941 5.99468e-05 0)
(2.99857 0.000148206 0)
(2.99641 0.000375211 0)
(2.99119 0.000906632 0)
(2.97788 0.00229438 0)
(2.94344 0.00576333 0)
(2.84833 0.0151783 0)
(2.5716 0.0421843 0)
(1.77133 0.122374 0)
(0.843535 0.311868 0)
(0.544371 0.288519 0)
(0.591122 0.278265 0)
(0.601693 0.292272 0)
(0.555969 0.30953 0)
(0.481324 0.333626 0)
(0.40608 0.36143 0)
(0.33731 0.392749 0)
(0.261552 0.426834 0)
(0.165865 0.461639 0)
(0.0709641 0.487685 0)
(3 1.83828e-07 0)
(2.99999 9.40576e-07 0)
(2.99997 3.82186e-06 0)
(2.99991 9.19899e-06 0)
(2.99978 2.81902e-05 0)
(2.99947 6.1956e-05 0)
(2.99869 0.000177324 0)
(2.99679 0.000389754 0)
(2.992 0.00107439 0)
(2.98011 0.00248301 0)
(2.94914 0.00658478 0)
(2.86456 0.0168662 0)
(2.61958 0.0471946 0)
(1.90083 0.136417 0)
(0.929842 0.361851 0)
(0.544789 0.333366 0)
(0.603867 0.319804 0)
(0.623653 0.335049 0)
(0.580553 0.354713 0)
(0.510229 0.383355 0)
(0.437876 0.417681 0)
(0.371174 0.457809 0)
(0.29647 0.503618 0)
(0.197627 0.554715 0)
(0.0892591 0.601635 0)
(3 1.68569e-07 0)
(2.99999 1.07761e-06 0)
(2.99997 3.67163e-06 0)
(2.99992 1.05782e-05 0)
(2.99981 2.74406e-05 0)
(2.99953 7.05962e-05 0)
(2.99884 0.000175169 0)
(2.99716 0.000438677 0)
(2.99294 0.00108928 0)
(2.98248 0.00272118 0)
(2.95543 0.00689185 0)
(2.88227 0.0180049 0)
(2.67194 0.0498602 0)
(2.04917 0.144635 0)
(1.03575 0.401739 0)
(0.559851 0.379852 0)
(0.627287 0.365985 0)
(0.654853 0.378634 0)
(0.614084 0.399678 0)
(0.548542 0.432072 0)
(0.479901 0.473664 0)
(0.416734 0.523109 0)
(0.346429 0.583108 0)
(0.250094 0.6599 0)
(0.123779 0.750114 0)
(3 1.58902e-07 0)
(2.99999 1.07209e-06 0)
(2.99997 3.45657e-06 0)
(2.99993 1.05292e-05 0)
(2.99983 2.59501e-05 0)
(2.9996 6.9614e-05 0)
(2.99899 0.000166736 0)
(2.99755 0.000427139 0)
(2.9939 0.0010424 0)
(2.98494 0.00261479 0)
(2.9619 0.00657088 0)
(2.90045 0.0170854 0)
(2.72613 0.0468236 0)
(2.21175 0.135298 0)
(1.17406 0.393368 0)
(0.612529 0.417285 0)
(0.670067 0.417227 0)
(0.698764 0.422671 0)
(0.660194 0.445727 0)
(0.599362 0.479837 0)
(0.534741 0.527992 0)
(0.476729 0.586119 0)
(0.418876 0.664883 0)
(0.340529 0.78422 0)
(0.190897 0.99151 0)
(3 1.36853e-07 0)
(2.99999 9.52878e-07 0)
(2.99998 3.01333e-06 0)
(2.99994 9.27315e-06 0)
(2.99986 2.25394e-05 0)
(2.99965 6.07411e-05 0)
(2.99914 0.0001438 0)
(2.99789 0.000371814 0)
(2.99476 0.00088946 0)
(2.98708 0.00224887 0)
(2.96751 0.00553527 0)
(2.91582 0.0142784 0)
(2.77109 0.0382159 0)
(2.34677 0.108513 0)
(1.32515 0.323805 0)
(0.676542 0.445745 0)
(0.707634 0.471901 0)
(0.73746 0.470641 0)
(0.710087 0.492799 0)
(0.657369 0.526614 0)
(0.600736 0.577251 0)
(0.554409 0.643003 0)
(0.526083 0.737391 0)
(0.526546 0.88362 0)
(0.562975 1.12595 0)
(3 1.26437e-07 0)
(2.99999 7.98409e-07 0)
(2.99998 2.75662e-06 0)
(2.99995 7.75179e-06 0)
(2.99988 2.04431e-05 0)
(2.9997 5.08732e-05 0)
(2.99925 0.000128637 0)
(2.99817 0.000312273 0)
(2.99546 0.000781072 0)
(2.98881 0.00190678 0)
(2.97193 0.00476367 0)
(2.92762 0.0120216 0)
(2.80419 0.0317916 0)
(2.44316 0.0885313 0)
(1.48642 0.261999 0)
(0.755332 0.490831 0)
(0.724626 0.52154 0)
(0.753716 0.519389 0)
(0.748132 0.537134 0)
(0.711172 0.570343 0)
(0.670149 0.620074 0)
(0.641996 0.689487 0)
(0.644133 0.788214 0)
(0.698632 0.926283 0)
(0.825693 1.10351 0)
(3 1.14569e-07 0)
(2.99999 7.53384e-07 0)
(2.99998 2.53055e-06 0)
(2.99996 7.36097e-06 0)
(2.99989 1.86977e-05 0)
(2.99974 4.86304e-05 0)
(2.99935 0.000117083 0)
(2.99843 0.000298717 0)
(2.99609 0.000714598 0)
(2.9904 0.00181425 0)
(2.97593 0.00440618 0)
(2.93832 0.0112907 0)
(2.83427 0.0294559 0)
(2.53151 0.0820432 0)
(1.68263 0.239126 0)
(0.87036 0.539587 0)
(0.732708 0.55514 0)
(0.763258 0.556999 0)
(0.77662 0.571644 0)
(0.758368 0.606101 0)
(0.735918 0.655306 0)
(0.728815 0.72287 0)
(0.752706 0.81306 0)
(0.825555 0.923563 0)
(0.965612 1.03128 0)
(3 1.13594e-07 0)
(2.99999 6.96681e-07 0)
(2.99999 2.47807e-06 0)
(2.99996 6.79523e-06 0)
(2.99991 1.836e-05 0)
(2.99978 4.54881e-05 0)
(2.99946 0.000114615 0)
(2.99867 0.000283662 0)
(2.99673 0.000697485 0)
(2.99189 0.00173466 0)
(2.97982 0.00429535 0)
(2.94849 0.0108557 0)
(2.86298 0.0283671 0)
(2.61579 0.0785361 0)
(1.89853 0.227402 0)
(1.01496 0.574915 0)
(0.746985 0.580849 0)
(0.775843 0.583663 0)
(0.802927 0.595835 0)
(0.802796 0.631666 0)
(0.79639 0.680795 0)
(0.805328 0.742725 0)
(0.842301 0.817008 0)
(0.918514 0.899597 0)
(1.04908 0.968366 0)
(3 1.0611e-07 0)
(3 6.57579e-07 0)
(2.99999 2.30085e-06 0)
(2.99997 6.45189e-06 0)
(2.99993 1.71536e-05 0)
(2.99982 4.32601e-05 0)
(2.99955 0.0001083 0)
(2.99892 0.000269395 0)
(2.9973 0.000665393 0)
(2.9934 0.00166194 0)
(2.98352 0.00411731 0)
(2.9584 0.0104448 0)
(2.8906 0.0271563 0)
(2.69724 0.0748651 0)
(2.12609 0.21696 0)
(1.19005 0.595766 0)
(0.786789 0.6125 0)
(0.803523 0.615288 0)
(0.835988 0.619388 0)
(0.849102 0.650915 0)
(0.852769 0.69699 0)
(0.870589 0.751182 0)
(0.913725 0.810637 0)
(0.988249 0.871268 0)
(1.10488 0.91791 0)
(3 8.79384e-08 0)
(3 5.84407e-07 0)
(2.99999 1.9272e-06 0)
(2.99998 5.71522e-06 0)
(2.99994 1.43975e-05 0)
(2.99986 3.77306e-05 0)
(2.99965 9.14956e-05 0)
(2.99913 0.000231964 0)
(2.99789 0.000563399 0)
(2.99477 0.00141361 0)
(2.98714 0.00347367 0)
(2.96771 0.00874234 0)
(2.91674 0.0224586 0)
(2.77494 0.0607253 0)
(2.36275 0.174039 0)
(1.42228 0.511506 0)
(0.884193 0.624666 0)
(0.859095 0.645125 0)
(0.88049 0.650061 0)
(0.900838 0.670803 0)
(0.908604 0.70841 0)
(0.928525 0.753262 0)
(0.972039 0.800008 0)
(1.04201 0.844079 0)
(1.14429 0.875859 0)
(3 7.43349e-08 0)
(3 4.62213e-07 0)
(2.99999 1.61125e-06 0)
(2.99998 4.48646e-06 0)
(2.99995 1.19178e-05 0)
(2.99989 2.96075e-05 0)
(2.99971 7.44705e-05 0)
(2.99931 0.000181902 0)
(2.99828 0.000449648 0)
(2.99583 0.00109963 0)
(2.98963 0.00270946 0)
(2.97422 0.00669004 0)
(2.93388 0.0168817 0)
(2.82264 0.0443194 0)
(2.50138 0.122814 0)
(1.64453 0.366833 0)
(0.975617 0.647637 0)
(0.897539 0.677681 0)
(0.914924 0.688074 0)
(0.941912 0.695207 0)
(0.957531 0.720012 0)
(0.978988 0.753706 0)
(1.0202 0.788481 0)
(1.08415 0.818641 0)
(1.17305 0.838902 0)
(3 6.14702e-08 0)
(3 3.94248e-07 0)
(2.99999 1.36057e-06 0)
(2.99998 3.84071e-06 0)
(2.99996 1.00543e-05 0)
(2.99991 2.55863e-05 0)
(2.99978 6.22723e-05 0)
(2.99944 0.000158337 0)
(2.99865 0.000374567 0)
(2.99665 0.000960452 0)
(2.99179 0.0022691 0)
(2.97951 0.00579378 0)
(2.94795 0.0142658 0)
(2.86175 0.0375136 0)
(2.61431 0.102734 0)
(1.90673 0.300679 0)
(1.1232 0.68501 0)
(0.92354 0.71029 0)
(0.93557 0.719173 0)
(0.96715 0.71648 0)
(0.994456 0.728828 0)
(1.0199 0.752136 0)
(1.05853 0.776241 0)
(1.11651 0.795839 0)
(1.19391 0.805716 0)
(3 5.50765e-08 0)
(3 3.29674e-07 0)
(3 1.1772e-06 0)
(2.99999 3.21744e-06 0)
(2.99997 8.73252e-06 0)
(2.99993 2.12839e-05 0)
(2.99983 5.51499e-05 0)
(2.99957 0.000130942 0)
(2.99895 0.000336928 0)
(2.99741 0.000798478 0)
(2.99366 0.00205044 0)
(2.98422 0.00493741 0)
(2.96025 0.0126663 0)
(2.89606 0.0324791 0)
(2.71415 0.0891861 0)
(2.17963 0.257736 0)
(1.32317 0.682063 0)
(0.973786 0.735101 0)
(0.963818 0.73783 0)
(0.989789 0.732315 0)
(1.02463 0.734241 0)
(1.05399 0.747489 0)
(1.0904 0.762796 0)
(1.14174 0.774468 0)
(1.20749 0.774628 0)
(3 4.21977e-08 0)
(3 2.75079e-07 0)
(3 9.13849e-07 0)
(2.99999 2.68566e-06 0)
(2.99998 6.79966e-06 0)
(2.99995 1.76101e-05 0)
(2.99987 4.32548e-05 0)
(2.99968 0.000107076 0)
(2.99921 0.000266005 0)
(2.99808 0.000643855 0)
(2.99524 0.00162464 0)
(2.98836 0.00392304 0)
(2.9709 0.00996093 0)
(2.92546 0.0252133 0)
(2.80064 0.0678166 0)
(2.43887 0.192978 0)
(1.59202 0.56153 0)
(1.07491 0.735245 0)
(1.01122 0.747171 0)
(1.02301 0.747001 0)
(1.05464 0.741552 0)
(1.085 0.74453 0)
(1.11856 0.750716 0)
(1.16159 0.752153 0)
(1.21522 0.742704 0)
(3 3.27527e-08 0)
(3 2.08881e-07 0)
(3 7.16274e-07 0)
(2.99999 2.04048e-06 0)
(2.99998 5.28527e-06 0)
(2.99996 1.34895e-05 0)
(2.9999 3.28797e-05 0)
(2.99976 8.25379e-05 0)
(2.9994 0.000197866 0)
(2.99854 0.000497731 0)
(2.99639 0.00118509 0)
(2.99116 0.00298298 0)
(2.97799 0.0072095 0)
(2.94409 0.0182866 0)
(2.85183 0.0472623 0)
(2.58765 0.130124 0)
(1.86228 0.386587 0)
(1.18788 0.736125 0)
(1.04161 0.762056 0)
(1.04752 0.763679 0)
(1.0766 0.752271 0)
(1.10905 0.744671 0)
(1.13935 0.739699 0)
(1.1741 0.728332 0)
(1.21758 0.709036 0)
(3 2.68622e-08 0)
(3 1.61818e-07 0)
(3 5.81134e-07 0)
(2.99999 1.57713e-06 0)
(2.99999 4.28893e-06 0)
(2.99997 1.05032e-05 0)
(2.99993 2.66411e-05 0)
(2.99982 6.49211e-05 0)
(2.99955 0.000160294 0)
(2.9989 0.00039542 0)
(2.99731 0.000961196 0)
(2.99338 0.0024039 0)
(2.98363 0.00585924 0)
(2.95869 0.0148235 0)
(2.89203 0.038089 0)
(2.70334 0.10397 0)
(2.15276 0.302452 0)
(1.36599 0.739353 0)
(1.07638 0.789972 0)
(1.0657 0.781141 0)
(1.08974 0.763267 0)
(1.12307 0.742559 0)
(1.15054 0.723663 0)
(1.17871 0.701012 0)
(1.21535 0.673738 0)
(3 2.08489e-08 0)
(3 1.24439e-07 0)
(3 4.45107e-07 0)
(3 1.21056e-06 0)
(2.99999 3.28774e-06 0)
(2.99998 7.97946e-06 0)
(2.99995 2.05913e-05 0)
(2.99987 4.88337e-05 0)
(2.99968 0.000124487 0)
(2.99921 0.000295302 0)
(2.99806 0.000747872 0)
(2.99525 0.00179228 0)
(2.98833 0.00451611 0)
(2.97094 0.0110735 0)
(2.92567 0.0285364 0)
(2.80196 0.0760126 0)
(2.44319 0.217679 0)
(1.63657 0.612955 0)
(1.16397 0.783146 0)
(1.09787 0.783831 0)
(1.10667 0.764852 0)
(1.13171 0.733447 0)
(1.15598 0.701287 0)
(1.18023 0.670399 0)
(1.21222 0.638213 0)
(3 1.4225e-08 0)
(3 9.46642e-08 0)
(3 3.12813e-07 0)
(3 9.20151e-07 0)
(2.99999 2.31945e-06 0)
(2.99998 6.02334e-06 0)
(2.99996 1.44701e-05 0)
(2.9999 3.66064e-05 0)
(2.99976 8.70342e-05 0)
(2.99942 0.000218622 0)
(2.99856 0.000521341 0)
(2.99652 0.00129894 0)
(2.99136 0.00312911 0)
(2.97869 0.0077818 0)
(2.94585 0.0193211 0)
(2.85714 0.0502815 0)
(2.60446 0.137692 0)
(1.91528 0.407727 0)
(1.2676 0.764359 0)
(1.11095 0.783449 0)
(1.10916 0.755662 0)
(1.12907 0.718556 0)
(1.15394 0.677896 0)
(1.17897 0.640264 0)
(1.20971 0.605115 0)
(3 1.08008e-08 0)
(3 6.84065e-08 0)
(3 2.37141e-07 0)
(3 6.65929e-07 0)
(3 1.74798e-06 0)
(2.99999 4.41842e-06 0)
(2.99997 1.08069e-05 0)
(2.99993 2.71991e-05 0)
(2.99983 6.4718e-05 0)
(2.99957 0.00016439 0)
(2.99896 0.000386353 0)
(2.99742 0.000988561 0)
(2.99373 0.00233079 0)
(2.98441 0.005938 0)
(2.9609 0.0144827 0)
(2.89819 0.037708 0)
(2.72209 0.101563 0)
(2.21062 0.296113 0)
(1.44134 0.72516 0)
(1.12461 0.783206 0)
(1.09996 0.742639 0)
(1.12011 0.70057 0)
(1.14585 0.654395 0)
(1.17431 0.610905 0)
(1.20778 0.574833 0)
(3 7.94944e-09 0)
(3 4.94025e-08 0)
(3 1.71442e-07 0)
(3 4.80549e-07 0)
(3 1.26336e-06 0)
(2.99999 3.15467e-06 0)
(2.99998 7.90012e-06 0)
(2.99995 1.91319e-05 0)
(2.99987 4.76996e-05 0)
(2.99969 0.000114392 0)
(2.99925 0.000285444 0)
(2.99814 0.000685434 0)
(2.99549 0.00170746 0)
(2.98881 0.00414726 0)
(2.97228 0.010335 0)
(2.92913 0.026179 0)
(2.81129 0.0695694 0)
(2.47233 0.197837 0)
(1.68693 0.562176 0)
(1.17276 0.749354 0)
(1.08969 0.722057 0)
(1.10764 0.676262 0)
(1.13343 0.627716 0)
(1.16746 0.582166 0)
(1.20763 0.547886 0)
(3 5.57136e-09 0)
(3 3.50286e-08 0)
(3 1.20088e-07 0)
(3 3.39937e-07 0)
(3 8.8543e-07 0)
(2.99999 2.21852e-06 0)
(2.99998 5.52214e-06 0)
(2.99996 1.33852e-05 0)
(2.99991 3.31762e-05 0)
(2.99977 7.94042e-05 0)
(2.99944 0.000197845 0)
(2.9986 0.000470246 0)
(2.99661 0.00117392 0)
(2.99159 0.00281341 0)
(2.97923 0.00699704 0)
(2.94717 0.0173278 0)
(2.86041 0.0449508 0)
(2.61325 0.122779 0)
(1.93345 0.363489 0)
(1.23609 0.716352 0)
(1.05212 0.700968 0)
(1.07222 0.64715 0)
(1.10853 0.596568 0)
(1.15442 0.554239 0)
(1.20538 0.524474 0)
(3 3.87131e-09 0)
(3 2.44468e-08 0)
(3 8.35789e-08 0)
(3 2.37486e-07 0)
(3 6.16316e-07 0)
(3 1.55387e-06 0)
(2.99999 3.84338e-06 0)
(2.99997 9.40695e-06 0)
(2.99993 2.31664e-05 0)
(2.99983 5.61289e-05 0)
(2.99957 0.000138482 0)
(2.99895 0.000334862 0)
(2.99744 0.00082803 0)
(2.99366 0.00201304 0)
(2.98436 0.00499124 0)
(2.96055 0.0124022 0)
(2.89711 0.031991 0)
(2.71892 0.0867065 0)
(2.20297 0.253451 0)
(1.36771 0.643504 0)
(1.01632 0.666296 0)
(1.02665 0.613632 0)
(1.07737 0.564851 0)
(1.13907 0.527579 0)
(1.20167 0.503404 0)
(3 2.55946e-09 0)
(3 1.64417e-08 0)
(3 5.56286e-08 0)
(3 1.59745e-07 0)
(3 4.11288e-07 0)
(3 1.04334e-06 0)
(2.99999 2.56098e-06 0)
(2.99998 6.30352e-06 0)
(2.99995 1.53689e-05 0)
(2.99986 3.73907e-05 0)
(2.99967 9.17303e-05 0)
(2.99918 0.000221435 0)
(2.99801 0.000546174 0)
(2.99506 0.00131899 0)
(2.98789 0.00327053 0)
(2.9696 0.00802797 0)
(2.92183 0.0204557 0)
(2.78977 0.0542824 0)
(2.41006 0.154527 0)
(1.53271 0.451545 0)
(0.997797 0.586452 0)
(0.972436 0.563672 0)
(1.03642 0.5309 0)
(1.11528 0.5018 0)
(1.19134 0.484283 0)
(3 1.77138e-09 0)
(3 1.12988e-08 0)
(3 3.7822e-08 0)
(3 1.09766e-07 0)
(3 2.77655e-07 0)
(3 7.13059e-07 0)
(2.99999 1.73049e-06 0)
(2.99998 4.26113e-06 0)
(2.99995 1.04732e-05 0)
(2.99989 2.48734e-05 0)
(2.99973 6.28357e-05 0)
(2.99933 0.000144676 0)
(2.99835 0.000373951 0)
(2.99593 0.000849809 0)
(2.98995 0.00219812 0)
(2.97483 0.00513214 0)
(2.93534 0.0131707 0)
(2.82622 0.0336273 0)
(2.51035 0.0923588 0)
(1.6704 0.272923 0)
(0.977558 0.520605 0)
(0.892361 0.509725 0)
(0.972156 0.489882 0)
(1.07109 0.473781 0)
(1.16428 0.464929 0)
(3 1.17655e-09 0)
(3 8.44555e-09 0)
(3 2.62374e-08 0)
(3 8.19163e-08 0)
(3 1.94156e-07 0)
(3 5.33655e-07 0)
(2.99999 1.20897e-06 0)
(2.99998 3.2272e-06 0)
(2.99996 7.3002e-06 0)
(2.99991 1.91364e-05 0)
(2.99977 4.39648e-05 0)
(2.99944 0.000112622 0)
(2.9986 0.000265527 0)
(2.99658 0.000663692 0)
(2.99145 0.00160258 0)
(2.97872 0.00397633 0)
(2.94543 0.00990194 0)
(2.85396 0.0257719 0)
(2.58918 0.0706355 0)
(1.83734 0.204976 0)
(0.998805 0.487576 0)
(0.791965 0.453758 0)
(0.892432 0.434953 0)
(1.01401 0.438349 0)
(1.12153 0.44013 0)
(3 9.67823e-10 0)
(3 5.78411e-09 0)
(3 2.11239e-08 0)
(3 5.60473e-08 0)
(3 1.55703e-07 0)
(3 3.74671e-07 0)
(2.99999 9.61284e-07 0)
(2.99999 2.33937e-06 0)
(2.99997 5.72797e-06 0)
(2.99992 1.44071e-05 0)
(2.99981 3.38634e-05 0)
(2.99951 8.85151e-05 0)
(2.99881 0.000201271 0)
(2.99704 0.000538953 0)
(2.99271 0.00122317 0)
(2.98173 0.00323729 0)
(2.95347 0.00780106 0)
(2.87629 0.0207597 0)
(2.65359 0.0567164 0)
(2.001 0.16499 0)
(1.04737 0.443772 0)
(0.697927 0.395857 0)
(0.824376 0.378684 0)
(0.966323 0.398697 0)
(1.07627 0.408354 0)
(3 7.14126e-10 0)
(3 4.05762e-09 0)
(3 1.52647e-08 0)
(3 3.95993e-08 0)
(3 1.12956e-07 0)
(3 2.65743e-07 0)
(3 7.13238e-07 0)
(2.99999 1.65766e-06 0)
(2.99997 4.33946e-06 0)
(2.99993 1.02685e-05 0)
(2.99983 2.60443e-05 0)
(2.99958 6.36926e-05 0)
(2.99897 0.000157043 0)
(2.99743 0.000392983 0)
(2.9937 0.000959057 0)
(2.9842 0.00242596 0)
(2.96 0.00606395 0)
(2.89462 0.0159224 0)
(2.70726 0.0438433 0)
(2.15376 0.128421 0)
(1.12249 0.376487 0)
(0.643211 0.351231 0)
(0.787511 0.346071 0)
(0.938986 0.365202 0)
(1.03955 0.373641 0)
(3 4.55087e-10 0)
(3 3.0938e-09 0)
(3 9.76662e-09 0)
(3 3.03686e-08 0)
(3 7.33702e-08 0)
(3 1.98082e-07 0)
(3 4.74347e-07 0)
(2.99999 1.19454e-06 0)
(2.99998 2.98319e-06 0)
(2.99994 7.07949e-06 0)
(2.99985 1.86828e-05 0)
(2.99962 4.20949e-05 0)
(2.99909 0.00011593 0)
(2.99771 0.000254221 0)
(2.9944 0.000712005 0)
(2.98599 0.00160356 0)
(2.96471 0.00432298 0)
(2.90781 0.0107915 0)
(2.74665 0.0298138 0)
(2.2732 0.0860894 0)
(1.20477 0.263803 0)
(0.618261 0.30305 0)
(0.758701 0.326461 0)
(0.907452 0.33591 0)
(1.00009 0.338554 0)
(3 3.51113e-10 0)
(3 2.34496e-09 0)
(3 7.67244e-09 0)
(3 2.29216e-08 0)
(3 5.66361e-08 0)
(3 1.50568e-07 0)
(3 3.52981e-07 0)
(2.99999 9.18595e-07 0)
(2.99998 2.16249e-06 0)
(2.99994 5.46805e-06 0)
(2.99986 1.32743e-05 0)
(2.99966 3.25237e-05 0)
(2.99915 8.11307e-05 0)
(2.99793 0.000194718 0)
(2.99483 0.000492393 0)
(2.98721 0.00118381 0)
(2.96767 0.00298109 0)
(2.91581 0.00755004 0)
(2.76944 0.0200851 0)
(2.33709 0.0564499 0)
(1.27208 0.168851 0)
(0.607256 0.274113 0)
(0.727256 0.31878 0)
(0.862468 0.309023 0)
(0.954058 0.30427 0)
(3 3.07376e-10 0)
(3 1.88458e-09 0)
(3 6.5997e-09 0)
(3 1.8361e-08 0)
(3 4.87628e-08 0)
(3 1.20215e-07 0)
(3 3.04773e-07 0)
(2.99999 7.32554e-07 0)
(2.99998 1.83191e-06 0)
(2.99995 4.40883e-06 0)
(2.99987 1.09991e-05 0)
(2.99968 2.63148e-05 0)
(2.99922 6.62577e-05 0)
(2.99805 0.000158545 0)
(2.99523 0.000396913 0)
(2.98806 0.000965203 0)
(2.97002 0.00241044 0)
(2.922 0.00610157 0)
(2.78691 0.0161824 0)
(2.38883 0.0453839 0)
(1.35645 0.134675 0)
(0.640606 0.267203 0)
(0.700106 0.300756 0)
(0.810983 0.281687 0)
(0.910822 0.272677 0)
(3 2.50718e-10 0)
(3 1.70746e-09 0)
(3 5.37907e-09 0)
(3 1.6606e-08 0)
(3 4.04385e-08 0)
(3 1.06309e-07 0)
(3 2.63712e-07 0)
(2.99999 6.33493e-07 0)
(2.99998 1.63856e-06 0)
(2.99995 3.71018e-06 0)
(2.99988 1.00768e-05 0)
(2.99971 2.17686e-05 0)
(2.99926 6.11084e-05 0)
(2.9982 0.000129497 0)
(2.9955 0.000367973 0)
(2.98889 0.000798075 0)
(2.97194 0.00218299 0)
(2.92727 0.00524602 0)
(2.80191 0.0142576 0)
(2.43315 0.0396016 0)
(1.44582 0.115943 0)
(0.687975 0.256816 0)
(0.679453 0.265861 0)
(0.778596 0.255071 0)
(0.880479 0.246259 0)
(3 2.35785e-10 0)
(3 1.48584e-09 0)
(3 5.13886e-09 0)
(3 1.44923e-08 0)
(3 3.80087e-08 0)
(3 9.61769e-08 0)
(3 2.36964e-07 0)
(2.99999 5.91139e-07 0)
(2.99998 1.4288e-06 0)
(2.99995 3.56681e-06 0)
(2.99989 8.52823e-06 0)
(2.99972 2.15713e-05 0)
(2.99931 5.08213e-05 0)
(2.99831 0.000129264 0)
(2.99578 0.000307777 0)
(2.98957 0.000771637 0)
(2.97372 0.00189589 0)
(2.93204 0.00482416 0)
(2.81541 0.0127477 0)
(2.47235 0.0355768 0)
(1.53095 0.103181 0)
(0.736429 0.245439 0)
(0.662426 0.239249 0)
(0.756525 0.229678 0)
(0.859118 0.222841 0)
(3 2.18481e-10 0)
(3 1.36769e-09 0)
(3 4.79936e-09 0)
(3 1.3306e-08 0)
(3 3.55668e-08 0)
(3 8.89712e-08 0)
(3 2.19914e-07 0)
(2.99999 5.50118e-07 0)
(2.99998 1.31709e-06 0)
(2.99996 3.34072e-06 0)
(2.99989 7.80799e-06 0)
(2.99974 2.01837e-05 0)
(2.99935 4.65209e-05 0)
(2.99841 0.000121104 0)
(2.99603 0.000279772 0)
(2.99021 0.000724754 0)
(2.97531 0.00172634 0)
(2.9363 0.0044499 0)
(2.82743 0.0115718 0)
(2.50762 0.0323398 0)
(1.61305 0.0939214 0)
(0.78232 0.234288 0)
(0.643036 0.217205 0)
(0.739941 0.204137 0)
(0.846386 0.20148 0)
(3 2.0536e-10 0)
(3 1.26089e-09 0)
(3 4.4539e-09 0)
(3 1.23159e-08 0)
(3 3.30503e-08 0)
(3 8.14993e-08 0)
(3 2.08106e-07 0)
(2.99999 5.01347e-07 0)
(2.99998 1.26105e-06 0)
(2.99996 3.0363e-06 0)
(2.9999 7.57244e-06 0)
(2.99976 1.82074e-05 0)
(2.9994 4.54858e-05 0)
(2.9985 0.000109494 0)
(2.99629 0.000271641 0)
(2.99078 0.000662347 0)
(2.97682 0.00164233 0)
(2.94023 0.00412388 0)
(2.83853 0.0107977 0)
(2.54001 0.0299829 0)
(1.69184 0.0867475 0)
(0.824605 0.223388 0)
(0.619809 0.197678 0)
(0.725809 0.1812 0)
(0.839593 0.181876 0)
(3 2.12219e-10 0)
(3 1.09147e-09 0)
(3 4.47774e-09 0)
(3 1.06658e-08 0)
(3 3.27787e-08 0)
(3 7.21955e-08 0)
(3 2.02447e-07 0)
(2.99999 4.52957e-07 0)
(2.99998 1.19698e-06 0)
(2.99996 2.84251e-06 0)
(2.99991 6.98882e-06 0)
(2.99977 1.76654e-05 0)
(2.99943 4.08894e-05 0)
(2.9986 0.000108829 0)
(2.99649 0.000240859 0)
(2.99135 0.000656403 0)
(2.97819 0.00148346 0)
(2.94392 0.00395098 0)
(2.84885 0.0100063 0)
(2.57004 0.0280282 0)
(1.76694 0.0805305 0)
(0.862414 0.21228 0)
(0.592751 0.178975 0)
(0.713111 0.161221 0)
(0.836691 0.162731 0)
(3 1.64402e-10 0)
(3 1.13545e-09 0)
(3 3.7922e-09 0)
(3 1.09615e-08 0)
(3 2.8382e-08 0)
(3 7.32025e-08 0)
(3 1.7447e-07 0)
(2.99999 4.61926e-07 0)
(2.99999 1.02711e-06 0)
(2.99996 2.85337e-06 0)
(2.99991 6.07484e-06 0)
(2.99978 1.74493e-05 0)
(2.99947 3.58872e-05 0)
(2.99867 0.00010601 0)
(2.99674 0.000216199 0)
(2.99181 0.00062522 0)
(2.97956 0.00136872 0)
(2.94733 0.00370269 0)
(2.85842 0.00929811 0)
(2.5981 0.0260115 0)
(1.83818 0.0746317 0)
(0.895754 0.200367 0)
(0.563347 0.161001 0)
(0.700977 0.143434 0)
(0.834835 0.143794 0)
(3 1.43033e-10 0)
(3 1.04507e-09 0)
(3 3.09202e-09 0)
(3 1.01842e-08 0)
(3 2.34533e-08 0)
(3 6.55292e-08 0)
(3 1.53498e-07 0)
(2.99999 3.92151e-07 0)
(2.99999 9.82992e-07 0)
(2.99997 2.27821e-06 0)
(2.99992 6.23844e-06 0)
(2.9998 1.32942e-05 0)
(2.9995 3.89904e-05 0)
(2.99875 7.82983e-05 0)
(2.99693 0.000239604 0)
(2.99231 0.000481975 0)
(2.98076 0.00140948 0)
(2.95051 0.0031988 0)
(2.86735 0.00876888 0)
(2.62374 0.0237303 0)
(1.90567 0.068657 0)
(0.924732 0.18726 0)
(0.533069 0.143543 0)
(0.690326 0.126097 0)
(0.834661 0.125374 0)
(3 1.65765e-10 0)
(3 6.79674e-10 0)
(3 3.23336e-09 0)
(3 6.67827e-09 0)
(3 2.36194e-08 0)
(3 4.52527e-08 0)
(3 1.50854e-07 0)
(2.99999 2.84089e-07 0)
(2.99999 9.32299e-07 0)
(2.99997 1.79012e-06 0)
(2.99992 5.66439e-06 0)
(2.99981 1.1342e-05 0)
(2.99953 3.40126e-05 0)
(2.99884 7.24103e-05 0)
(2.99708 0.000201977 0)
(2.99279 0.000460882 0)
(2.98182 0.00121023 0)
(2.95345 0.00296007 0)
(2.87548 0.00783238 0)
(2.6473 0.0215462 0)
(1.96885 0.062149 0)
(0.950616 0.172368 0)
(0.503617 0.126067 0)
(0.681428 0.108733 0)
(0.835435 0.106834 0)
(3 1.06249e-10 0)
(3 6.01537e-10 0)
(3 2.24243e-09 0)
(3 6.05648e-09 0)
(3 1.68522e-08 0)
(3 4.20762e-08 0)
(3 1.09367e-07 0)
(3 2.66193e-07 0)
(2.99999 6.89756e-07 0)
(2.99997 1.66964e-06 0)
(2.99993 4.2945e-06 0)
(2.99982 1.03534e-05 0)
(2.99955 2.68458e-05 0)
(2.99889 6.45907e-05 0)
(2.99725 0.000165913 0)
(2.99315 0.000407108 0)
(2.98283 0.00103305 0)
(2.95605 0.00259818 0)
(2.8827 0.00683474 0)
(2.66881 0.0189286 0)
(2.02686 0.0549979 0)
(0.973345 0.155372 0)
(0.475176 0.108394 0)
(0.673219 0.0912836 0)
(0.835207 0.0882835 0)
(3 4.35575e-11 0)
(3 5.69866e-10 0)
(3 1.28295e-09 0)
(3 5.63411e-09 0)
(3 1.01147e-08 0)
(3 3.86214e-08 0)
(3 6.60082e-08 0)
(3 2.4957e-07 0)
(2.99999 4.28008e-07 0)
(2.99997 1.55662e-06 0)
(2.99993 2.79326e-06 0)
(2.99983 9.60565e-06 0)
(2.99957 1.84391e-05 0)
(2.99895 5.80789e-05 0)
(2.99736 0.00012331 0)
(2.99351 0.000351695 0)
(2.98365 0.000818061 0)
(2.95828 0.00220197 0)
(2.88908 0.00565741 0)
(2.68733 0.0159605 0)
(2.08015 0.0469587 0)
(0.993 0.136287 0)
(0.450303 0.0906603 0)
(0.666309 0.0742469 0)
(0.833913 0.0705984 0)
(3 4.51412e-11 0)
(3 3.23088e-10 0)
(3 1.13553e-09 0)
(3 3.13301e-09 0)
(3 8.56461e-09 0)
(3 2.23075e-08 0)
(3 5.21621e-08 0)
(3 1.55778e-07 0)
(2.99999 3.0782e-07 0)
(2.99997 1.05558e-06 0)
(2.99993 1.88634e-06 0)
(2.99983 7.06196e-06 0)
(2.99959 1.18341e-05 0)
(2.99898 4.63673e-05 0)
(2.99749 7.8608e-05 0)
(2.99373 0.000289727 0)
(2.98438 0.00057027 0)
(2.96007 0.00176166 0)
(2.89428 0.00433755 0)
(2.70323 0.0126435 0)
(2.12721 0.0378616 0)
(1.01152 0.113307 0)
(0.431928 0.0722008 0)
(0.661259 0.0579686 0)
(0.832176 0.0542436 0)
(3 3.50542e-11 0)
(3 1.77173e-10 0)
(3 5.96822e-10 0)
(3 1.80012e-09 0)
(3 4.62735e-09 0)
(3 1.08358e-08 0)
(3 3.46118e-08 0)
(3 5.78532e-08 0)
(2.99999 2.4808e-07 0)
(2.99997 3.34862e-07 0)
(2.99994 1.73727e-06 0)
(2.99984 2.11247e-06 0)
(2.9996 1.18584e-05 0)
(2.99901 1.52513e-05 0)
(2.99757 7.83856e-05 0)
(2.99392 0.000119472 0)
(2.98488 0.000486024 0)
(2.96144 0.00100696 0)
(2.89824 0.00316573 0)
(2.7157 0.00869105 0)
(2.16645 0.027497 0)
(1.02865 0.0840877 0)
(0.419397 0.052443 0)
(0.657134 0.0423289 0)
(0.82998 0.038903 0)
(3 2.17709e-11 0)
(3 9.33721e-11 0)
(3 3.13306e-10 0)
(3 9.26641e-10 0)
(3 2.47819e-09 0)
(3 4.66379e-09 0)
(3 2.13942e-08 0)
(3 1.96786e-08 0)
(2.99999 1.61788e-07 0)
(2.99997 9.02036e-08 0)
(2.99994 1.15706e-06 0)
(2.99984 4.49947e-07 0)
(2.9996 7.80683e-06 0)
(2.99904 4.06947e-06 0)
(2.99758 4.88924e-05 0)
(2.99407 4.35066e-05 0)
(2.98512 0.000282771 0)
(2.96232 0.000485758 0)
(2.90079 0.00175848 0)
(2.72415 0.0047675 0)
(2.19467 0.0157698 0)
(1.04158 0.0492336 0)
(0.411025 0.0318703 0)
(0.65358 0.0264381 0)
(0.827718 0.0235716 0)
(3 6.2043e-12 0)
(3 4.16987e-11 0)
(3 1.40726e-10 0)
(3 3.67099e-10 0)
(3 1.09553e-09 0)
(3 2.20867e-09 0)
(3 8.28183e-09 0)
(3 1.56076e-08 0)
(2.99999 5.26553e-08 0)
(2.99997 1.02815e-07 0)
(2.99994 3.27828e-07 0)
(2.99984 6.21671e-07 0)
(2.99961 1.9607e-06 0)
(2.99904 4.08673e-06 0)
(2.9976 1.06036e-05 0)
(2.99412 2.66871e-05 0)
(2.98525 6.53597e-05 0)
(2.96268 0.000178589 0)
(2.90187 0.000491632 0)
(2.72794 0.00146358 0)
(2.20786 0.00481321 0)
(1.0479 0.0154383 0)
(0.407149 0.0110231 0)
(0.651267 0.00951513 0)
(0.826004 0.00833573 0)
(1.11433 0.991834 0)
(0.994779 0.698426 0)
(0.108956 0.428629 0)
(-0.403697 0.0213949 0)
(-0.515717 -0.0133859 0)
(-0.657532 -0.0249715 0)
(-0.702193 -0.0208518 0)
(-0.721693 -0.00164921 0)
(-0.74363 0.0130964 0)
(-0.773739 0.0169143 0)
(-0.796082 0.0156274 0)
(-0.802642 0.0104277 0)
(-0.799455 0.00401024 0)
(-0.792571 -0.00165563 0)
(-0.783246 -0.00348516 0)
(-0.768459 -0.00400546 0)
(-0.746716 -0.00469939 0)
(-0.718674 -0.00575837 0)
(-0.685435 -0.00676141 0)
(-0.648109 -0.00768237 0)
(-0.607579 -0.00856169 0)
(-0.564613 -0.00941699 0)
(-0.519817 -0.0103068 0)
(-0.473687 -0.0113485 0)
(-0.424966 -0.0134772 0)
(-0.37556 -0.014699 0)
(-0.32602 -0.0159852 0)
(-0.276765 -0.0172127 0)
(-0.228022 -0.0185773 0)
(-0.179632 -0.0197871 0)
(-0.131552 -0.0208292 0)
(-0.0839673 -0.0218178 0)
(-0.0376333 -0.0234028 0)
(0.0117898 -0.0253415 0)
(0.0612957 -0.0239119 0)
(0.105926 -0.0223627 0)
(0.150102 -0.0215601 0)
(0.192633 -0.0210347 0)
(0.233619 -0.0202558 0)
(0.27339 -0.0195759 0)
(0.310567 -0.0187692 0)
(0.347021 -0.0184215 0)
(0.385204 -0.018681 0)
(0.423481 -0.0184368 0)
(0.460151 -0.0177505 0)
(0.495511 -0.0170755 0)
(0.529909 -0.0164538 0)
(0.563532 -0.0159337 0)
(0.59634 -0.0154243 0)
(0.628428 -0.0149192 0)
(0.659816 -0.0144263 0)
(0.690517 -0.0139393 0)
(0.720568 -0.0134548 0)
(0.74998 -0.0129831 0)
(0.778766 -0.0125069 0)
(0.806954 -0.0120458 0)
(0.834542 -0.0115834 0)
(0.861555 -0.0111355 0)
(0.888002 -0.0106898 0)
(0.913906 -0.0102566 0)
(0.939269 -0.00982981 0)
(0.964111 -0.00940964 0)
(0.988441 -0.00899781 0)
(1.01227 -0.00859005 0)
(1.03561 -0.00818926 0)
(1.05846 -0.00779248 0)
(1.08083 -0.00740125 0)
(1.10273 -0.00701529 0)
(1.12417 -0.00663576 0)
(1.14514 -0.00626355 0)
(1.16566 -0.00590015 0)
(1.18572 -0.00554622 0)
(1.20534 -0.00520379 0)
(1.22452 -0.00487318 0)
(1.24327 -0.00455532 0)
(1.26159 -0.00425006 0)
(1.27949 -0.00395841 0)
(1.29696 -0.0036793 0)
(1.314 -0.00341346 0)
(1.3306 -0.00316153 0)
(1.34674 -0.00292362 0)
(1.36241 -0.00270031 0)
(1.37756 -0.00249134 0)
(1.39217 -0.00230455 0)
(1.40619 -0.00213802 0)