/*--------------------------------*- C++ -*----------------------------------*\
  =========                 |
  \\      /  F ield         | OpenFOAM: The Open Source CFD Toolbox
   \\    /   O peration     | Website:  https://openfoam.org
    \\  /    A nd           | Version:  13
     \\/     M anipulation  |
\*---------------------------------------------------------------------------*/
FoamFile
{
    format      ascii;
    class       volScalarField;
    location    "7.5";
    object      Ma;
}
// * * * * * * * * * * * * * * * * * * * * * * * * * * * * * * * * * * * * * //

dimensions      [];

internalField   nonuniform List<scalar> 
5250
(
2.99999
2.99996
2.99989
2.9997
2.99929
2.9981
2.99563
2.98839
2.97313
2.93031
2.83105
2.57649
2.01787
1.06273
0.44216
0.314088
0.335952
0.335869
0.303423
0.250707
0.201082
0.160172
0.119392
0.0744442
0.0411931
3
2.99996
2.99989
2.9997
2.9993
2.99811
2.99572
2.98845
2.97357
2.93108
2.83317
2.58148
2.02782
1.07611
0.450224
0.314801
0.337405
0.338048
0.305946
0.254084
0.205711
0.166221
0.127665
0.0879321
0.0641962
2.99999
2.99996
2.9999
2.99971
2.9993
2.99823
2.99562
2.9893
2.97312
2.93458
2.83565
2.59352
2.04894
1.10627
0.468726
0.317606
0.342086
0.344695
0.313752
0.264163
0.218712
0.182674
0.149076
0.117741
0.102109
3
2.99997
2.99989
2.99975
2.99928
2.99839
2.99562
2.98999
2.97389
2.93763
2.84193
2.60985
2.08273
1.15414
0.497241
0.321951
0.349735
0.355651
0.326612
0.280208
0.238653
0.206948
0.178946
0.154639
0.14354
3
2.99997
2.9999
2.99975
2.99934
2.99846
2.99588
2.99065
2.97507
2.94176
2.85026
2.63232
2.12826
1.22165
0.535637
0.328159
0.360543
0.370815
0.344004
0.301458
0.264079
0.236964
0.214184
0.195468
0.187405
3
2.99997
2.99991
2.99976
2.99942
2.99847
2.99648
2.99062
2.97843
2.94366
2.86444
2.65739
2.18767
1.31166
0.584562
0.337982
0.375599
0.390747
0.366268
0.327732
0.294705
0.272215
0.254667
0.241171
0.236373
3
2.99997
2.99993
2.99977
2.99949
2.99859
2.99682
2.99155
2.98024
2.9494
2.87685
2.69045
2.25847
1.42716
0.644937
0.355336
0.39712
0.416641
0.394154
0.359761
0.330831
0.313053
0.301028
0.293591
0.293827
3
2.99998
2.99993
2.9998
2.99955
2.99876
2.99716
2.99255
2.98237
2.95535
2.89088
2.72666
2.33968
1.56864
0.718405
0.386308
0.428606
0.449913
0.428931
0.398424
0.373272
0.360194
0.354435
0.355084
0.365574
3
2.99998
2.99994
2.99983
2.99958
2.99895
2.99741
2.99368
2.98414
2.96175
2.90405
2.76355
2.42323
1.72621
0.800923
0.429152
0.4697
0.488312
0.470375
0.443584
0.422486
0.414314
0.416101
0.430078
0.462652
3
2.99998
2.99995
2.99985
2.99965
2.99904
2.9978
2.99423
2.98639
2.96551
2.91608
2.78992
2.486
1.83966
0.880788
0.470221
0.500039
0.516947
0.509583
0.489958
0.4757
0.473734
0.488213
0.528654
0.628221
3
2.99999
2.99996
2.99987
2.99969
2.99916
2.99808
2.99482
2.98828
2.969
2.92692
2.81375
2.54449
1.95207
1.00096
0.538426
0.521003
0.536939
0.541671
0.532797
0.52799
0.536399
0.569756
0.647582
0.805692
3
2.99999
2.99996
2.9999
2.99971
2.99931
2.99824
2.9957
2.98944
2.97359
2.93566
2.83871
2.60157
2.06834
1.15085
0.620304
0.536422
0.554209
0.568239
0.570789
0.576506
0.597354
0.646648
0.742562
0.900089
3
2.99999
2.99997
2.99991
2.99977
2.99938
2.99858
2.99616
2.99134
2.97695
2.94613
2.86197
2.66124
2.19247
1.33321
0.7176
0.555984
0.573461
0.593662
0.605989
0.621351
0.652497
0.709218
0.802209
0.932376
3
3
2.99997
2.99993
2.9998
2.99953
2.99872
2.99711
2.99218
2.98232
2.95352
2.88919
2.71953
2.32743
1.55359
0.834253
0.592755
0.604828
0.624469
0.642415
0.66323
0.69889
0.755982
0.8392
0.947593
3.00001
3
2.99998
2.99995
2.99983
2.99963
2.99896
2.99772
2.99375
2.98594
2.9632
2.91269
2.78001
2.46922
1.81914
0.969456
0.653419
0.651325
0.66541
0.684167
0.70508
0.739629
0.792922
0.866551
0.959625
3.00001
3
2.99999
2.99995
2.99988
2.99967
2.99925
2.99793
2.99544
2.98764
2.97187
2.92713
2.82406
2.56331
2.00111
1.10796
0.716909
0.689845
0.704417
0.722866
0.744291
0.776665
0.824729
0.889785
0.970916
3.00001
3
2.99999
2.99997
2.9999
2.99976
2.99935
2.99846
2.99614
2.99051
2.97683
2.9424
2.85827
2.64783
2.17195
1.32254
0.820805
0.720504
0.732812
0.7519
0.777369
0.809371
0.853137
0.910514
0.981345
3.00001
3
3
2.99997
2.99993
2.9998
2.99952
2.99877
2.997
2.99267
2.9817
2.95574
2.88934
2.7271
2.34232
1.59004
0.951718
0.760858
0.761219
0.778862
0.806407
0.83831
0.878929
0.930027
0.991833
3.00001
3
3
2.99998
2.99994
2.99986
2.99961
2.99913
2.99768
2.99463
2.98626
2.96729
2.91827
2.80028
2.51425
1.91149
1.11475
0.825314
0.801211
0.81345
0.837807
0.867904
0.904365
0.949612
1.00355
3.00001
3.00001
3
2.99999
2.99996
2.99989
2.99972
2.99933
2.99823
2.99602
2.9893
2.97579
2.93703
2.84942
2.62485
2.13166
1.30235
0.900159
0.835187
0.845521
0.867207
0.896409
0.929501
0.969476
1.01679
3.00001
3.00001
3
2.99999
2.99998
2.99992
2.99981
2.99947
2.99878
2.99683
2.99247
2.98119
2.95413
2.88661
2.71968
2.33017
1.5796
1.02786
0.877208
0.876134
0.892943
0.921238
0.953474
0.989494
1.03118
3.00001
3.00001
3
3
2.99998
2.99995
2.99985
2.99964
2.99908
2.99779
2.9946
2.98664
2.96784
2.92026
2.80555
2.5289
1.94379
1.2006
0.942105
0.914322
0.924494
0.948179
0.978568
1.01064
1.04699
3.00001
3.00001
3.00001
3
2.99999
2.99996
2.9999
2.99974
2.99933
2.99845
2.99593
2.99081
2.97572
2.94395
2.85715
2.6551
2.19237
1.40927
1.02057
0.948775
0.955208
0.975006
1.00273
1.03208
1.06408
3.00001
3.00001
3.00001
3
3
2.99997
2.99993
2.99981
2.99957
2.9988
2.99738
2.99287
2.98396
2.95832
2.90108
2.75225
2.40927
1.72277
1.15768
0.996912
0.987253
0.999917
1.02397
1.05239
1.08177
3.00001
3.00001
3.00001
3
3
2.99998
2.99996
2.99987
2.99969
2.99921
2.9981
2.99537
2.98858
2.97258
2.932
2.83503
2.59846
2.0827
1.3544
1.072
1.02481
1.02993
1.04763
1.07293
1.1003
3.00001
3.00001
3.00001
3.00001
3
2.99999
2.99997
2.99992
2.99979
2.99948
2.99867
2.99691
2.99198
2.98162
2.95264
2.88798
2.72054
2.34239
1.63343
1.1864
1.06751
1.0599
1.06948
1.09136
1.11861
3.00001
3.00001
3.00001
3.00001
3
3
2.99998
2.99995
2.99986
2.99965
2.99913
2.99795
2.99475
2.98799
2.96898
2.9279
2.81921
2.57056
2.02836
1.36428
1.12989
1.0939
1.0969
1.11311
1.13644
3.00001
3.00001
3.00001
3.00001
3.00001
3
2.99999
2.99997
2.99992
2.99976
2.99946
2.99854
2.99672
2.9915
2.98013
2.95035
2.88012
2.70602
2.30991
1.6078
1.22071
1.13003
1.12404
1.13299
1.15261
3.00001
3.00001
3.00001
3.00001
3.00001
3
3
2.99998
2.99994
2.99985
2.99963
2.99911
2.99774
2.99481
2.98657
2.96922
2.92161
2.81373
2.54856
1.99331
1.38679
1.18424
1.15436
1.15673
1.17178
3.00001
3.00001
3.00001
3.00001
3.00001
3.00001
3
2.99999
2.99997
2.99991
2.99975
2.99944
2.9985
2.99672
2.99115
2.98025
2.94892
2.87966
2.70269
2.3067
1.62766
1.27352
1.19033
1.18238
1.18984
3.00001
3.00001
3.00001
3.00001
3.00001
3.00001
3
3
2.99998
2.99994
2.99986
2.99963
2.99911
2.99781
2.99467
2.98727
2.96831
2.92488
2.8144
2.559
2.01407
1.43854
1.24338
1.21125
1.21104
3.00001
3.00001
3.00001
3.00001
3.00001
3.00001
3.00001
3
2.99999
2.99997
2.99991
2.99976
2.99947
2.99855
2.99684
2.99148
2.98102
2.95103
2.8849
2.71627
2.33776
1.6866
1.33669
1.24688
1.23376
3.00001
3.00001
3.00001
3.00001
3.00001
3.00001
3.00001
3
3
2.99998
2.99995
2.99986
2.99965
2.99918
2.99789
2.99524
2.9876
2.97198
2.92868
2.83229
2.59469
2.09226
1.51045
1.30068
1.2603
3.00001
3.00001
3.00001
3.00001
3.00001
3.00001
3.00001
3.00001
3
2.99999
2.99997
2.99991
2.9998
2.99946
2.99879
2.99683
2.99273
2.98175
2.95663
2.89377
2.74356
2.39608
1.77229
1.39261
1.28718
3.00001
3.00001
3.00001
3.00001
3.00001
3.00001
3.00001
3.00001
3
3
2.99998
2.99996
2.99987
2.9997
2.9992
2.99821
2.99539
2.98939
2.97349
2.9373
2.8466
2.63533
2.16999
1.57728
1.33848
3.00001
3.00001
3.00001
3.00001
3.00001
3.00001
3.00001
3.00001
3.00001
3
2.99999
2.99997
2.99993
2.99981
2.99952
2.99888
2.99715
2.99353
2.98324
2.96187
2.90352
2.77227
2.45726
1.86879
1.42377
3.00001
3.00001
3.00001
3.00001
3.00001
3.00001
3.00001
3.00001
3.00001
3
3
2.99999
2.99996
2.99988
2.99972
2.99925
2.99833
2.99563
2.99006
2.97484
2.94084
2.85436
2.65316
2.20767
1.57322
3.00001
3.00001
3.00001
3.00001
3.00001
3.00001
3.00001
3.00001
3.00001
3.00001
3
2.99999
2.99997
2.99992
2.99981
2.9995
2.99884
2.99698
2.9932
2.98213
2.95932
2.89648
2.75375
2.41526
1.78021
3.00001
3.00001
3.00001
3.00001
3.00001
3.00001
3.00001
3.00001
3.00001
3.00001
3
3
2.99998
2.99995
2.99984
2.99964
2.99898
2.99776
2.99391
2.98615
2.964
2.91403
2.78372
2.47774
1.83534
3.00001
3.00001
3.00001
3.00001
3.00001
3.00001
3.00001
3.00001
3.00001
3.00001
3
3
2.99999
2.99995
2.99987
2.99966
2.99913
2.9979
2.99457
2.98717
2.96669
2.91987
2.79588
2.50023
1.84713
3.00001
3.00001
3.00001
3.00001
3.00001
3.00001
3.00001
3.00001
3.00001
3.00001
3
3
2.99999
2.99995
2.99988
2.99968
2.99919
2.99798
2.99488
2.98759
2.9682
2.92231
2.80222
2.51136
1.85958
3.00001
3.00001
3.00001
3.00001
3.00001
3.00001
3.00001
3.00001
3.00001
3.00001
3.00001
3
2.99999
2.99995
2.99988
2.99968
2.99922
2.99802
2.99507
2.98781
2.96911
2.92367
2.80613
2.51822
1.87174
3.00001
3.00001
3.00001
3.00001
3.00001
3.00001
3.00001
3.00001
3.00001
3.00001
3
3
2.99999
2.99996
2.99988
2.99972
2.99918
2.99819
2.9949
2.98845
2.96898
2.92567
2.80808
2.52415
1.88339
3.00001
3.00001
3.00001
3.00001
3.00001
3.00001
3.00001
3.00001
3.00001
3.00001
3
3
2.99999
2.99996
2.99989
2.9997
2.99926
2.99804
2.99539
2.98771
2.97098
2.92431
2.81258
2.52726
1.89219
3.00001
3.00001
3.00001
3.00001
3.00001
3.00001
3.00001
3.00001
3.00001
3.00001
3.00001
3
2.99999
2.99996
2.99989
2.99969
2.99928
2.99809
2.99535
2.98818
2.9706
2.92603
2.81302
2.5312
1.89686
3.00001
3.00001
3.00001
3.00001
3.00001
3.00001
3.00001
3.00001
3.00001
3.00001
3
3
2.99999
2.99996
2.99988
2.99972
2.99923
2.9982
2.99524
2.98852
2.97046
2.92695
2.81337
2.53305
1.89673
3.00001
3.00001
3.00001
3.00001
3.00001
3.00001
3.00001
3.00001
3.00001
3.00001
3.00001
3
2.99999
2.99996
2.99988
2.99973
2.99922
2.99829
2.99511
2.98896
2.96999
2.9281
2.81292
2.53428
1.89469
3.00001
3.00001
3.00001
3.00001
3.00001
3.00001
3.00001
3.00001
3.00001
3.00001
3.00001
3
2.99999
2.99996
2.9999
2.9997
2.99931
2.99808
2.99564
2.98792
2.97193
2.92562
2.81557
2.53273
1.89141
3.00001
3.00001
3.00001
3.00001
3.00001
3.00001
3.00001
3.00001
3.00001
3.00001
3.00001
3
2.99999
2.99996
2.99989
2.99972
2.99929
2.99816
2.99551
2.98823
2.97152
2.92618
2.81501
2.53253
1.88821
3.00001
3.00001
3.00001
3.00001
3.00001
3.00001
3.00001
3.00001
3.00001
3.00001
3.00001
3
2.99999
2.99996
2.99989
2.99972
2.99928
2.99817
2.99549
2.9883
2.97143
2.92632
2.81474
2.53229
1.88621
0.995381
0.824738
0.326328
0.253677
0.287915
0.393176
0.429403
0.45492
0.49029
0.531063
0.567924
0.600229
0.632108
0.664142
0.694508
0.722929
0.749861
0.769238
0.777734
0.780022
0.77601
0.760295
0.731072
0.690993
0.644442
0.595503
0.546454
0.498877
0.452532
0.408709
0.36702
0.327837
0.290416
0.254645
0.220259
0.186084
0.153195
0.121413
0.0909941
0.0617528
0.0343692
0.0163877
0.0323858
0.0567519
0.0821154
0.106611
0.130298
0.152402
0.173944
0.196092
0.218244
0.239585
0.260198
0.28026
0.299846
0.319019
0.337806
0.356229
0.37431
0.392059
0.409517
0.426664
0.443594
0.460215
0.476685
0.492856
0.508896
0.524689
0.54032
0.555784
0.571075
0.58621
0.601244
0.616053
0.630853
0.645381
0.659924
0.674209
0.688495
0.702526
0.716571
0.73033
0.744117
0.757613
0.771088
0.784354
0.797471
0.810503
0.823257
0.835979
0.848369
0.860636
0.872572
0.884169
0.895334
0.90581
0.915461
0.923777
0.930133
0.934655
0.980703
0.872931
0.625884
0.437481
0.323644
0.183075
0.0558347
0.125298
0.210058
0.278043
0.32409
0.358403
0.393624
0.431496
0.467432
0.499875
0.529726
0.552942
0.563971
0.565483
0.55906
0.54022
0.507307
0.463361
0.41443
0.364679
0.316074
0.270221
0.226001
0.184884
0.147087
0.112182
0.0807678
0.0547896
0.0419015
0.0508544
0.0718177
0.0963532
0.121794
0.146867
0.171415
0.195051
0.217431
0.239347
0.261158
0.282645
0.303558
0.323369
0.342578
0.362141
0.381974
0.400993
0.419454
0.437309
0.454914
0.472023
0.488983
0.50543
0.521811
0.537662
0.553524
0.568862
0.584246
0.599172
0.614117
0.628697
0.643273
0.657522
0.67181
0.68574
0.699782
0.713438
0.727233
0.740669
0.754213
0.767455
0.780764
0.793808
0.8069
0.819739
0.832599
0.845247
0.857826
0.870308
0.882557
0.894877
0.906788
0.918905
0.930498
0.942326
0.953606
0.965019
0.975889
0.986722
0.996933
1.00686
1.01578
1.02377
1.0296
1.03387
0.993563
0.968379
0.868967
0.772024
0.67112
0.55654
0.441955
0.336056
0.244482
0.16145
0.0921669
0.0661506
0.113749
0.165501
0.210958
0.250143
0.283166
0.30832
0.319707
0.317521
0.304812
0.286031
0.251204
0.20869
0.166661
0.127429
0.0966076
0.0802486
0.080769
0.0967157
0.118652
0.143928
0.170116
0.19602
0.221188
0.245022
0.268326
0.291221
0.313813
0.33566
0.35706
0.377498
0.39736
0.416484
0.435572
0.454127
0.472511
0.489739
0.506555
0.523252
0.540668
0.557394
0.573768
0.589369
0.60492
0.619927
0.634893
0.649408
0.663822
0.67792
0.691827
0.70558
0.719044
0.732494
0.74561
0.75877
0.771609
0.784498
0.797072
0.809736
0.822058
0.834536
0.846651
0.85896
0.870907
0.883043
0.894846
0.906796
0.918452
0.930224
0.941701
0.953319
0.964576
0.976048
0.987063
0.998362
1.00915
1.02022
1.0308
1.04158
1.05194
1.06236
1.07248
1.08248
1.09211
1.10126
1.10969
1.11702
1.12261
1.12625
1.01965
1.03927
1.01129
0.959529
0.895991
0.816527
0.733342
0.647423
0.567992
0.488973
0.412952
0.339359
0.275059
0.216905
0.162782
0.112289
0.0660085
0.0269442
0.0317898
0.0497427
0.0337177
0.0454972
0.0882891
0.13376
0.169016
0.202821
0.233788
0.261888
0.28699
0.311242
0.334596
0.357282
0.379326
0.400572
0.421012
0.440581
0.459586
0.478156
0.496359
0.514108
0.531388
0.548145
0.564366
0.580253
0.595835
0.611305
0.626454
0.641063
0.654863
0.668784
0.683136
0.697731
0.711602
0.72525
0.738399
0.751624
0.764395
0.777324
0.789783
0.802414
0.81464
0.82697
0.83903
0.851059
0.862981
0.874738
0.886533
0.898061
0.909726
0.921057
0.932589
0.943745
0.955156
0.966151
0.977453
0.988298
0.999479
1.01018
1.02121
1.0318
1.04263
1.05312
1.06371
1.07411
1.08445
1.09473
1.10484
1.11497
1.12494
1.13494
1.14483
1.15464
1.1643
1.17372
1.18286
1.19155
1.19962
1.20673
1.2122
1.21573
1.03647
1.08016
1.08827
1.0703
1.03721
0.989016
0.933073
0.872846
0.811746
0.750586
0.686024
0.621866
0.563548
0.508285
0.455865
0.406187
0.359181
0.318158
0.287055
0.273776
0.282029
0.307865
0.344001
0.382614
0.418068
0.448526
0.473673
0.494901
0.513547
0.530825
0.54726
0.563265
0.578817
0.594063
0.608832
0.62326
0.637238
0.651035
0.664516
0.677842
0.690841
0.703625
0.716081
0.728359
0.7405
0.752547
0.764617
0.776174
0.787228
0.798007
0.809504
0.821255
0.832942
0.844099
0.855209
0.866012
0.876895
0.887545
0.898292
0.908814
0.919446
0.929872
0.940408
0.950779
0.96122
0.971572
0.981909
0.992259
1.00249
1.01284
1.023
1.03334
1.04343
1.05375
1.0638
1.0741
1.08409
1.09437
1.10426
1.1145
1.12424
1.13442
1.14398
1.15406
1.16345
1.17346
1.1828
1.19274
1.20203
1.21179
1.22095
1.23043
1.23939
1.24851
1.25705
1.26551
1.27314
1.28021
1.28555
1.28912
1.04618
1.1003
1.12961
1.13595
1.1256
1.10241
1.06808
1.02976
0.986495
0.942281
0.89468
0.846786
0.798207
0.751449
0.703494
0.655852
0.610182
0.569462
0.539148
0.525473
0.530466
0.551134
0.581852
0.617399
0.650618
0.678187
0.697175
0.710828
0.721517
0.730829
0.73983
0.748835
0.757915
0.766953
0.775957
0.78476
0.793546
0.802219
0.811025
0.819754
0.828587
0.837289
0.84604
0.854743
0.863531
0.872443
0.881458
0.890466
0.898859
0.907372
0.915971
0.925586
0.934972
0.944626
0.953628
0.963065
0.971963
0.981397
0.990339
0.999778
1.00876
1.01816
1.02717
1.03654
1.0456
1.05496
1.06409
1.07344
1.08264
1.09199
1.10127
1.11063
1.11999
1.12936
1.13878
1.14817
1.1576
1.16701
1.1764
1.18582
1.19509
1.20452
1.21366
1.22315
1.23227
1.24176
1.25078
1.26016
1.26908
1.27833
1.28713
1.29616
1.30477
1.31347
1.32172
1.32985
1.33731
1.34422
1.34965
1.35313
1.05205
1.10991
1.15047
1.17317
1.18041
1.17516
1.1597
1.13772
1.11089
1.08106
1.04859
1.01392
0.977347
0.938438
0.897766
0.854256
0.811286
0.772097
0.74205
0.722846
0.72331
0.743247
0.776524
0.813807
0.848155
0.876623
0.893925
0.901317
0.903323
0.903084
0.902777
0.90361
0.905475
0.908275
0.911524
0.915263
0.919147
0.923354
0.927799
0.932638
0.937773
0.943235
0.948921
0.95486
0.96103
0.967434
0.974179
0.980997
0.987621
0.994067
1.00079
1.00819
1.01612
1.02405
1.03199
1.03984
1.04781
1.0557
1.06382
1.07183
1.0801
1.08826
1.09666
1.10496
1.11346
1.12189
1.13047
1.13902
1.14768
1.15635
1.16506
1.17384
1.18261
1.1915
1.2003
1.20929
1.21807
1.22715
1.23587
1.24501
1.2537
1.26294
1.27162
1.28087
1.28947
1.29863
1.30718
1.31622
1.32473
1.33361
1.34206
1.35074
1.35905
1.36746
1.37549
1.38341
1.39078
1.39762
1.40318
1.40666
1.05669
1.11447
1.16042
1.19291
1.21245
1.22078
1.21957
1.21112
1.19729
1.18006
1.1592
1.13515
1.10822
1.07647
1.0411
1.00044
0.960841
0.922023
0.886001
0.862427
0.86345
0.884474
0.91857
0.957675
0.993844
1.02217
1.04103
1.04888
1.04763
1.04031
1.03168
1.02488
1.02043
1.01826
1.01741
1.01774
1.01863
1.02003
1.02203
1.02431
1.02725
1.03037
1.03405
1.03797
1.04234
1.04701
1.05209
1.05749
1.06285
1.06807
1.07336
1.07936
1.08589
1.09281
1.09965
1.10668
1.1136
1.12075
1.12783
1.13517
1.14247
1.15001
1.15752
1.16526
1.17295
1.18086
1.1887
1.19674
1.2047
1.21284
1.22095
1.22921
1.23747
1.24587
1.25425
1.26279
1.27124
1.27988
1.28838
1.29719
1.30571
1.31454
1.32302
1.33184
1.3403
1.34906
1.3575
1.36614
1.37456
1.38304
1.39141
1.39968
1.40793
1.41593
1.42395
1.43152
1.43899
1.4456
1.45142
1.45474
1.06188
1.11749
1.16521
1.20311
1.23059
1.24837
1.25762
1.25975
1.2565
1.2487
1.23777
1.2217
1.20168
1.17453
1.14115
1.1045
1.06469
1.01951
0.976208
0.956045
0.961543
0.983356
1.0179
1.06012
1.09955
1.12773
1.14762
1.16002
1.16366
1.15879
1.14756
1.13488
1.12398
1.11597
1.11039
1.10687
1.10468
1.10348
1.10294
1.10296
1.10352
1.10457
1.10605
1.1081
1.11045
1.11344
1.11664
1.12055
1.12437
1.12834
1.1321
1.13661
1.1416
1.14738
1.15313
1.1592
1.1652
1.17144
1.1777
1.18419
1.19076
1.19752
1.20437
1.21137
1.21848
1.2257
1.23307
1.24051
1.2481
1.25575
1.26355
1.27141
1.27938
1.28744
1.29555
1.30379
1.31202
1.32048
1.32875
1.33729
1.34554
1.35414
1.36239
1.37102
1.37926
1.38788
1.39611
1.40466
1.41288
1.42136
1.42955
1.43791
1.44601
1.45421
1.46211
1.47
1.4774
1.48447
1.49038
1.49425
1.06854
1.12029
1.16759
1.2078
1.24002
1.26417
1.28077
1.29086
1.29536
1.29526
1.2906
1.28088
1.26337
1.23814
1.20721
1.17097
1.1256
1.06906
1.02623
1.01555
1.02597
1.04927
1.08675
1.13197
1.1727
1.20292
1.22299
1.23635
1.24413
1.24493
1.23918
1.22703
1.212
1.1981
1.18644
1.17771
1.17142
1.16716
1.16421
1.16233
1.16116
1.1606
1.16065
1.16124
1.16232
1.16398
1.16605
1.16876
1.17179
1.175
1.17811
1.18161
1.18566
1.19052
1.19559
1.20101
1.20645
1.21219
1.21792
1.22395
1.22999
1.23634
1.24272
1.24939
1.25608
1.26303
1.26999
1.27719
1.28438
1.29182
1.29922
1.30689
1.31447
1.32237
1.33008
1.33822
1.34606
1.35433
1.36217
1.37055
1.37843
1.38688
1.39479
1.40326
1.4112
1.41964
1.4276
1.43597
1.44393
1.4522
1.46013
1.46827
1.47614
1.4841
1.49181
1.49947
1.50678
1.51368
1.51965
1.52339
1.07726
1.12445
1.1696
1.21014
1.24466
1.27261
1.29421
1.30975
1.32006
1.32504
1.32474
1.31711
1.29964
1.27503
1.24526
1.20341
1.14414
1.08382
1.05422
1.05292
1.06629
1.0944
1.13561
1.18063
1.21989
1.2515
1.27392
1.28903
1.299
1.3047
1.30517
1.3003
1.28959
1.27468
1.25886
1.24492
1.23375
1.22546
1.21956
1.21542
1.21261
1.21069
1.20953
1.20898
1.20895
1.20951
1.21056
1.21225
1.21442
1.21704
1.21956
1.22235
1.2255
1.22951
1.23398
1.23883
1.24382
1.24907
1.25444
1.26005
1.26578
1.27175
1.27785
1.28418
1.29063
1.29727
1.30402
1.31093
1.31795
1.32511
1.33236
1.33979
1.34727
1.35498
1.36269
1.3706
1.37836
1.38638
1.39422
1.40233
1.41023
1.41841
1.42637
1.43457
1.44258
1.45076
1.45879
1.46693
1.47497
1.48302
1.49104
1.49898
1.50692
1.51468
1.52247
1.52993
1.53734
1.54409
1.55021
1.55386
1.08768
1.13032
1.17244
1.21176
1.24683
1.27682
1.30122
1.32041
1.33388
1.34196
1.34269
1.33282
1.3147
1.2904
1.25452
1.19872
1.13023
1.08239
1.0687
1.07481
1.09297
1.12699
1.16999
1.21152
1.24795
1.27869
1.30334
1.32205
1.33474
1.34339
1.34896
1.3497
1.34607
1.3378
1.32414
1.30784
1.29235
1.27924
1.26889
1.26134
1.25597
1.25232
1.24991
1.24828
1.24741
1.24703
1.24729
1.2481
1.24943
1.25145
1.25351
1.25578
1.25815
1.26133
1.2651
1.26943
1.27394
1.27881
1.28381
1.28911
1.29452
1.30019
1.30598
1.31199
1.31813
1.32444
1.33088
1.3375
1.34422
1.35115
1.35816
1.36541
1.37269
1.38025
1.38767
1.39539
1.40291
1.41079
1.4184
1.4264
1.43409
1.44217
1.44992
1.45805
1.46584
1.47399
1.48182
1.48996
1.49782
1.50593
1.5138
1.52184
1.52967
1.53759
1.54528
1.55294
1.56028
1.56727
1.57337
1.57731
1.1
1.13837
1.17704
1.21408
1.24828
1.27858
1.30422
1.32496
1.33996
1.34792
1.34524
1.33251
1.31364
1.28338
1.23323
1.16299
1.10272
1.07822
1.07796
1.08794
1.11227
1.14987
1.19091
1.2285
1.26181
1.29116
1.31654
1.33794
1.35501
1.36771
1.37609
1.38166
1.38342
1.38209
1.37634
1.36501
1.34996
1.33401
1.31956
1.30762
1.29858
1.29215
1.28772
1.28481
1.28293
1.28188
1.2814
1.28159
1.28231
1.28365
1.28539
1.2874
1.28937
1.29188
1.29496
1.29885
1.303
1.30759
1.31232
1.3174
1.32259
1.32808
1.33366
1.3395
1.34542
1.3516
1.35786
1.36437
1.37094
1.37779
1.38465
1.39187
1.39898
1.40639
1.41364
1.42122
1.42858
1.43631
1.44379
1.45163
1.45921
1.46711
1.47476
1.48271
1.49041
1.49836
1.50609
1.51403
1.52178
1.52966
1.5374
1.54519
1.55289
1.56052
1.56809
1.57544
1.58268
1.58935
1.59539
1.59908
1.11366
1.14788
1.18316
1.21778
1.2502
1.27968
1.30509
1.3253
1.33928
1.34268
1.33506
1.31983
1.29455
1.25056
1.18213
1.11522
1.08066
1.07396
1.08001
1.09784
1.12898
1.16635
1.20232
1.23541
1.26577
1.29367
1.31926
1.34218
1.36235
1.37904
1.39246
1.40158
1.40755
1.41084
1.41122
1.40802
1.39978
1.3868
1.37132
1.35631
1.34321
1.33281
1.32506
1.31974
1.31622
1.31409
1.31296
1.31256
1.31278
1.31357
1.31488
1.31665
1.31836
1.32034
1.32271
1.32594
1.3297
1.33393
1.33839
1.34318
1.34815
1.35338
1.35876
1.36434
1.37008
1.376
1.38206
1.38833
1.39474
1.40139
1.40816
1.41518
1.42212
1.42936
1.43645
1.44388
1.4511
1.45866
1.46601
1.47367
1.48112
1.48886
1.4964
1.50419
1.51181
1.51964
1.52731
1.53514
1.54283
1.55064
1.55832
1.56606
1.57367
1.58125
1.58871
1.59601
1.6031
1.60971
1.6156
1.61931
1.12901
1.15913
1.1905
1.22218
1.25236
1.28002
1.30377
1.32168
1.33036
1.32676
1.31434
1.29335
1.25452
1.18966
1.12011
1.07855
1.067
1.07005
1.08226
1.10759
1.14128
1.17446
1.2058
1.23516
1.2633
1.29
1.31556
1.33941
1.36145
1.38105
1.3982
1.41211
1.42312
1.42986
1.43434
1.43627
1.43553
1.43047
1.4202
1.40647
1.39193
1.37815
1.3665
1.3575
1.3511
1.34695
1.34444
1.34321
1.34282
1.34312
1.34395
1.3454
1.34694
1.34865
1.35047
1.35305
1.35631
1.36025
1.36445
1.36904
1.37378
1.37882
1.38398
1.38938
1.39488
1.40063
1.40647
1.41261
1.41881
1.4254
1.43195
1.4388
1.44555
1.45264
1.45956
1.46683
1.4739
1.48132
1.48852
1.49604
1.50335
1.51092
1.5183
1.52591
1.53334
1.54097
1.54845
1.5561
1.56361
1.57124
1.57874
1.58631
1.59374
1.60113
1.60838
1.61543
1.62228
1.62858
1.63418
1.63766
1.14475
1.17185
1.19957
1.22798
1.25528
1.28006
1.30009
1.31246
1.31194
1.30144
1.28344
1.24903
1.18868
1.11859
1.07258
1.05772
1.05879
1.06704
1.08716
1.11689
1.14765
1.17657
1.20426
1.23095
1.2574
1.28319
1.30856
1.33285
1.35602
1.37754
1.39727
1.41474
1.42984
1.44185
1.45081
1.45598
1.45967
1.46072
1.45866
1.4518
1.44057
1.4269
1.41305
1.40055
1.39042
1.38287
1.37786
1.37477
1.37329
1.37277
1.3731
1.37407
1.37542
1.37703
1.37859
1.3806
1.38319
1.38665
1.39049
1.39477
1.39927
1.40407
1.40904
1.41425
1.41959
1.42516
1.43085
1.43681
1.44291
1.44929
1.45562
1.46229
1.46882
1.47574
1.48247
1.48957
1.49645
1.50368
1.51071
1.51803
1.52518
1.53257
1.53982
1.54725
1.55458
1.56203
1.56939
1.57685
1.5842
1.59163
1.59895
1.60628
1.61351
1.62064
1.62764
1.63438
1.64089
1.64679
1.65194
1.65513
1.16036
1.18479
1.20975
1.2346
1.25841
1.27882
1.29289
1.29423
1.28524
1.26906
1.23749
1.18074
1.11221
1.06425
1.04675
1.0463
1.05252
1.06962
1.09588
1.12369
1.15007
1.17522
1.20016
1.22509
1.25022
1.27543
1.30039
1.32499
1.34873
1.37152
1.39298
1.41289
1.43091
1.44673
1.4601
1.47042
1.4777
1.48214
1.4854
1.48597
1.48266
1.47438
1.46257
1.4492
1.43613
1.42469
1.41578
1.4095
1.40557
1.40355
1.40282
1.40316
1.40419
1.40571
1.40718
1.4089
1.41092
1.41377
1.41719
1.42111
1.42529
1.42981
1.43453
1.43952
1.44466
1.45007
1.4556
1.46148
1.46738
1.47359
1.47971
1.48619
1.49252
1.49924
1.50576
1.51266
1.51935
1.5264
1.53324
1.54037
1.54734
1.55451
1.56159
1.56879
1.57594
1.58318
1.59038
1.59761
1.60481
1.612
1.61914
1.6262
1.63319
1.63999
1.64668
1.65297
1.65902
1.66433
1.6688
1.67152
1.17682
1.19916
1.22096
1.24228
1.26084
1.27479
1.27731
1.26892
1.25319
1.22275
1.16803
1.10136
1.05358
1.03481
1.0333
1.03884
1.05474
1.07901
1.10405
1.12744
1.14986
1.17243
1.1954
1.21918
1.24339
1.26814
1.29275
1.31741
1.34137
1.36494
1.38742
1.4089
1.42893
1.4474
1.464
1.47848
1.49056
1.49939
1.50567
1.51049
1.51299
1.51287
1.50807
1.49848
1.48612
1.47291
1.46063
1.45035
1.44272
1.43767
1.43492
1.43382
1.43402
1.43513
1.43652
1.43804
1.43963
1.44185
1.4447
1.44815
1.45195
1.45612
1.46056
1.46531
1.47028
1.47553
1.48095
1.48667
1.49238
1.49839
1.5043
1.51058
1.51669
1.5232
1.5295
1.53619
1.54265
1.54947
1.5561
1.56301
1.56979
1.57674
1.58364
1.59062
1.59761
1.60459
1.61163
1.6186
1.62562
1.63251
1.63943
1.64615
1.65285
1.65921
1.66546
1.67116
1.67651
1.68098
1.68445
1.68662
1.19298
1.21357
1.2324
1.24918
1.2612
1.26306
1.25452
1.23826
1.20757
1.15322
1.08752
1.04057
1.02217
1.02042
1.02569
1.04139
1.06449
1.08763
1.1088
1.12886
1.14891
1.16983
1.19165
1.21455
1.23806
1.26223
1.28649
1.31092
1.33501
1.35888
1.38192
1.40435
1.42567
1.44598
1.46491
1.48235
1.49787
1.51123
1.52172
1.52986
1.53589
1.54037
1.54214
1.54096
1.53467
1.52402
1.51138
1.4985
1.48699
1.4779
1.47148
1.46759
1.46584
1.46564
1.46658
1.46802
1.46936
1.47108
1.47331
1.47627
1.4796
1.48338
1.48744
1.49189
1.49659
1.50162
1.50687
1.51236
1.51785
1.52364
1.52934
1.53539
1.54128
1.54758
1.55364
1.56011
1.56636
1.57295
1.57938
1.58603
1.59264
1.59932
1.60606
1.61275
1.61955
1.62626
1.63306
1.63976
1.64651
1.65311
1.65971
1.66606
1.67234
1.67819
1.68382
1.68872
1.69308
1.69641
1.69886
1.70048
1.20663
1.22709
1.24305
1.25338
1.25371
1.24375
1.2262
1.19397
1.13798
1.07225
1.02638
1.0088
1.00764
1.01334
1.02984
1.05298
1.07478
1.0943
1.11243
1.13036
1.14904
1.16879
1.1898
1.21184
1.23476
1.25827
1.28215
1.30619
1.33025
1.35404
1.37753
1.40047
1.42275
1.44421
1.4647
1.48397
1.50195
1.51828
1.53278
1.5449
1.55433
1.56224
1.56816
1.57193
1.57286
1.57021
1.5625
1.55114
1.53852
1.52601
1.51532
1.50711
1.5017
1.49887
1.49799
1.49867
1.49985
1.50121
1.50286
1.5052
1.50816
1.51155
1.51529
1.51936
1.52374
1.52853
1.53347
1.53871
1.54393
1.5495
1.55495
1.56079
1.56644
1.57248
1.57833
1.58452
1.59057
1.59688
1.60312
1.60953
1.61591
1.62238
1.62886
1.63535
1.6419
1.64835
1.65492
1.66125
1.66773
1.67389
1.68009
1.68592
1.6916
1.69672
1.70143
1.70517
1.70828
1.71041
1.71144
1.71233
1.22242
1.23854
1.25023
1.24971
1.23743
1.21758
1.18273
1.12341
1.05628
1.01137
0.995292
0.994951
1.00252
1.02042
1.04359
1.06485
1.08311
1.0996
1.11576
1.13251
1.15049
1.16963
1.19008
1.21147
1.23382
1.25672
1.28018
1.30379
1.32764
1.35127
1.3749
1.39793
1.42077
1.44276
1.46429
1.48474
1.50445
1.52282
1.53994
1.55531
1.56877
1.57984
1.58881
1.59667
1.60174
1.60444
1.60456
1.6005
1.59158
1.57951
1.56653
1.55439
1.54443
1.53724
1.53299
1.53111
1.53124
1.53228
1.53343
1.53503
1.53734
1.54034
1.54372
1.54739
1.55137
1.55574
1.56034
1.56524
1.57025
1.57555
1.58083
1.58643
1.59188
1.59773
1.60331
1.60934
1.61508
1.6212
1.62716
1.63328
1.63949
1.64553
1.65194
1.65789
1.66441
1.67029
1.67677
1.6826
1.68886
1.69448
1.70034
1.70544
1.71048
1.71455
1.71801
1.72035
1.722
1.72226
1.7212
1.72177
1.23656
1.24511
1.24804
1.23549
1.21232
1.17346
1.1092
1.03995
0.996114
0.981317
0.982218
0.992575
1.01257
1.03632
1.05727
1.07487
1.09029
1.10503
1.12026
1.13644
1.15397
1.17268
1.19265
1.21354
1.23533
1.25771
1.28062
1.30382
1.32723
1.35065
1.37405
1.39714
1.42011
1.44243
1.46454
1.48574
1.5065
1.52616
1.54503
1.56259
1.57882
1.59331
1.60571
1.61601
1.62497
1.63191
1.63642
1.63801
1.6369
1.6311
1.62088
1.6082
1.59517
1.58352
1.5743
1.56811
1.56474
1.5639
1.56447
1.56551
1.56692
1.56922
1.57225
1.57569
1.57941
1.58343
1.58763
1.59223
1.59687
1.60196
1.60689
1.61233
1.61748
1.62313
1.62846
1.63422
1.63975
1.64555
1.65128
1.65712
1.66301
1.66888
1.67487
1.68077
1.68675
1.69263
1.69848
1.70416
1.70976
1.71495
1.71999
1.72428
1.72814
1.73075
1.73272
1.73338
1.73286
1.73094
1.72797
1.72692
1.25108
1.24699
1.23551
1.20925
1.16438
1.0952
1.02361
0.980842
0.967576
0.969973
0.983895
1.007
1.03106
1.05198
1.06908
1.08365
1.09738
1.11124
1.12617
1.14216
1.15947
1.1779
1.19737
1.21778
1.23889
1.26072
1.28296
1.30575
1.32862
1.35183
1.37486
1.39799
1.42074
1.4434
1.46554
1.48735
1.50856
1.5292
1.54903
1.56816
1.586
1.60294
1.61808
1.63172
1.64299
1.65304
1.66169
1.66757
1.6708
1.67142
1.66885
1.66117
1.64972
1.63661
1.62359
1.61241
1.60402
1.59886
1.59655
1.59635
1.59713
1.59828
1.60037
1.60337
1.60685
1.61064
1.61455
1.61883
1.62314
1.62791
1.63259
1.63775
1.64276
1.64816
1.6534
1.65889
1.66429
1.66985
1.67535
1.68096
1.68649
1.69216
1.69768
1.70338
1.70884
1.71447
1.71978
1.72509
1.73
1.73461
1.73859
1.74178
1.74395
1.74514
1.74508
1.74361
1.74116
1.73624
1.72796
1.72365
1.25997
1.23909
1.20503
1.14932
1.07441
1.00576
0.967268
0.955728
0.95931
0.976812
1.00304
1.02781
1.04856
1.0652
1.07924
1.09196
1.10488
1.11856
1.13343
1.14951
1.1666
1.18487
1.2039
1.22404
1.24459
1.26615
1.28778
1.31031
1.33251
1.35552
1.37792
1.40097
1.42332
1.44602
1.46805
1.49011
1.51148
1.5326
1.55299
1.57286
1.59185
1.61014
1.62716
1.64311
1.65743
1.66985
1.68065
1.69029
1.698
1.70259
1.70426
1.70379
1.69944
1.69019
1.6774
1.66347
1.65042
1.63974
1.6323
1.62808
1.6268
1.62722
1.62806
1.62966
1.6326
1.63622
1.64015
1.64416
1.64832
1.6527
1.65724
1.66199
1.6669
1.67195
1.67715
1.68239
1.68771
1.69306
1.69842
1.70385
1.70918
1.71465
1.71989
1.72533
1.73043
1.73565
1.74044
1.74514
1.74922
1.75284
1.75538
1.75701
1.75735
1.75667
1.75472
1.75085
1.74462
1.73408
1.71856
1.70997
1.26601
1.20894
1.13388
1.04835
0.981078
0.94962
0.943664
0.95016
0.971906
1.0008
1.02647
1.04673
1.06278
1.07613
1.08838