/*--------------------------------*- C++ -*----------------------------------*\
  =========                 |
  \\      /  F ield         | OpenFOAM: The Open Source CFD Toolbox
   \\    /   O peration     | Website:  https://openfoam.org
    \\  /    A nd           | Version:  13
     \\/     M anipulation  |
\*---------------------------------------------------------------------------*/
FoamFile
{
    format      ascii;
    class       surfaceScalarField;
    location    "7.5";
    object      phi;
}
// * * * * * * * * * * * * * * * * * * * * * * * * * * * * * * * * * * * * * //

dimensions      [1 0 -1 0 0 0 0];

internalField   nonuniform List<scalar> 
10325
(
0.00840003
7.64821e-11
0.0084
5.21325e-10
0.00840012
1.61812e-09
0.00839981
4.97577e-09
0.00840054
1.1578e-08
0.00839877
3.26552e-08
0.00840282
6.81523e-08
0.00839385
2.18893e-07
0.00841051
4.27112e-07
0.00838114
1.36327e-06
0.00841264
3.08279e-06
0.00836827
9.54944e-06
0.00835968
3.00883e-05
0.0082236
0.000118813
0.00761343
0.000592734
0.0069871
0.000629429
0.00637507
0.000613575
0.00573731
0.000637638
0.00506768
0.000669572
0.00435632
0.000711234
0.0035924
0.000764209
0.00277383
0.000818582
0.00190516
0.000868996
0.0009836
0.000921665
0.000983365
0.00840003
5.6228e-11
0.0084
1.53324e-09
0.00840012
1.55309e-09
0.00839981
1.51421e-08
0.00840053
1.21795e-08
0.00839884
9.52719e-08
0.00840262
9.49789e-08
0.00839427
5.44582e-07
0.00840914
7.6194e-07
0.00838323
2.93021e-06
0.00840963
6.26132e-06
0.00836931
1.95333e-05
0.00835584
6.17086e-05
0.0082197
0.000239588
0.00760574
0.00118863
0.00697208
0.00126634
0.0063677
0.00121953
0.00573727
0.00126798
0.00507129
0.00133547
0.00435361
0.00142879
0.00358144
0.00153669
0.00275502
0.00164503
0.00187545
0.00174891
0.000949661
0.00184757
0.00193281
0.00840003
3.85153e-10
0.00840004
1.19727e-09
0.00839999
6.79643e-09
0.0084001
1.16017e-08
0.00839971
4.99451e-08
0.0084007
7.14682e-08
0.00839795
3.26548e-07
0.00840397
4.32054e-07
0.00839075
1.91666e-06
0.00840966
3.2693e-06
0.00838079
1.09417e-05
0.00839334
2.81074e-05
0.00834215
9.37691e-05
0.00822794
0.000355941
0.00762709
0.00176757
0.00698963
0.00190714
0.00639081
0.00182
0.00576855
0.00189015
0.00510929
0.00199464
0.00439322
0.00214482
0.00361984
0.00231041
0.00278727
0.00247765
0.00189783
0.00263867
0.000958275
0.00278721
0.00289086
0.00840003
2.42006e-10
0.00840004
2.30697e-09
0.00839998
6.13034e-09
0.00840013
2.28301e-08
0.0083998
4.55641e-08
0.00840032
1.54547e-07
0.00839918
2.84518e-07
0.00840052
9.41131e-07
0.00839704
1.866e-06
0.00840035
5.45453e-06
0.00838916
1.32878e-05
0.0083873
3.86023e-05
0.00835022
0.000122513
0.00823915
0.00046304
0.00768054
0.00230372
0.00704093
0.00255081
0.00644904
0.00241384
0.00583731
0.0025018
0.00518626
0.00264568
0.00447895
0.00285203
0.0037065
0.00308332
0.0028708
0.00331345
0.0019658
0.00354418
0.000999527
0.00375377
0.00389024
0.00840003
4.93641e-10
0.00840006
2.10843e-09
0.00839995
1.01212e-08
0.00840022
2.02422e-08
0.00839958
7.37634e-08
0.00840109
1.42159e-07
0.00839761
4.47384e-07
0.00840505
9.46166e-07
0.00838947
2.62518e-06
0.00841291
6.281e-06
0.00837658
1.67877e-05
0.00839958
4.69505e-05
0.00834687
0.00014902
0.00826031
0.000554908
0.00778278
0.00275622
0.00713788
0.00320061
0.00654745
0.00300644
0.005945
0.00310419
0.00530825
0.0032823
0.00461204
0.00354846
0.00384757
0.0038481
0.00300614
0.00415516
0.00208209
0.00446875
0.00106984
0.00476618
0.00496008
0.00840003
3.74651e-10
0.00840001
3.17573e-09
0.00840009
8.92831e-09
0.00839988
3.11821e-08
0.00840041
6.69837e-08
0.00839905
2.06426e-07
0.00840228
4.23105e-07
0.00839488
1.27638e-06
0.00840944
2.71435e-06
0.00838243
7.75188e-06
0.00841393
1.88268e-05
0.00837056
5.45012e-05
0.00837329
0.000169642
0.00828896
0.00062114
0.00796661
0.00305673
0.00731148
0.00386174
0.00670682
0.00361363
0.00610815
0.00370292
0.00548364
0.00390687
0.00480272
0.00422958
0.00404645
0.00460512
0.00320289
0.00499894
0.0022527
0.00541954
0.00118131
0.00583816
0.0061415
0.00840003
4.77492e-10
0.00840002
3.22765e-09
0.00840007
1.03401e-08
0.00839995
3.14965e-08
0.00840014
7.84371e-08
0.00839979
2.06603e-07
0.00840004
5.06201e-07
0.00839951
1.27164e-06
0.00839954
3.16292e-06
0.00839761
8.00272e-06
0.00839857
2.07765e-05
0.00838887
5.77058e-05
0.0083813
0.000179529
0.00835093
0.000644602
0.00828527
0.00309811
0.00761108
0.00454182
0.00696248
0.00426507
0.00635574
0.00431
0.00574232
0.00452051
0.00507218
0.00489994
0.00432584
0.00535225
0.00348023
0.00584503
0.00250606
0.00639447
0.00135534
0.00698932
0.00749713
0.00840003
4.84161e-10
0.00840003
3.00303e-09
0.00840003
1.02886e-08
0.00840001
2.95161e-08
0.00840004
7.66977e-08
0.00840002
1.95856e-07
0.00839976
4.95667e-07
0.00840055
1.21441e-06
0.00839827
3.11756e-06
0.00840235
7.69827e-06
0.00839762
2.02399e-05
0.00840319
5.51348e-05
0.0084083
0.000169228
0.00845688
0.000594109
0.00882491
0.00270479
0.00811342
0.00525681
0.007356
0.00502485
0.00672657
0.00494029
0.00611083
0.00513696
0.00544704
0.00556419
0.00470795
0.00609229
0.00386289
0.00669062
0.00287266
0.00738562
0.00164324
0.00821941
0.00914073
0.00840003
4.27593e-10
0.00840004
2.60324e-09
0.00840001
9.36416e-09
0.00840009
2.52425e-08
0.00839988
6.9625e-08
0.00840046
1.68264e-07
0.00839903
4.33548e-07
0.00840287
1.05038e-06
0.00839504
2.62539e-06
0.00841137
6.53224e-06
0.00839273
1.65732e-05
0.00842697
4.44439e-05
0.00844339
0.000130711
0.00860801
0.000438187
0.00941513
0.00188117
0.00878694
0.00587956
0.00784307
0.00596713
0.00723338
0.0055504
0.00656959
0.00580133
0.00592736
0.00620669
0.00520578
0.00681467
0.00440412
0.00749291
0.00345499
0.00833548
0.00214207
0.00953316
0.0112833
0.00840003
4.4092e-10
0.00840003
2.1703e-09
0.00840003
9.13591e-09
0.00840002
2.11902e-08
0.00840004
6.69665e-08
0.00840004
1.41321e-07
0.00839988
4.15931e-07
0.00840057
8.82559e-07
0.00839887
2.49022e-06
0.00840308
5.6035e-06
0.00839965
1.51576e-05
0.00840894
3.86987e-05
0.00842199
0.000113742
0.00848752
0.000373105
0.00881024
0.00154693
0.00869305
0.00598229
0.00824278
0.00640965
0.00761003
0.0061846
0.00702023
0.00639128
0.00644061
0.00678625
0.00581614
0.00743974
0.00513239
0.00817709
0.0042547
0.00921372
0.00299971
0.010789
0.0142835
0.00840003
3.83746e-10
0.00840002
2.26242e-09
0.00840007
8.01396e-09
0.00839994
2.2043e-08
0.00840027
5.93383e-08
0.00839952
1.44113e-07
0.00840134
3.80689e-07
0.00839746
8.74499e-07
0.00840584
2.36138e-06
0.00839076
5.36594e-06
0.00841447
1.4543e-05
0.0083873
3.66257e-05
0.00842031
0.000106746
0.00842911
0.000344111
0.0086232
0.0013532
0.00857948
0.00600708
0.00829654
0.00669026
0.00782559
0.00665592
0.00740262
0.00681389
0.00694693
0.00724141
0.00651766
0.00786915
0.00602054
0.00867459
0.00555813
0.00967668
0.00547932
0.0108684
0.0113667
0.0083967
0.00840003
3.3334e-10
0.00840003
2.26296e-09
0.00840003
7.51164e-09
0.00840002
2.22826e-08
0.00840007
5.60255e-08
0.00839982
1.49621e-07
0.00840063
3.47943e-07
0.00839821
9.37999e-07
0.00840423
2.1121e-06
0.00839169
5.79113e-06
0.0084125
1.35161e-05
0.00838653
3.71883e-05
0.00841403
0.000102268
0.00840706
0.000329911
0.00852776
0.00123662
0.00866592
0.00584829
0.00833745
0.00701859
0.00797011
0.00702362
0.00766498
0.00711879
0.00734388
0.00756193
0.0070426
0.00817006
0.00678655
0.0089306
0.00668205
0.00978143
0.0070478
0.0105035
0.0104697
0.00794483
0.00840003
3.26018e-10
0.00840002
2.3435e-09
0.00840006
7.12903e-09
0.00839996
2.28116e-08
0.0084002
5.32853e-08
0.00839966
1.49299e-07
0.00840093
3.45953e-07
0.0083982
9.02657e-07
0.00840406
2.19375e-06
0.00839283
5.46368e-06
0.00841114
1.3918e-05
0.00838639
3.58186e-05
0.00841444
0.000100278
0.00840866
0.000312935
0.00851083
0.00113968
0.00897233
0.00536481
0.00862167
0.00737051
0.00825988
0.00738644
0.00796617
0.00741207
0.00774205
0.00778569
0.00754818
0.0083637
0.00747119
0.00900757
0.00763173
0.00962131
0.00807954
0.0100559
0.0099425
0.00860721
0.00840003
3.34263e-10
0.00840004
1.99334e-09
0.00840001
7.13885e-09
0.00840009
1.93983e-08
0.0083999
5.32312e-08
0.0084004
1.29575e-07
0.00839932
3.38724e-07
0.00840197
8.12872e-07
0.00839651
2.08829e-06
0.00840806
5.08033e-06
0.00838947
1.3077e-05
0.00841843
3.33294e-05
0.00839588
9.20319e-05
0.00845092
0.000280089
0.00858791
0.000986345
0.00963424
0.00429966
0.00917144
0.00783345
0.0086856
0.00787264
0.00836863
0.00772956
0.00817079
0.0079834
0.00807691
0.00845775
0.0081096
0.00897477
0.00831373
0.00941753
0.008701
0.00966873
0.00950585
0.00913762
0.00840003
2.70915e-10
0.00840004
1.63663e-09
0.00840002
5.9416e-09
0.00840008
1.60235e-08
0.00839996
4.36797e-08
0.00840028
1.07464e-07
0.0083997
2.68143e-07
0.00840121
6.75004e-07
0.00839886
1.60192e-06
0.00840485
4.16936e-06
0.00839924
9.82899e-06
0.00841937
2.58861e-05
0.00842716
6.69385e-05
0.00852539
0.000195891
0.00885837
0.000642739
0.0105295
0.00261903
0.00993499
0.00842103
0.00948469
0.00831852
0.00893769
0.00827761
0.00867023
0.00825099
0.00858544
0.00854278
0.00863917
0.00892101
0.00883608
0.00922082
0.00915903
0.00934623
0.00915075
0.00951396
0.00840003
2.3086e-10
0.00840003
1.40914e-09
0.00840005
4.91068e-09
0.0084
1.37642e-08
0.00840013
3.64642e-08
0.00839988
8.98926e-08
0.00840052
2.32608e-07
0.00839933
5.39623e-07
0.00840245
1.43102e-06
0.00839718
3.24323e-06
0.00840963
8.65595e-06
0.00839687
2.04877e-05
0.00843045
5.53896e-05
0.00844938
0.000153486
0.00860853
0.000496111
0.00929072
0.00192298
0.0100821
0.00761269
0.00977454
0.00862315
0.00937131
0.00867957
0.00911889
0.00850393
0.00903737
0.00862447
0.00908632
0.00887204
0.00925338
0.0090538
0.00951725
0.00908264
0.00887
0.0097983
0.00840003
1.71579e-10
0.00840003
1.29639e-09
0.00840003
3.93589e-09
0.00840004
1.26382e-08
0.00840004
2.93779e-08
0.00840001
8.36031e-08
0.0084002
1.83694e-07
0.00839962
5.1637e-07
0.00840166
1.12132e-06
0.00839724
3.13111e-06
0.00840822
6.98245e-06
0.00839373
1.90276e-05
0.00842271
4.67877e-05
0.00842088
0.000133003
0.00852153
0.000411326
0.00891865
0.0015094
0.0100047
0.00650946
0.00990902
0.00871814
0.00970321
0.00888506
0.00948196
0.00872601
0.00940946
0.0086975
0.00945902
0.00882249
0.00959414
0.00891867
0.00979887
0.00887816
0.00865094
0.0100181
0.00840003
1.78843e-10
0.00840003
1.0012e-09
0.00840003
3.72155e-09
0.00840003
9.7618e-09
0.00840003
2.76094e-08
0.00840008
6.42987e-08
0.00839993
1.76415e-07
0.00840055
3.94985e-07
0.00839902
1.08791e-06
0.0084037
2.42815e-06
0.00839516
6.65609e-06
0.00841434
1.54591e-05
0.00839697
4.19705e-05
0.00844114
0.000110963
0.00849195
0.000339182
0.00882583
0.00118193
0.0104619
0.00484957
0.0103102
0.00886759
0.0101142
0.00908004
0.00984344
0.00899822
0.00975391
0.00878827
0.00978734
0.00878979
0.00989229
0.00881366
0.0100421
0.00872835
0.00848926
0.0102043
0.00840003
1.20418e-10
0.00840003
8.41763e-10
0.00840003
2.72333e-09
0.00840005
8.21053e-09
0.00840002
2.01951e-08
0.00840009
5.42231e-08
0.00840004
1.25821e-07
0.00840017
3.32813e-07
0.00840054
7.61051e-07
0.00840026
1.99721e-06
0.00840385
4.63287e-06
0.00840392
1.20196e-05
0.00842061
2.92472e-05
0.00844929
7.8214e-05
0.00856834
0.000220797
0.0090281
0.000717321
0.0110918
0.00277744
0.0110048
0.00894407
0.0107487
0.00933506
0.0104125
0.00933431
0.010175
0.0090276
0.0101219
0.00884317
0.0101757
0.00876058
0.0102727
0.00863081
0.00838209
0.01038
0.00840003
1.04964e-10
0.00840003
6.26564e-10
0.00840003
2.27302e-09
0.00840004
6.1287e-09
0.00840001
1.67266e-08
0.00840012
4.09874e-08
0.0083999
1.03019e-07
0.00840059
2.5419e-07
0.00839933
6.15209e-07
0.00840313
1.55021e-06
0.00839684
3.67203e-06
0.00841346
9.43751e-06
0.00839684
2.27389e-05
0.00844397
6.01055e-05
0.00846896
0.000164211
0.00868934
0.00051679
0.00952263
0.00192699
0.0110232
0.00742662
0.0109859
0.00937084
0.0107787
0.00954015
0.0105348
0.00927173
0.0104376
0.00894091
0.0104415
0.00875708
0.0104922
0.00858045
0.00832189
0.0105523
0.00840003
8.49765e-11
0.00840003
5.02643e-10
0.00840004
1.79308e-09
0.00840003
4.88122e-09
0.00840005
1.33793e-08
0.00840003
3.19592e-08
0.00840008
8.53008e-08
0.00840012
1.94542e-07
0.00840003
5.22647e-07
0.00840105
1.18057e-06
0.00839926
3.17921e-06
0.00840644
7.29147e-06
0.00839996
1.94953e-05
0.0084254
4.77909e-05
0.00844103
0.000132984
0.00857222
0.000396977
0.00908352
0.00140161
0.0110769
0.00541298
0.0112192
0.00922716
0.0111399
0.00961854
0.0109113
0.0095006
0.0107469
0.00910639
0.0106964
0.00880846
0.0107048
0.00857243
0.0082983
0.0107286
0.00840003
5.57261e-11
0.00840003
3.95387e-10
0.00840003
1.25796e-09
0.00840004
3.87236e-09
0.00840003
9.32165e-09
0.00840004
2.55239e-08
0.00840008
5.80824e-08
0.00840004
1.55564e-07
0.0084005
3.51614e-07
0.0083997
9.2973e-07
0.00840353
2.12483e-06
0.00839874
5.53775e-06
0.0084177
1.30422e-05
0.00841174
3.37624e-05
0.00848112
8.64626e-05
0.00860766
0.000247046
0.00922768
0.000792698
0.011674
0.00295068
0.0118106
0.00908069
0.0116837
0.00974389
0.0113805
0.00980308
0.0111103
0.0093776
0.0109774
0.00894199
0.0109304
0.00861981
0.00831509
0.0109137
0.00840003
4.84853e-11
0.00840003
2.73513e-10
0.00840003
1.03339e-09
0.00840004
2.66896e-09
0.00840003
7.59101e-09
0.00840006
1.77012e-08
0.0084
4.67958e-08
0.00840026
1.09059e-07
0.00839979
2.77784e-07
0.00840142
6.61947e-07
0.0083988
1.64279e-06
0.00840746
4.0185e-06
0.00839617
9.80158e-06
0.00842944
2.47487e-05
0.00841958
6.25207e-05
0.00852744
0.000172507
0.00875957
0.000530608
0.00977338
0.00194311
0.0117272
0.00710044
0.0118538
0.00961474
0.0117431
0.00991221
0.0114239
0.00969714
0.0112675
0.00909884
0.0111697
0.00871783
0.00837038
0.0111143
0.00840003
3.23105e-11
0.00840003
2.16891e-10
0.00840003
7.13667e-10
0.00840003
2.11766e-09
0.00840004
5.29129e-09
0.00840002
1.39389e-08
0.0084001
3.32569e-08
0.00839998
8.48532e-08
0.00840039
2.0275e-07
0.00839984
5.07541e-07
0.00840162
1.23064e-06
0.00839989
3.04043e-06
0.00840662
7.51862e-06
0.00840495
1.86073e-05
0.00843072
4.74156e-05
0.0084616
0.00012611
0.00863106
0.000371318
0.00929127
0.00127091
0.0117297
0.0046375
0.0120367
0.00930278
0.0120682
0.00988203
0.0119128
0.00985414
0.0115705
0.00944223
0.0114234
0.00886544
0.00846571
0.0113281
0.00840003
2.40298e-11
0.00840003
1.54171e-10
0.00840003
5.21814e-10
0.00840003
1.50514e-09
0.00840004
3.86782e-09
0.00840004
9.82716e-09
0.00840005
2.42589e-08
0.00840008
5.9412e-08
0.00840006
1.46785e-07
0.00840048
3.53911e-07
0.00839989
8.80471e-07
0.00840328
2.10793e-06
0.00839949
5.28042e-06
0.00841763
1.27509e-05
0.00841137
3.23453e-05
0.0084815
8.24848e-05
0.00859457
0.000230162
0.00915945
0.000720912
0.0111946
0.00258602
0.0123764
0.00810935
0.0123708
0.00988686
0.0121865
0.0100383
0.0118647
0.00976472
0.011705
0.00902614
0.00860223
0.0115684
0.00840003
1.76278e-11
0.00840003
1.08846e-10
0.00840003
3.81538e-10
0.00840003
1.06214e-09
0.00840003
2.82125e-09
0.00840004
6.99117e-09
0.00840003
1.75799e-08
0.00840009
4.2631e-08
0.00839999
1.05562e-07
0.00840049
2.56507e-07
0.00839969
6.30525e-07
0.00840289
1.53922e-06
0.00839838
3.78066e-06
0.00841473
9.3146e-06
0.00840008
2.31276e-05
0.00845749
5.87487e-05
0.00848984
0.000157662
0.00876924
0.000471647
0.00967436
0.0016559
0.0121317
0.00563033
0.0124613
0.00955206
0.0125341
0.0099652
0.0124101
0.00988871
0.0120162
0.00941989
0.0088036
0.0118151
0.00840003
1.25422e-11
0.00840003
7.31905e-11
0.00840003
2.68936e-10
0.00840003
7.14745e-10
0.00840003
1.97659e-09
0.00840004
4.6975e-09
0.00840004
1.22218e-08
0.00840007
2.85487e-08
0.00840002
7.27502e-08
0.00840034
1.70958e-07
0.0083999
4.27239e-07
0.00840209
1.02433e-06
0.00839939
2.50899e-06
0.00841178
6.1339e-06
0.00840125
1.49626e-05
0.00845255
3.75156e-05
0.00847391
9.62163e-05
0.0087121
0.000269015
0.0094862
0.000854183
0.0121765
0.00293493
0.0129297
0.00878362
0.0128682
0.0100243
0.0126617
0.0100938
0.0123372
0.00974426
0.00903412
0.0121064
0.00840003
7.84669e-12
0.00840003
5.29707e-11
0.00840003
1.73185e-10
0.00840003
5.16912e-10
0.00840004
1.28191e-09
0.00840003
3.37242e-09
0.00840005
8.01599e-09
0.00840003
2.02606e-08
0.00840011
4.83946e-08
0.00840005
1.19548e-07
0.00840034
2.90747e-07
0.00840048
7.02067e-07
0.00840106
1.74603e-06
0.0084038
4.15509e-06
0.00840528
1.04958e-05
0.00842273
2.53319e-05
0.00844498
6.53563e-05
0.00854741
0.000173557
0.0088641
0.00052496
0.00996096
0.00183515
0.0126186
0.00609704
0.0129233
0.00971406
0.013066
0.00994909
0.0128539
0.00995532
0.00941153
0.0124767
0.00840003
5.53246e-12
0.00840003
3.45063e-11
0.00840003
1.19706e-10
0.00840003
3.37425e-10
0.00840003
8.80763e-10
0.00840003
2.20251e-09
0.00840004
5.47995e-09
0.00840005
1.32347e-08
0.00840004
3.28603e-08
0.00840016
7.82633e-08
0.00840001
1.94662e-07
0.00840092
4.62468e-07
0.00839977
1.15097e-06
0.00840547
2.73747e-06
0.00839954
6.83495e-06
0.00842744
1.64549e-05
0.00841829
4.16711e-05
0.00852565
0.000106615
0.0087061
0.000300171
0.00959817
0.000961351
0.0124036
0.00325083
0.0132753
0.00883143
0.0132481
0.00997485
0.0131351
0.0100672
0.00975258
0.0127946
0.00840003
3.7801e-12
0.00840003
2.26882e-11
0.00840003
8.18412e-11
0.00840003
2.21412e-10
0.00840003
6.00932e-10
0.00840004
1.45538e-09
0.00840003
3.70022e-09
0.00840005
8.86519e-09
0.00840003
2.18629e-08
0.00840013
5.31179e-08
0.00840001
1.28379e-07
0.0084006
3.16845e-07
0.00840001
7.52653e-07
0.00840304
1.88916e-06
0.00840071
4.4479e-06
0.00841448
1.129e-05
0.00841414
2.70298e-05
0.00847029
6.9919e-05
0.00855915
0.00018504
0.00897856
0.00055853
0.0102832
0.00192459
0.0129525
0.00613927
0.0132951
0.00962885
0.013448
0.00991378
0.00992768
0.0132725
0.00840003
2.47348e-12
0.00840003
1.49155e-11
0.00840003
5.30679e-11
0.00840003
1.45384e-10
0.00840003
3.90182e-10
0.00840003
9.47286e-10
0.00840004
2.42248e-09
0.00840004
5.68416e-09
0.00840005
1.44823e-08
0.00840006
3.35169e-08
0.00840008
8.54903e-08
0.0084003
1.97688e-07
0.00840013
5.02348e-07
0.008402
1.1694e-06
0.00840038
2.94716e-06
0.00841204
6.97459e-06
0.00840574
1.74677e-05
0.00845829
4.28556e-05
0.0084966
0.000111221
0.00877534
0.000309535
0.00967822
0.000991939
0.0125382
0.00324956
0.0135535
0.00860534
0.0135436
0.00992394
0.00993545
0.0135359
0.00840003
1.46412e-12
0.00840003
1.01269e-11
0.00840003
3.26844e-11
0.00840003
9.87194e-11
0.00840003
2.41721e-10
0.00840003
6.4244e-10
0.00840004
1.49468e-09
0.00840003
3.86343e-09
0.00840005
8.93698e-09
0.00840003
2.2767e-08
0.00840014
5.31352e-08
0.00840002
1.33319e-07
0.00840063
3.16689e-07
0.0084001
7.7917e-07
0.00840306
1.88973e-06
0.00840154
4.58235e-06
0.00841414
1.13464e-05
0.00841831
2.75912e-05
0.00847282
7.04659e-05
0.00857614
0.000186239
0.00902162
0.000557159
0.0103648
0.00188747
0.0131583
0.00579023
0.0136383
0.00943706
0.00984572
0.0137219
0.00840003
1.03791e-12
0.00840003
6.03998e-12
0.00840003
2.21301e-11
0.00840003
5.90395e-11
0.00840003
1.616e-10
0.00840003
3.85976e-10
0.00840003
9.9367e-10
0.00840004
2.32096e-09
0.00840004
5.8823e-09
0.00840005
1.37245e-08
0.00840004
3.43622e-08
0.00840019
8.09615e-08
0.00840004
1.99868e-07
0.00840101
4.78292e-07
0.0084001
1.16014e-06
0.00840574
2.82391e-06
0.0084017
6.7808e-06
0.00842928
1.67862e-05
0.00842952
4.09142e-05
0.00854627
0.000105563
0.00877214
0.000289568
0.00976331
0.000911184
0.0126189
0.00289328
0.0138532
0.00819094
0.00992158
0.0137725
0.00840003
5.85538e-13
0.00840003
4.05303e-12
0.00840003
1.30383e-11
0.00840003
3.94693e-11
0.00840003
9.64045e-11
0.00840003
2.54783e-10
0.00840003
5.988e-10
0.00840003
1.51711e-09
0.00840004
3.57869e-09
0.00840003
8.8487e-09
0.00840007
2.12673e-08
0.00840005
5.13526e-08
0.00840021
1.25979e-07
0.00840025
2.9764e-07
0.00840072
7.47225e-07
0.00840194
1.73116e-06
0.00840294
4.42012e-06
0.0084127
1.02399e-05
0.00841946
2.63248e-05
0.00847217
6.37279e-05
0.00857313
0.000171514
0.00899876
0.000498104
0.0101984
0.00167097
0.013253
0.00510945
0.00917617
0.0139859
0.00840003
3.92819e-13
0.00840003
2.35762e-12
0.00840003
8.52075e-12
0.00840003
2.29987e-11
0.00840003
6.24454e-11
0.00840003
1.50645e-10
0.00840003
3.8039e-10
0.00840003
9.08708e-10
0.00840003
2.22465e-09
0.00840004
5.38404e-09
0.00840004
1.28943e-08
0.00840009
3.16859e-08
0.00840007
7.46575e-08
0.00840029
1.85848e-07
0.00840044
4.32918e-07
0.00840114
1.08645e-06
0.00840312
2.52215e-06
0.00840575
6.35255e-06
0.0084194
1.49291e-05
0.00844055
3.77857e-05
0.00852086
9.40393e-05
0.00875405
0.00025839
0.00962995
0.000791509
0.0121884
0.0025321
0.00731746
0.0140212
0.00840003
2.38329e-13
0.00840003
1.44179e-12
0.00840003
5.10608e-12
0.00840003
1.40401e-11
0.00840003
3.73383e-11
0.00840003
9.09039e-11
0.00840003
2.29998e-10
0.00840003
5.39736e-10
0.00840003
1.36041e-09
0.00840004
3.14467e-09
0.00840004
7.93313e-09
0.00840006
1.83248e-08
0.00840005
4.59777e-08
0.00840024
1.06986e-07
0.00840007
2.65197e-07
0.00840141
6.27537e-07
0.00840021
1.52686e-06
0.008408
3.68688e-06
0.00840275
8.87667e-06
0.00843937
2.19092e-05
0.00844454
5.38428e-05
0.0086007
0.000141208
0.00894203
0.000404217
0.0101493
0.00133189
0.00406826
0.0133415
0.00840003
1.29241e-13
0.00840003
8.65102e-13
0.00840003
2.85212e-12
0.00840003
8.43278e-12
0.00840003
2.08843e-11
0.00840003
5.42598e-11
0.00840003
1.27828e-10
0.00840003
3.18786e-10
0.00840003
7.54532e-10
0.00840003
1.83067e-09
0.00840004
4.40123e-09
0.00840003
1.04506e-08
0.00840009
2.55492e-08
0.00840006
5.96205e-08
0.00840032
1.47489e-07
0.00840034
3.40092e-07
0.00840125
8.50937e-07
0.00840266
1.94314e-06
0.00840593
4.89085e-06
0.00841725
1.13104e-05
0.00843889
2.85531e-05
0.00850875
7.01297e-05
0.00871354
0.000191275
0.00945099
0.000583777
0.00192688
0.0115449
0.00840003
6.88745e-14
0.00840003
4.70019e-13
0.00840003
1.55371e-12
0.00840003
4.55201e-12
0.00840003
1.12998e-11
0.00840003
2.91716e-11
0.00840003
6.737e-11
0.00840003
1.7192e-10
0.00840003
3.82984e-10
0.00840003
9.84532e-10
0.00840004
2.15425e-09
0.00840004
5.55302e-09
0.00840007
1.21164e-08
0.00840004
3.0836e-08
0.00840026
6.83377e-08
0.00840002
1.69291e-07
0.00840145
3.84036e-07
0.00840002
9.21341e-07
0.00840799
2.15872e-06
0.00840221
5.01067e-06
0.0084377
1.21355e-05
0.00844428
2.88017e-05
0.00858902
7.41668e-05
0.00891249
0.000208891
0.000690482
0.0101282
0.00840003
4.02729e-14
0.00840003
2.27514e-13
0.00840003
8.61327e-13
0.00840003
2.19754e-12
0.00840003
6.18455e-12
0.00840003
1.40133e-11
0.00840003
3.64873e-11
0.00840003
8.10854e-11
0.00840003
2.02587e-10
0.00840003
4.61253e-10
0.00840003
1.09613e-09
0.00840004
2.59239e-09
0.00840003
5.87062e-09
0.00840009
1.44514e-08
0.00840001
3.10357e-08
0.00840033
7.96101e-08
0.00839997
1.63296e-07
0.00840129
4.32102e-07
0.00840053
8.48542e-07
0.00840533
2.30724e-06
0.00840623
4.54887e-06
0.00842663
1.20413e-05
0.00845419
2.71342e-05
0.00858061
7.40741e-05
0.000217584
0.00900074
0.00840003
1.88989e-14
0.00840003
1.16992e-13
0.00840003
4.11392e-13
0.00840003
1.1309e-12
0.00840003
2.93887e-12
0.00840003
7.11536e-12
0.00840003
1.72145e-11
0.00840003
4.03957e-11
0.00840003
9.65144e-11
0.00840003
2.2195e-10
0.00840003
5.3033e-10
0.00840003
1.20893e-09
0.00840003
2.88406e-09
0.00840006
6.54355e-09
0.00839998
1.54838e-08
0.00840024
3.53764e-08
0.00839962
8.13655e-08
0.0084014
1.90844e-07
0.00839752
4.20999e-07
0.00840729
1.00595e-06
0.00839005
2.21397e-06
0.00842051
5.27533e-06
0.00839382
1.26125e-05
0.00844674
3.22792e-05
9.12859e-05
0.00848649
0.00840003
9.63395e-15
0.00840003
5.92375e-14
0.00840003
2.09821e-13
0.00840003
5.73746e-13
0.00840003
1.54859e-12
0.00840003
3.53992e-12
0.00840003
9.22855e-12
0.00840003
2.00044e-11
0.00840003
5.10517e-11
0.00840003
1.09074e-10
0.00840003
2.82148e-10
0.00840003
5.94619e-10
0.00840003
1.48936e-09
0.00840004
3.28762e-09
0.00839998
7.92489e-09
0.00840015
1.80885e-08
0.0083996
4.17267e-08
0.00840093
9.98845e-08
0.00839739
2.21493e-07
0.00840473
5.53608e-07
0.00838881
1.19093e-06
0.00840997
2.97237e-06
0.00837883
7.06204e-06
0.00839734
1.87164e-05
5.30447e-05
0.00837932
0.00840003
3.24355e-15
0.00840003
4.4602e-14
0.00840003
8.0777e-14
0.00840003
4.33958e-13
0.00840003
5.77118e-13
0.00840003
2.69052e-12
0.00840003
3.48277e-12
0.00840003
1.49335e-11
0.00840003
2.12895e-11
0.00840003
7.73543e-11
0.00840003
1.34943e-10
0.00840003
3.81502e-10
0.00840003
8.85171e-10
0.00840003
1.81026e-09
0.0084
5.73609e-09
0.00840008
8.52927e-09
0.00839964
3.60067e-08
0.00840065
4.11377e-08
0.00839737
2.17219e-07
0.00840355
2.15217e-07
0.00838839
1.19417e-06
0.00840512
1.38926e-06
0.00837272
5.76989e-06
0.00837658
1.25587e-05
3.94881e-05
0.00836281
0.00840003
5.96967e-15
0.00840003
1.95853e-14
0.00840003
1.05648e-13
0.00840003
1.89275e-13
0.00840003
7.6986e-13
0.00840003
1.0968e-12
0.00840003
5.10075e-12
0.00840003
5.47649e-12
0.00840003
3.1264e-11
0.00840003
2.59776e-11
0.00840003
1.82968e-10
0.00840004
1.25997e-10
0.00840002
1.05318e-09
0.00840006
7.40906e-10
0.00839995
5.68947e-09
0.00840016
5.22035e-09
0.0083996
2.93931e-08
0.00840054
3.62762e-08
0.00839792
1.44278e-07
0.00840147
2.46937e-07
0.00839128
7.01956e-07
0.00839923
1.55088e-06
0.00837169
3.76461e-06
0.00836477
1.05785e-05
3.04426e-05
0.00836282
0.00840003
4.10761e-15
0.00840003
1.69078e-14
0.00840003
8.92618e-14
0.00840003
1.55978e-13
0.00840003
6.39593e-13
0.00840003
1.17692e-12
0.00840003
3.46921e-12
0.00840003
8.38971e-12
0.00840003
1.78226e-11
0.00840003
5.56423e-11
0.00840003
8.82241e-11
0.00840003
3.61177e-10
0.00840004
4.70898e-10
0.0084
2.31896e-09
0.00840008
1.98136e-09
0.00839981
1.4278e-08
0.0084004
8.07731e-09
0.00839861
8.27389e-08
0.00840232
2.44558e-08
0.00839251
4.4209e-07
0.00840754
1.46473e-07
0.00837544
1.86986e-06
0.00839576
2.24769e-06
0.0083424
8.39495e-06
2.28219e-05
0.00836529
0.00840003
6.50982e-16
0.00840003
3.05652e-14
0.00840003
2.93614e-14
0.00840003
2.98864e-13
0.00840003
2.41236e-13
0.00840003
1.84192e-12
0.00840003
1.81884e-12
0.00840003
1.01527e-11
0.00840003
1.36328e-11
0.00840003
5.25219e-11
0.00840003
9.87188e-11
0.00840003
2.61457e-10
0.00840003
6.94549e-10
0.00840002
1.22525e-09
0.00840001
4.85126e-09
0.00840001
4.48324e-09
0.00839975
3.18428e-08
0.00840018
1.13659e-08
0.0083979
1.93398e-07
0.00840114
1.73395e-08
0.00839056
9.24961e-07
0.00839712
3.95973e-07
0.00837205
3.13104e-06
0.00835609
4.16311e-06
1.51275e-05
0.00835706
0.00840003
3.27055e-15
0.00840003
1.75037e-14
0.00840003
6.53911e-14
0.00840003
1.73047e-13
0.00840003
4.60885e-13
0.00840003
1.2128e-12
0.00840003
2.62246e-12
0.00840003
7.71159e-12
0.00840003
1.46035e-11
0.00840003
4.79554e-11
0.00840003
7.89543e-11
0.00840003
2.86922e-10
0.00840002
4.10575e-10
0.00840003
1.69241e-09
0.0084
1.77834e-09
0.00839997
9.57953e-09
0.00839996
7.19477e-09
0.00839939
5.13589e-08
0.00839996
3.01929e-08
0.00839638
2.413e-07
0.00839819
1.86933e-07
0.00838671
8.94187e-07
0.00837843
1.26002e-06
0.00834767
3.16712e-06
8.1271e-06
0.00836191
0.00840003
5.05195e-15
0.00840003
8.0656e-15
0.00840003
8.32185e-14
0.00840003
8.07603e-14
0.00840003
6.13656e-13
0.00840003
4.9448e-13
0.00840003
4.06532e-12
0.00840003
2.26917e-12
0.00840003
2.48497e-11
0.00840003
8.10939e-12
0.00840003
1.42996e-10
0.00840004
2.76672e-11
0.00840002
7.71929e-10
0.00840005
2.12354e-10
0.00839994
3.87774e-09
0.00840015
2.10716e-09
0.00839956
1.86451e-08
0.0084005
1.55182e-08
0.00839756
7.21708e-08
0.00840133
1.07708e-07
0.00838928
2.56581e-07
0.00839784
5.23826e-07
0.00836438
8.04691e-07
0.00835444
1.65817e-06
2.53085e-06
0.0083578
0.00840003
7.80111e-16
0.00840003
1.72882e-14
0.00840003
2.31529e-14
0.00840003
1.60262e-13
0.00840003
1.73361e-13
0.00840003
9.90821e-13
0.00840003
1.07645e-12
0.00840003
5.70891e-12
0.00840003
7.36275e-12
0.00840003
2.96187e-11
0.00840003
4.91458e-11
0.00840003
1.53552e-10
0.00840004
3.22734e-10
0.00839999
6.96063e-10
0.0084001
1.91996e-09
0.00839978
3.49267e-09
0.0084004
1.05031e-08
0.00839859
1.27293e-08
0.00840194
5.22677e-08
0.00839252
5.16782e-08
0.00840511
2.14781e-07
0.00837514
1.37618e-07
0.00838891
6.27839e-07
0.00833391
2.2275e-07
4.21919e-07
0.00836398
0.00840003
8.16892e-16
0.00840003
6.3493e-15
0.00840003
1.78797e-14
0.00840003
6.07822e-14
0.00840003
1.36747e-13
0.00840003
3.77166e-13
0.00840003
8.57755e-13
0.00840003
2.34228e-12
0.00840003
4.81281e-12
0.00840003
1.34836e-11
0.00840003
2.67446e-11
0.00840003
7.09384e-11
0.00840003
1.47391e-10
0.0084
3.45561e-10
0.00840006
8.20489e-10
0.00839982
1.49756e-09
0.00840028
4.53722e-09
0.00839862
5.76725e-09
0.00840175
2.16258e-08
0.00839236
1.58902e-08
0.00840529
8.0619e-08
0.00837387
4.3163e-08
0.00838854
1.76202e-07
0.00833218
-1.01872e-07
-5.23124e-07
0.00836479
0.00840003
0.00840003
0.00840003
0.00840003
0.00840003
0.00840003
0.00840003
0.00840003
0.00840003
0.00840003
0.00840003
0.00840003
0.00840003
0.00840001
0.00840005
0.00839983
0.00840024
0.00839868
0.0084015
0.00839263
0.00840446
0.00837458
0.00838684
0.00833205
0.00836443
0.00404952
0.00434743
0.00176284
0.00228643
-0.000449672
0.00221201
-0.00155847
0.00110951
-0.00219452
0.00063581
-0.00258599
0.000390248
-0.0027194
0.000131559
-0.00283143
0.000109476
-0.00300027
0.000166137
-0.00316581
0.000162762
-0.00329675
0.00012811
-0.00339862
9.91718e-05
-0.00349744
9.62264e-05
-0.00358867
8.85693e-05
-0.00366349
7.24561e-05
-0.0037131
4.7597e-05
-0.00374521
2.78307e-05
-0.00378577
3.50187e-05
-0.0038238
3.19369e-05
-0.00384896
1.89373e-05
-0.00385892
7.79595e-07
-0.00384798
-2.28808e-05
-0.00380265
-5.95635e-05
-0.00371557
-0.000102416
-0.00359037
-0.000141195
-0.00343543
-0.000170193
-0.00325917
-0.000191125
-0.00306699
-0.000205527
-0.00286077
-0.000219238
-0.00264679
-0.000225721
-0.00242898
-0.000228267
-0.00220887
-0.000230219
-0.00198658
-0.00023137
-0.00176135
-0.000234608
-0.00153486
-0.000235711
-0.00130075
-0.000243167
-0.0010655
-0.000244175
-0.000832064
-0.000242438
-0.00060123
-0.000239689
-0.000370881
-0.000239014
-0.000140412
-0.000238991
9.61188e-05
-0.000245448
0.000326062
-0.000239115
0.000543275
-0.000226248
0.000752034
-0.000217869
0.000952543
-0.000209625
0.00114575
-0.000202171
0.00133049
-0.000193725
0.00150908
-0.000187499
0.00168505
-0.000184496
0.0018567
-0.000179689
0.0020223
-0.000173526
0.00218097
-0.000166406
0.0023333
-0.000159731
0.00247955
-0.000153264
0.00262027
-0.000147182
0.00275544
-0.000141088
0.00288543
-0.000135268
0.00301009
-0.000129428
0.00312985
-0.000123851
0.00324457
-0.000118299
0.00335479
-0.000112983
0.00346039
-0.000107765
0.00356177
-0.000102726
0.00365895
-9.78513e-05
0.00375195
-9.31087e-05
0.00384114
-8.85505e-05
0.00392621