/*--------------------------------*- C++ -*----------------------------------*\
  =========                 |
  \\      /  F ield         | OpenFOAM: The Open Source CFD Toolbox
   \\    /   O peration     | Website:  https://openfoam.org
    \\  /    A nd           | Version:  13
     \\/     M anipulation  |
\*---------------------------------------------------------------------------*/
FoamFile
{
    format      ascii;
    class       volScalarField;
    location    "7.5";
    object      T;
}
// * * * * * * * * * * * * * * * * * * * * * * * * * * * * * * * * * * * * * //

dimensions      [0 0 0 1 0 0 0];

internalField   nonuniform List<scalar> 
5250
(
1.00001
1.00002
1.00005
1.00014
1.0003
1.00084
1.00183
1.0051
1.0114
1.03075
1.07528
1.20342
1.54301
2.28344
2.69829
2.74891
2.74109
2.74114
2.75216
2.76839
2.7803
2.78848
2.79477
2.79874
2.80188
1.00001
1.00002
1.00005
1.00013
1.0003
1.00084
1.00179
1.00508
1.01119
1.03042
1.07429
1.20076
1.5362
2.27279
2.69459
2.74867
2.74056
2.74036
2.75132
2.76745
2.77926
2.78739
2.79362
2.79752
2.80053
1.00001
1.00002
1.00005
1.00013
1.0003
1.00076
1.00189
1.00456
1.01169
1.0284
1.07371
1.19377
1.52241
2.24831
2.68596
2.74772
2.73885
2.73792
2.74891
2.7644
2.77634
2.78394
2.7901
2.79354
2.79665
1.00001
1.00002
1.00005
1.00011
1.00032
1.00067
1.00192
1.00423
1.01139
1.02698
1.07088
1.1851
1.49962
2.20984
2.67202
2.74623
2.73599
2.73384
2.74402
2.7601
2.77116
2.77958
2.7852
2.78898
2.79145
1.00001
1.00002
1.00005
1.00011
1.00029
1.00065
1.00181
1.00392
1.01097
1.02501
1.06721
1.17318
1.4697
2.15491
2.65219
2.74407
2.73192
2.72792
2.73821
2.75273
2.76387
2.77111
2.77715
2.78017
2.78314
1
1.00002
1.00004
1.00011
1.00025
1.00067
1.00148
1.00412
1.00912
1.02483
1.05979
1.1612
1.43038
2.08222
2.62501
2.74064
2.72604
2.72012
2.72977
2.74489
2.75518
2.76191
2.76689
2.7701
2.77177
1
1.00002
1.00003
1.0001
1.00021
1.00062
1.00134
1.00368
1.00842
1.02214
1.05431
1.14422
1.38599
1.98833
2.58912
2.73419
2.71716
2.70866
2.71796
2.73197
2.7429
2.74865
2.75261
2.75383
2.7551
1
1.00001
1.00003
1.00009
1.00019
1.00055
1.0012
1.00324
1.00754
1.01945
1.04801
1.12606
1.33664
1.87532
2.54176
2.72257
2.70443
2.69446
2.70403
2.71695
2.72672
2.73209
2.73414
2.73329
2.72949
1
1.00001
1.00003
1.00007
1.00018
1.00045
1.00112
1.0027
1.00688
1.01646
1.04233
1.10769
1.28796
1.75395
2.48338
2.70351
2.68467
2.67567
2.68422
2.69753
2.7062
2.70943
2.70847
2.70197
2.6873
1
1.00001
1.00002
1.00007
1.00015
1.00042
1.00093
1.00251
1.00581
1.01499
1.03667
1.0953
1.25215
1.67031
2.42427
2.68458
2.67054
2.66116
2.66493
2.67506
2.68219
2.68271
2.67544
2.6539
2.5974
1
1.00001
1.00002
1.00006
1.00013
1.00037
1.00081
1.00228
1.00492
1.01362
1.03159
1.08426
1.21975
1.58952
2.33236
2.6494
2.65942
2.65105
2.64791
2.65272
2.65497
2.65031
2.63173
2.58582
2.47978
1
1.00001
1.00002
1.00005
1.00013
1.0003
1.00076
1.00186
1.00451
1.01148
1.02793
1.07227
1.18953
1.5093
2.21333
2.60253
2.6509
2.6414
2.63406
2.63251
2.62904
2.61679
2.58686
2.52348
2.41266
1
1.00001
1.00002
1.00004
1.0001
1.00028
1.0006
1.00169
1.00363
1.01012
1.02313
1.06174
1.15835
1.42807
2.06479
2.54156
2.6397
2.62979
2.61828
2.61202
2.60285
2.58335
2.54702
2.4831
2.38627
1
1
1.00001
1.00003
1.00009
1.0002
1.00057
1.00121
1.00344
1.00744
1.02046
1.0485
1.1299
1.34368
1.8878
2.46072
2.61958
2.61251
2.60035
2.5893
2.57719
2.55487
2.51603
2.45734
2.37696
1
1
1.00001
1.00003
1.00008
1.00016
1.00046
1.00095
1.00275
1.00593
1.01613
1.038
1.10029
1.26132
1.68487
2.35819
2.58233
2.58433
2.57547
2.56324
2.54889
2.5272
2.49082
2.43662
2.36843
1
1
1.00001
1.00002
1.00005
1.00015
1.00032
1.00091
1.0019
1.00544
1.01193
1.03217
1.07858
1.21043
1.55463
2.24872
2.54138
2.55997
2.55057
2.53916
2.52374
2.50116
2.46886
2.4196
2.35816
1
1
1.00001
1.00002
1.00005
1.00011
1.00028
1.00066
1.00166
1.0041
1.00994
1.02515
1.06295
1.16578
1.44068
2.07413
2.47019
2.53947
2.53093
2.51884
2.50173
2.47778
2.44796
2.40566
2.35055
1
1
1.00001
1.00002
1.00003
1.00009
1.00021
1.00053
1.00129
1.00313
1.00794
1.01909
1.04898
1.12554
1.33534
1.85904
2.37299
2.51287
2.51254
2.49969
2.48186
2.4574
2.42753
2.39033
2.34299
1
1
1
1.00001
1.00003
1.00006
1.00017
1.00037
1.00101
1.00228
1.00595
1.01408
1.03591
1.09007
1.23682
1.61753
2.24385
2.46673
2.48455
2.4758
2.45883
2.43729
2.40924
2.37484
2.33381
1
1
1
1.00001
1.00002
1.00005
1.00013
1.00028
1.00078
1.00166
1.00471
1.01023
1.02779
1.06671
1.17801
1.46663
2.09099
2.41205
2.46
2.45254
2.43655
2.41558
2.39083
2.36003
2.32331
1
1
1
1.00001
1.00001
1.00004
1.00008
1.00024
1.00052
1.00137
1.00323
1.00811
1.0199
1.05008
1.12938
1.34241
1.8674
2.31403
2.42988
2.43067
2.41806
2.39666
2.37218
2.34441
2.3117
1
1
1
1
1.00001
1.00003
1.00007
1.00015
1.0004
1.00095
1.00231
1.00579
1.01382
1.03503
1.08758
1.22878
1.59461
2.17465
2.38023
2.40201
2.39446
2.37676
2.35321
2.3283
2.29979
1
1
1
1
1.00001
1.00002
1.00005
1.00011
1.00029
1.00065
1.00179
1.00386
1.01068
1.02404
1.06405
1.16141
1.42827
2.00373
2.32005
2.37562
2.37072
2.35546
2.33446
2.31116
2.28614
1
1
1
1
1.00001
1.00001
1.00003
1.00009
1.00018
1.00053
1.00109
1.00313
1.00677
1.01828
1.04322
1.11374
1.29553
1.75661
2.21071
2.33928
2.34664
2.33669
2.31786
2.2957
2.27245
1
1
1
1
1
1.00001
1.00002
1.00006
1.00013
1.00034
1.00082
1.00198
1.00494
1.01176
1.02983
1.07367
1.19151
1.49953
2.04907
2.27956
2.31685
2.31282
2.29901
2.2786
2.25719
1
1
1
1
1
1.00001
1.00002
1.00004
1.0001
1.00022
1.00058
1.0013
1.00351
1.00777
1.02084
1.04905
1.12944
1.33472
1.82579
2.1873
2.28385
2.28977
2.28214
2.26463
2.2424
1
1
1
1
1
1
1.00001
1.00003
1.00006
1.00015
1.00038
1.00087
1.00229
1.00507
1.01363
1.03114
1.08175
1.20572
1.53637
2.04142
2.23305
2.26252
2.26025
2.24761
2.22872
1
1
1
1
1
1
1.00001
1.00002
1.00004
1.00011
1.00023
1.00064
1.00139
1.00369
1.0085
1.02165
1.05293
1.1363
1.35464
1.84577
2.15989
2.23341
2.23825
2.2311
2.21513
1
1
1
1
1
1
1
1.00001
1.00003
1.00007
1.00016
1.00038
1.00099
1.00219
1.00589
1.01308
1.03469
1.08338
1.21856
1.55931
2.02494
2.19047
2.21444
2.21252
2.20032
1
1
1
1
1
1
1
1.00001
1.00002
1.00004
1.00011
1.00023
1.00066
1.00137
1.0039
1.00834
1.02248
1.05287
1.13833
1.35625
1.83063
2.1175
2.18535
2.1916
2.18556
1
1
1
1
1
1
1
1.00001
1.00001
1.00003
1.00006
1.00016
1.00038
1.00094
1.00231
1.00543
1.01383
1.03264
1.08386
1.21216
1.54571
1.98275
2.1428
2.16894
2.16879
1
1
1
1
1
1
1
1
1.00001
1.00002
1.00004
1.00011
1.00023
1.00064
1.00132
1.00375
1.00801
1.02153
1.05051
1.13154
1.33757
1.78547
2.06547
2.13944
2.15079
1
1
1
1
1
1
1
1
1
1.00001
1.00003
1.00006
1.00016
1.00035
1.00093
1.002
1.00544
1.01188
1.03154
1.07466
1.19393
1.49209
1.92551
2.09551
2.12896
1
1
1
1
1
1
1
1
1
1.00001
1.00001
1.00004
1.00009
1.00024
1.00051
1.00138
1.0031
1.0079
1.01877
1.04689
1.11761
1.3036
1.71987
2.02058
2.10646
1
1
1
1
1
1
1
1
1
1
1.00001
1.00002
1.00006
1.00013
1.00035
1.00076
1.00201
1.00452
1.01151
1.02724
1.06864
1.17196
1.44205
1.8715
2.06391
1
1
1
1
1
1
1
1
1
1
1.00001
1.00001
1.00003
1.00008
1.00021
1.00048
1.00125
1.00273
1.00736
1.01625
1.04288
1.10316
1.2692
1.64814
1.99637
1
1
1
1
1
1
1
1
1
1
1
1.00001
1.00002
1.00006
1.00012
1.00033
1.0007
1.00191
1.00422
1.01095
1.02565
1.06515
1.16288
1.4185
1.87523
1
1
1
1
1
1
1
1
1
1
1
1.00001
1.00001
1.00004
1.00009
1.00022
1.00049
1.00133
1.00286
1.00787
1.01737
1.04614
1.11237
1.29376
1.71842
1
1
1
1
1
1
1
1
1
1
1
1
1.00001
1.00003
1.00008
1.00015
1.00046
1.00094
1.00268
1.00588
1.0158
1.03756
1.09876
1.25751
1.69167
1
1
1
1
1
1
1
1
1
1
1
1
1.00001
1.00003
1.00006
1.00015
1.00038
1.0009
1.00238
1.00545
1.01464
1.03491
1.09298
1.24495
1.69241
1
1
1
1
1
1
1
1
1
1
1
1
1.00001
1.00002
1.00006
1.00014
1.00035
1.00087
1.00223
1.0053
1.01392
1.03393
1.08986
1.23903
1.68551
1
1
1
1
1
1
1
1
1
1
1
1
1.00001
1.00002
1.00005
1.00014
1.00034
1.00085
1.00214
1.00523
1.01349
1.0334
1.08793
1.23546
1.67441
1
1
1
1
1
1
1
1
1
1
1
1
1.00001
1.00002
1.00006
1.00012
1.00037
1.00076
1.00226
1.00487
1.01366
1.03233
1.08726
1.23204
1.66306
1
1
1
1
1
1
1
1
1
1
1
1
1.00001
1.00002
1.00005
1.00014
1.00032
1.00086
1.00195
1.00541
1.0124
1.03355
1.08442
1.23107
1.655
1
1
1
1
1
1
1
1
1
1
1
1
1.00001
1.00002
1.00005
1.00014
1.00031
1.00083
1.002
1.00511
1.01277
1.03249
1.08458
1.2287
1.65264
1
1
1
1
1
1
1
1
1
1
1
1
1.00001
1.00002
1.00006
1.00012
1.00034
1.00077
1.00207
1.00493
1.01288
1.032
1.08459
1.22763
1.65662
1
1
1
1
1
1
1
1
1
1
1
1
1.00001
1.00002
1.00006
1.00011
1.00035
1.00072
1.00217
1.00465
1.01325
1.03127
1.08512
1.22679
1.66185
1
1
1
1
1
1
1
1
1
1
1
1
1.00001
1.00002
1.00005
1.00013
1.00029
1.00086
1.00183
1.00536
1.01197
1.03305
1.08308
1.22845
1.66741
1
1
1
1
1
1
1
1
1
1
1
1
1.00001
1.00002
1.00005
1.00013
1.00031
1.00081
1.00192
1.00517
1.01224
1.03269
1.08351
1.22847
1.67268
1
1
1
1
1
1
1
1
1
1
1
1
1.00001
1.00002
1.00005
1.00012
1.00031
1.0008
1.00193
1.00512
1.01231
1.0326
1.08369
1.22858
1.67574
2.33837
2.46008
2.70218
2.96562
2.96197
2.92048
2.90433
2.8922
2.87366
2.85169
2.83008
2.81092
2.79088
2.77045
2.74988
2.73081
2.71201
2.69777
2.69138
2.68954
2.69175
2.70162
2.72018
2.74515
2.7728
2.79957
2.82555
2.84686
2.86892
2.88368
2.90014
2.90965
2.92096
2.9281
2.93473
2.93929
2.94359
2.94611
2.94711
2.94741
2.94686
2.94594
2.94358
2.94091
2.93566
2.93236
2.92576
2.92017
2.91377
2.90754
2.89975
2.89187
2.88389
2.87587
2.8677
2.85932
2.85061
2.84178
2.83273
2.82379
2.81455
2.80569
2.7961
2.78722
2.77732
2.7683
2.75843
2.74909
2.73954
2.72991
2.72035
2.71079
2.70077
2.6915
2.68112
2.67191
2.66153
2.65218
2.64184
2.63245
2.622
2.61267
2.60217
2.59276
2.58254
2.57277
2.56304
2.55291
2.54356
2.53338
2.52412
2.51435
2.50507
2.49596
2.48702
2.47885
2.47099
2.46445
2.45923
2.45555
2.35053
2.43839
2.55647
2.77823
2.90631
2.95808
2.99795
3.01507
3.00287
2.98201
2.96677
2.94887
2.93456
2.91643
2.89791
2.88145
2.86399
2.85227
2.8447
2.84378
2.84747
2.85747
2.87256
2.8919
2.91024
2.92534
2.93998
2.94725
2.95585
2.95958
2.96302
2.9643
2.962
2.95905
2.9552
2.95165
2.94518
2.94067
2.93126
2.92498
2.91742
2.90944
2.90062
2.89237
2.88422
2.87591
2.8668
2.85849
2.84927
2.8409
2.83047
2.82118
2.81041
2.80119
2.79023
2.78102
2.76965
2.76047
2.7488
2.73977
2.72805
2.71909
2.70759
2.69836
2.6872
2.6776
2.66659
2.65691
2.6457
2.63617
2.62475
2.61527
2.60389
2.59425
2.58309
2.57326
2.56229
2.55236
2.54147
2.5315
2.52073
2.51059
2.50018
2.48968
2.47984
2.46894
2.45965
2.44855
2.43957
2.42862
2.41971
2.40921
2.40038
2.39044
2.38198
2.37279
2.36532
2.35763
2.35272
2.34796
2.34028
2.36426
2.44169
2.49178
2.59632
2.7093
2.83508
2.92525
2.98167
3.00464
3.00779
3.00677
3.01149
3.00446
2.99016
2.98292
2.97301
2.96371
2.95974
2.96048
2.96652
2.97529
2.98517
2.99597
3.00126
3.00257
2.99845
2.99089
2.98352
2.97264
2.9621
2.94799
2.93087
2.91558
2.90022
2.88771
2.87403
2.86229
2.84835
2.83707
2.82325
2.81247
2.79902
2.78878
2.77562
2.76542
2.75236
2.74282
2.73038
2.7209
2.70791
2.69815
2.68585
2.67649
2.6648
2.65556
2.64459
2.63536
2.62512
2.6157
2.60625
2.59657
2.58777
2.57793
2.56938
2.55958
2.55108
2.54143
2.5331
2.5235
2.51539
2.50575
2.49773
2.48804
2.47995
2.47031
2.46208
2.45257
2.44419
2.43473
2.42634
2.41676
2.40852
2.39873
2.3907
2.38082
2.3729
2.36314
2.35521
2.34579
2.33772
2.32879
2.32062
2.3122
2.30421
2.29658
2.28949
2.28338
2.27863
2.27552
2.31787
2.30594
2.33096
2.36728
2.4118
2.48606
2.55446
2.65351
2.74314
2.84491
2.9084
2.93739
2.96588
2.98912
3.00045
3.00602
3.00535
2.98919
2.98188
2.99314
3.00577
3.00967
3.00889
3.00482
2.99526
2.9828
2.96546
2.94665
2.92713
2.90767
2.88759
2.86893
2.85074
2.834
2.81771
2.8024
2.78729
2.77293
2.75884
2.74529
2.73204
2.71912
2.70684
2.69436
2.68268
2.67041
2.6591
2.64728
2.63691
2.62542
2.6146
2.60253
2.59215
2.58051
2.57067
2.55906
2.54951
2.53794
2.52855
2.51723
2.50769
2.49683
2.48699
2.47678
2.46668
2.45706
2.44681
2.43764
2.42739
2.41859
2.40845
2.39998
2.38996
2.38177
2.37184
2.3639
2.3541
2.34631
2.33675
2.32893
2.31973
2.3117
2.30293
2.29464
2.28627
2.2778
2.26969
2.2612
2.2531
2.2447
2.23652
2.22827
2.22011
2.21221
2.20442
2.19707
2.19018
2.18406
2.17939
2.17617
2.30796
2.27123
2.26755
2.28397
2.30508
2.34673
2.39143
2.44392
2.50654
2.56841
2.64759
2.73094
2.79345
2.8535
2.89831
2.9254
2.94503
2.94919
2.95017
2.95126
2.94856
2.93996
2.92797
2.91014
2.88942
2.86409
2.84103
2.81842
2.79691
2.77628
2.75705
2.73832
2.72127
2.7045
2.68911
2.67371
2.65984
2.64603
2.63363
2.62122
2.60987
2.59851
2.58799
2.57761
2.56762
2.55806
2.54833
2.53968
2.53083
2.52308
2.51398
2.50578
2.49656
2.48873
2.48
2.47237
2.46383
2.45624
2.44776
2.44019
2.43172
2.42405
2.41555
2.40766
2.3992
2.391
2.3827
2.37418
2.36607
2.3573
2.34933
2.34042
2.3325
2.32351
2.31561
2.30656
2.29872
2.28955
2.28186
2.27257
2.26512
2.25574
2.24859
2.23918
2.23227
2.2229
2.21601
2.2068
2.19981
2.19088
2.18379
2.17522
2.1681
2.1599
2.15297
2.14531
2.13904
2.13248
2.12806
2.12431
2.30044
2.25674
2.23237
2.22912
2.23729
2.25447
2.28569
2.31387
2.35498
2.39313
2.44195
2.49179
2.55049
2.60224
2.66266
2.72002
2.7723
2.81663
2.84506
2.85568
2.85126
2.83465
2.80673
2.76906
2.732
2.69354
2.6645
2.63977
2.61913
2.60178
2.58598
2.5718
2.55899
2.5478
2.53744
2.52849
2.51978
2.51219
2.50433
2.49745
2.49026
2.48395
2.47738
2.47119
2.46486
2.45837
2.45209
2.44523
2.43971
2.43286
2.42736
2.41945
2.41349
2.40527
2.39962
2.39143
2.38579
2.37752
2.37166
2.36345
2.35744
2.34947
2.3433
2.33553
2.32911
2.32142
2.31473
2.30709
2.30014
2.29253
2.28528
2.27769
2.27013
2.26256
2.2548
2.24718
2.23937
2.23164
2.22392
2.21599
2.2085
2.20033
2.19313
2.18473
2.17765
2.16917
2.16218
2.15376
2.14679
2.13854
2.13154
2.12355
2.11661
2.10896
2.10225
2.09512
2.08901
2.08289
2.07841
2.07509
2.29539
2.24973
2.21626
2.19799
2.1923
2.19644
2.20989
2.22683
2.24974
2.27529
2.30431
2.33688
2.37277
2.41392
2.45556
2.5043
2.54882
2.59278
2.62317
2.64592
2.64412
2.62528
2.58904
2.54857
2.50888
2.47435
2.45208
2.43954
2.43308
2.43086
2.43055
2.42976
2.42915
2.42788
2.42705
2.42528
2.42399
2.42226
2.42063
2.4183
2.4156
2.41221
2.40857
2.40447
2.4001
2.39555
2.39049
2.38551
2.38051
2.37572
2.37058
2.36497
2.35875
2.35256
2.34609
2.33991
2.33321
2.32706
2.32014
2.31392
2.30679
2.30039
2.29313
2.28651
2.27919
2.27233
2.26498
2.25791
2.25056
2.24331
2.236
2.22858
2.22133
2.21375
2.20661
2.19884
2.19191
2.18392
2.17723
2.16904
2.16249
2.15411
2.14763
2.13917
2.13276
2.12443
2.11799
2.10987
2.10335
2.09551
2.08887
2.08132
2.07465
2.06739
2.06086
2.05405
2.04802
2.04213
2.03756
2.03444
2.29149
2.24613
2.20906
2.18269
2.16688
2.15999
2.16107
2.16776
2.17974
2.19351
2.21156
2.23292
2.25613
2.28714
2.31833
2.35956
2.39511
2.43487
2.46646
2.4912
2.48987
2.47196
2.4402
2.40418
2.37073
2.34528
2.32842
2.32187
2.32338
2.33045
2.33934
2.34603
2.35102
2.35341
2.35526
2.35523
2.35485
2.35402
2.35212
2.3506
2.3476
2.34526
2.34172
2.33836
2.33422
2.32997
2.32524
2.32027
2.31537
2.31045
2.30575
2.30019
2.29467
2.28837
2.28265
2.27623
2.27049
2.26404
2.25821
2.25171
2.24573
2.23915
2.23299
2.22625
2.21993
2.21304
2.20665
2.19976
2.19333
2.18649
2.17996
2.17308
2.16639
2.15938
2.15258
2.14539
2.13856
2.13118
2.12437
2.11672
2.10997
2.10219
2.0955
2.08772
2.08104
2.07339
2.06666
2.05927
2.05249
2.04545
2.03863
2.03197
2.02518
2.01889
2.01224
2.0064
2.00019
1.99519
1.99035
1.98806
2.28758
2.24289
2.2048
2.17412
2.15191
2.13757
2.13003
2.12837
2.13109
2.13818
2.14581
2.1608
2.17694
2.20094
2.23029
2.2627
2.2989
2.33841
2.37629
2.3964
2.39214
2.37482
2.34555
2.30972
2.27551
2.2526
2.23564
2.22503
2.22202
2.22611
2.23578
2.24632
2.25601
2.26286
2.26791
2.27085
2.27287
2.27398
2.27468
2.27504
2.27483
2.27424
2.27347
2.27185
2.27049
2.26792
2.26589
2.26251
2.2601
2.25671
2.25439
2.25047
2.24695
2.24191
2.2376
2.23242
2.22784
2.22265
2.21776
2.21243
2.2072
2.20167
2.19618
2.19051
2.18477
2.17893
2.17287
2.16682
2.16048
2.15421
2.14768
2.14122
2.13458
2.12788
2.12119
2.11423
2.1075
2.10021
2.09353
2.08604
2.07943
2.07176
2.06519
2.05746
2.0509
2.04321
2.03662
2.02905
2.02241
2.01497
2.00827
2.00097
1.99428
1.98714
1.9806
1.97372
1.96761
1.96141
1.95655
1.95294
2.28301
2.24138
2.20296
2.17051
2.1443
2.1247
2.11133
2.10305
2.09974
2.09996
2.10388
2.11186
2.12744
2.1482
2.17511
2.20695
2.2446
2.29485
2.33212
2.34253
2.33458
2.31643
2.28656
2.2476
2.21344
2.18868
2.17217
2.16199
2.1556
2.15591
2.16131
2.17235
2.18627
2.19859
2.20943
2.21741
2.22359
2.22769
2.23086
2.23277
2.23412
2.23493
2.23508
2.23472
2.23402
2.23258
2.23111
2.22876
2.22642
2.22362
2.22114
2.21799
2.21473
2.21045
2.2064
2.20167
2.19735
2.19239
2.18785
2.18269
2.1779
2.17247
2.16736
2.16162
2.15618
2.15017
2.1445
2.13832
2.13249
2.12612
2.12018
2.11363
2.10766
2.1009
2.09496
2.08794
2.082
2.07474
2.06885
2.06139
2.05549
2.04791
2.04196
2.03437
2.02837
2.02089
2.01481
2.00751
2.00136
1.99428
1.98807
1.98122
1.975
1.96838
1.96223
1.9559
1.95003
1.94434
1.93952
1.9364
2.27529
2.23795
2.20148
2.16854
2.14045
2.11787
2.10023
2.08775
2.07917
2.07551
2.07586
2.08232
2.09715
2.11892
2.14309
2.18003
2.22948
2.2823
2.30911
2.31129
2.30079
2.27869
2.2447
2.20654
2.17396
2.14736
2.12942
2.117
2.10963
2.1051
2.10535
2.1098
2.11921
2.1323
2.14618
2.15828
2.16819
2.17559
2.18083
2.18466
2.18723
2.18915
2.19032
2.19091
2.19114
2.19075
2.19005
2.18858
2.18698
2.18461
2.18262
2.18003
2.17743
2.17384
2.17018
2.166
2.16195
2.15749
2.15312
2.14838
2.14367
2.13859
2.13349
2.12804
2.12258
2.11686
2.11112
2.10521
2.0993
2.09325
2.08724
2.08097
2.07482
2.06827
2.06198
2.05519
2.04893
2.042
2.03573
2.02871
2.02239
2.01535
2.00897
2.00198
1.99555
1.98867
1.9822
1.97545
1.96896
1.96239
1.95589
1.94955
1.9431
1.93702
1.9307
1.92494
1.91894
1.91381
1.90885
1.90624
2.26722
2.23341
2.19952
2.16763
2.13899
2.11436
2.09473
2.07883
2.06842
2.06161
2.06164
2.07025
2.08556
2.10649
2.13748
2.18461
2.24325
2.28491
2.29765
2.29308
2.27898
2.25133
2.21594
2.18044
2.15008
2.12463
2.10462
2.0895
2.07954
2.07283
2.06862
2.06884
2.07233
2.08005
2.09213
2.10639
2.12002
2.13143
2.14069
2.14737
2.15234
2.15577
2.15806
2.15983
2.16067
2.16138
2.16124
2.16066
2.1598
2.158
2.15661
2.15455
2.15285
2.15004
2.14714
2.14344
2.13992
2.1358
2.13184
2.12736
2.12297
2.11815
2.11337
2.10829
2.10321
2.09792
2.09261
2.0871
2.08161
2.07584
2.07017
2.06408
2.05823
2.0518
2.04589
2.03923
2.0333
2.02645
2.02048
2.01349
2.00747
2.00041
1.99434
1.98727
1.98115
1.9741
1.96792
1.96091
1.95466
1.94771
1.94138
1.93454
1.92817
1.92149
1.91523
1.90882
1.90286
1.89707
1.89212
1.88881
2.25726
2.22631
2.19528
2.16578
2.13811
2.11343
2.09273
2.07571
2.06347
2.05747
2.05992
2.07119
2.08708
2.11303
2.15544
2.21578
2.26809
2.29003
2.29045
2.28248
2.26323
2.23191
2.19797
2.16647
2.13885
2.11454
2.09376
2.07629
2.06274
2.0524
2.04653
2.04204
2.04169
2.04306
2.04826
2.05827
2.07113
2.08501
2.09741
2.1078
2.11573
2.12139
2.12546
2.12815
2.13008
2.13114
2.13184
2.13174
2.13122
2.13009
2.12882
2.12695
2.12548
2.12319
2.12081
2.11741
2.11415
2.11019
2.10639
2.10199
2.09772
2.09297
2.08833
2.08328
2.07833
2.07298
2.06776
2.06214
2.05671
2.05081
2.04522
2.03899
2.03326
2.02684
2.02107
2.01449
2.00868
2.00198
1.9961
1.98935
1.98339
1.97663
1.97063
1.96391
1.95788
1.95123
1.94518
1.9386
1.93252
1.92607
1.91996
1.91367
1.90755
1.90149
1.89544
1.8897
1.8839
1.87879
1.87394
1.87128
2.24711
2.21936
2.19034
2.16203
2.13607
2.11212
2.0916
2.07561
2.0641
2.06207
2.06855
2.08214
2.10385
2.14095
2.19956
2.25744
2.28763
2.29367
2.28891
2.27499
2.24915
2.21804
2.18819
2.16077
2.13564
2.11263
2.0915
2.07292
2.05646
2.04335
2.03265
2.02587
2.02121
2.01908
2.01926
2.0222
2.02957
2.04073
2.05424
2.06719
2.07866
2.08774
2.09471
2.09944
2.10273
2.10473
2.1058
2.10624
2.10607
2.10537
2.10441
2.10284
2.10158
2.09986
2.0981
2.09538
2.09248
2.08895
2.0854
2.08135
2.07727
2.07285
2.06836
2.06366
2.05887
2.05391
2.04888
2.04361
2.03834
2.0327
2.02716
2.02113
2.01549
2.00919
2.00349
1.99703
1.99127
1.98474
1.97893
1.97237
1.96648
1.95992
1.95394
1.94739
1.94133
1.93478
1.92866
1.92214
1.91598
1.90951
1.90335
1.897
1.89088
1.88474
1.87874
1.87292
1.86724
1.86205
1.85734
1.85451
2.23437
2.21065
2.18552
2.15925
2.13481
2.1123
2.09289
2.07859
2.07191
2.07524
2.08666
2.10417
2.13796
2.1935
2.25271
2.28879
2.29932
2.29713
2.28749
2.26712
2.23908
2.21152
2.18512
2.16102
2.1375
2.11575
2.0946
2.07532
2.05738
2.04182
2.02793
2.01722
2.00808
2.00361
1.99969
1.99904
1.99984
2.00434
2.01334
2.02515
2.03766
2.04965
2.0598
2.06766
2.0733
2.0769
2.07918
2.0802
2.08057
2.08035
2.07973
2.07847
2.07748
2.07601
2.07477
2.07254
2.07
2.06661
2.0632
2.05924
2.05535
2.05106
2.04684
2.0423
2.03782
2.033
2.02826
2.02308
2.01806
2.01243
2.00713
2.00119
1.99573
1.98954
1.98398
1.97762
1.97197
1.96553
1.95981
1.95337
1.9476
1.94121
1.93541
1.9291
1.92329
1.91702
1.91116
1.90489
1.89898
1.89273
1.88677
1.88062
1.8747
1.86877
1.86298
1.85743
1.85198
1.84715
1.8427
1.84018
2.2215
2.1992
2.17773
2.1545
2.13241
2.11227
2.09633
2.08652
2.0874
2.09736
2.11244
2.14271
2.19318
2.25353
2.29378
2.3068
2.30624
2.3
2.28433
2.25929
2.23346
2.20974
2.18651
2.16471
2.14261
2.12167
2.10071
2.08114
2.06226
2.04497
2.02897
2.01498
2.00263
1.99338
1.98589
1.98274
1.9796
1.97964
1.98158
1.98768
1.9975
2.00925
2.02105
2.03172
2.04023
2.04668
2.05082
2.05357
2.05472
2.05537
2.05516
2.05442
2.05357
2.05219
2.05116
2.04944
2.04746
2.04451
2.04142
2.03777
2.03408
2.03002
2.02593
2.02156
2.0172
2.01256
2.00797
2.00297
1.99809
1.99265
1.98758
1.9818
1.97657
1.97051
1.96515
1.95894
1.95348
1.94723
1.94166
1.93544
1.92976
1.92358
1.9178
1.91167
1.90585
1.89976
1.89393
1.88787
1.88206
1.87606
1.87027
1.86438
1.85865
1.85299
1.84744
1.84219
1.83703
1.83255
1.82848
1.82623
2.20972
2.1895
2.16916
2.14949
2.13003
2.11342
2.10224
2.10232
2.11034
2.1241
2.15205
2.19938
2.25817
2.29971
2.31562
2.31643
2.31147
2.29797
2.27645
2.2536
2.23156
2.21082
2.18988
2.16937
2.14879
2.12819
2.10799
2.08786
2.06863
2.05001
2.03252
2.01629
2.00171
1.98913
1.97845
1.97063
1.96481
1.96185
1.95939
1.95947
1.96236
1.96945
1.97937
1.99075
2.00179
2.0116
2.01923
2.02466
2.0281
2.02983
2.03066
2.03044
2.02974
2.02842
2.02736
2.02584
2.02428
2.02181
2.01904
2.01573
2.01232
2.00854
2.0047
2.00055
1.9964
1.9919
1.98745
1.9825
1.97776
1.97245
1.96756
1.96195
1.95692
1.95108
1.94592
1.93991
1.93461
1.92854
1.9231
1.91707
1.91153
1.90558
1.89996
1.89407
1.88839
1.88253
1.8768
1.87098
1.86524
1.85949
1.85381
1.84821
1.84265
1.83734
1.83201
1.82719
1.82237
1.81846
1.81489
1.81311
2.19604
2.17815
2.16048
2.14288
2.12878
2.11708
2.11582
2.12363
2.13694
2.16393
2.20972
2.267
2.30828
2.32518
2.32666
2.32228
2.30974
2.28961
2.26917
2.24985
2.23146
2.21265
2.19407
2.17451
2.15498
2.1345
2.11464
2.09418
2.07491
2.05531
2.03708
2.01945
2.00334
1.98852
1.97534
1.96382
1.9542
1.9473
1.94261
1.93879
1.93727
1.93751
1.94165
1.94995
1.96028
1.97148
1.98184
1.99062
1.99709
2.00147
2.0038
2.00487
2.00474
2.00384
2.0029
2.00159
2.00045
1.99855
1.99629
1.99342
1.99035
1.98689
1.98326
1.97932
1.97528
1.97088
1.96649
1.96164
1.95707
1.95193
1.94724
1.94182
1.937
1.93135
1.92642
1.92064
1.91557
1.90974
1.9045
1.89869
1.8933
1.88756
1.88204
1.87639
1.87076
1.86519
1.85951
1.854
1.84833
1.84292
1.83735
1.83212
1.82674
1.82187
1.81688
1.81261
1.80836
1.80515
1.80242
1.80112
2.18284
2.16621
2.15135
2.13748
2.12808
2.1275
2.13542
2.14909
2.1764
2.22172
2.27837
2.31909
2.33536
2.337
2.33286
2.32045
2.30169
2.2826
2.26538
2.24879
2.23232
2.21497
2.19732
2.17842
2.15946
2.13952
2.11987
2.09969
2.08011
2.06032
2.04175
2.02336
2.0063
1.98983
1.97463
1.96051
1.94812
1.93747
1.9293
1.92283
1.91847
1.91483
1.91392
1.91499
1.92022
1.92923
1.93999
1.95079
1.96047
1.96803
1.9734
1.97673
1.97822
1.97851
1.97783
1.9766
1.97568
1.97422
1.97252
1.97006
1.96744
1.96433
1.96108
1.95741
1.95361
1.94943
1.9452
1.94061
1.93623
1.93134
1.92684
1.92164
1.91703
1.91159
1.90688
1.9013
1.89642
1.89083
1.88572
1.88021
1.87487
1.86946
1.86398
1.85866
1.85314
1.84785
1.84237
1.83709
1.83168
1.8265
1.8212
1.81627
1.81125
1.80678
1.80229
1.79868
1.7952
1.79296
1.79103
1.79021
2.1721
2.15541
2.14266
2.13476
2.13483
2.14417
2.1586
2.18722
2.23406
2.29033
2.32999
2.34642
2.34786
2.34324
2.32984
2.31069
2.29276
2.27666
2.26171
2.24699
2.23161
2.21567
2.19858
2.18074
2.1621
2.14299
2.12351
2.10389
2.08413
2.06475
2.04547
2.02675
2.0086
1.99116
1.97456
1.95915
1.94474
1.9318
1.92018
1.9106
1.90333
1.89697
1.89255
1.88952
1.88923
1.89144
1.89783
1.90716
1.91754
1.92803
1.93689
1.94387
1.9485
1.95091
1.95182
1.95127
1.9505
1.9494
1.94813
1.94621
1.9438
1.94102
1.93797
1.93465
1.93113
1.92721
1.92329
1.91895
1.91488
1.91018
1.90597
1.90097
1.8966
1.89145
1.8869
1.88168
1.8769
1.87164
1.86664
1.86135
1.85619
1.85092
1.84566
1.84045
1.83513
1.83007
1.82471
1.81987
1.8146
1.80992
1.80497
1.80054
1.79606
1.79222
1.7885
1.78583
1.78335
1.78208
1.78122
1.78102
2.15936
2.14577
2.13692
2.13778
2.14964
2.16612
2.19605
2.24575
2.30294
2.34265
2.35634
2.35805
2.35216
2.33728
2.31843
2.30089
2.286
2.27256
2.25917
2.24551
2.23061
2.21518
2.19844
2.18127
2.163
2.14451
2.12525
2.10605
2.08631
2.06716
2.04756
2.02908
2.01022
1.99266
1.97502
1.95878
1.94271
1.92812
1.91434
1.90217
1.89147
1.88263
1.87578
1.86937
1.86562
1.86343
1.86349
1.86684
1.87434
1.88429
1.89506
1.90518
1.91339
1.91938
1.92286
1.92454
1.92447
1.92363
1.92279
1.92147
1.91963
1.91723
1.91455
1.91166
1.90854
1.90507
1.90146
1.89749
1.89355
1.88916
1.88504
1.88029
1.87609
1.87107
1.86683
1.86166
1.85727
1.85212
1.84742
1.84245
1.83735
1.83267
1.82723
1.82285
1.81723
1.813
1.80745
1.80321
1.79794
1.79382
1.78893
1.78523
1.78107
1.77816
1.77537
1.77381
1.77261
1.7727
1.77392
1.77378
2.14858
2.14175
2.13935
2.15009
2.17018
2.20359
2.25867
2.31669
2.35542
2.36823
2.36868
2.36129
2.34523
2.32464
2.30743
2.2929
2.28015
2.26796
2.25521
2.2421
2.22767
2.21264
2.19631
2.17946
2.16164
2.1435
2.12475
2.10585
2.08668
2.06761
2.04846
2.02982
2.01094
1.99313
1.97492
1.95806
1.94108
1.92548
1.9102
1.89625
1.88321
1.87175
1.86179
1.85378
1.84662
1.84129
1.83765
1.83662
1.83755
1.8422
1.8506
1.86115
1.87179
1.88135
1.88908
1.89426
1.89719
1.8979
1.89745
1.89657
1.89545
1.89355
1.89118
1.88843
1.88553
1.88231
1.87908
1.87533
1.87184
1.86758
1.86392
1.85928
1.85547
1.85064
1.84666
1.84182
1.83759
1.83283
1.82832
1.82363
1.8189
1.81424
1.80936
1.80469
1.79985
1.79518
1.7905
1.78607
1.78159
1.77766
1.77361
1.7705
1.76738
1.76562
1.76406
1.76384
1.76434
1.76624
1.76844
1.77
2.13688
2.14083
2.15068
2.17323
2.21031
2.26923
2.32961
2.3686
2.38004
2.37838
2.36801
2.34903
2.32936
2.3115
2.29734
2.28551
2.27399
2.26273
2.25013
2.23719
2.22299
2.20815
2.19253
2.17612
2.15931
2.14162
2.1238
2.10507
2.0866
2.06738
2.04876
2.02966
2.01129
1.99267
1.9748
1.95701
1.93985
1.92312
1.9072
1.89165
1.87759
1.86381
1.852
1.84095
1.83227
1.82415
1.81739
1.81282
1.81023
1.81006
1.81215
1.81846
1.82749
1.83812
1.84876
1.85789
1.86486
1.86909
1.87103
1.87126
1.87065
1.86982
1.86815
1.86576
1.86305
1.86008
1.85714
1.85368
1.85048
1.84655
1.8431
1.83881
1.83505
1.83057
1.82654
1.82204
1.81784
1.81336
1.80906
1.80456
1.80027
1.79573
1.79151
1.78688
1.78273
1.77813
1.77405
1.76976
1.76598
1.76232
1.75925
1.7568
1.75515
1.7544
1.75454
1.75589
1.7579
1.7623
1.76862
1.77302
2.13052
2.14776
2.17758
2.22296
2.28905
2.34714
2.38014
2.39041
2.38791
2.37442
2.3528
2.3323
2.31453
2.30053
2.28865
2.2786
2.26798
2.25688
2.24456
2.23131
2.21757
2.2025
2.18748
2.1708
2.15461
2.13654
2.11948
2.10044
2.08307
2.06361
2.04618
2.0268
2.00924
1.9903
1.97278
1.95452
1.93742
1.92014
1.90382
1.88775
1.87264
1.85784
1.84442
1.83159
1.82026
1.81037
1.80192
1.79426
1.78816
1.78457
1.78333
1.78372
1.7872
1.79471
1.80506
1.81649
1.82716
1.83587
1.84199
1.84549
1.84663
1.84632
1.84566
1.84447
1.84205
1.83931
1.83623
1.83315
1.82996
1.82659
1.82316
1.81951
1.81575
1.81183
1.80773
1.80361
1.79937
1.79514
1.7909
1.78656
1.78242
1.77799
1.77401
1.76958
1.76574
1.76149
1.75787
1.75405
1.75097
1.74807
1.74619
1.74488
1.74481
1.74538
1.74704
1.75052
1.75498
1.76416
1.776
1.7841
2.12469
2.17337
2.23732
2.30964
2.36892
2.39852
2.40231
2.39707
2.37885
2.35605
2.33399
2.31722
2.3035
2.29201
2.28138
2.27095
2.26031
2.24871
2.23658
2.22332
2.20965
2.19508
2.18012
2.1643
2.14815
2.13115
2.114
2.09617
2.07832
2.06016
2.04189
2.02381
2.00549
1.98779
1.96974
1.95249
1.93495
1.91821
1.90141
1.88514
1.86915
1.85395
1.83912
1.82551
1.81222
1.80087
1.78983
1.78125
1.77266
1.76607
1.76107
1.75888
1.75891
1.76069
1.76601
1.77479
1.78611
1.79756
1.80807
1.8163
1.82175
1.82438
1.82496
1.82451
1.82353
1.82154
1.81874
1.81574
1.81249
1.80931
1.80573
1.80248
1.79861
1.79518
1.79099
1.78733
1.78291
1.77914
1.77463
1.77077
1.76637
1.76242
1.75828
1.75438
1.75058
1.74689
1.74361
1.74053
1.73817
1.73653
1.73584
1.73602
1.73711
1.73924
1.74283
1.75036
1.76043
1.77421
1.78979
1.79928
2.13864
2.2412
2.339
2.39736
2.41883
2.41879
2.4076
2.3835
2.35731
2.33536
2.31803
2.30458
2.29398
2.28336
2.27344
2.26281
2.25206
2.2404
2.22804
2.21505
2.20138
2.18731
2.17255
2.15728
2.14128
2.12488
2.10781
2.09066
2.07299
2.05544
2.03765
2.02006
2.00239
1.98489
1.9673
1.95
1.93282
1.91581
1.8992
1.88278
1.86701
1.85136
1.83645
1.82195
1.8081
1.79522
1.78299
1.77233
1.76264
1.75437
1.74686
1.74141
1.73806
1.73773
1.73858
1.74185
1.74911
1.75962
1.77174
1.78366
1.7938
1.80124
1.80557
1.80718
1.80688
1.80616
1.80469
1.80176
1.79844
1.795
1.79129
1.7879
1.78398
1.78064
1.77657
1.77314
1.76885
1.76526
1.76086
1.75708
1.75278
1.74892
1.74487
1.74115
1.7376
1.7343
1.7316
1.72934
1.72823
1.7279
1.72842
1.72981
1.73249
1.73808
1.74614
1.75909
1.77354
1.78986
1.8062
1.81468
2.17859
2.35233
2.43584
2.45403
2.44663
2.42722
2.39499
2.3648
2.3401
2.32117
2.30749
2.29684
2.2876
2.27797
2.26765
2.25658
2.24466
2.23238
2.21939
2.20617
2.19252
2.17838
2.16394
2.14873
2.13316
2.11699
2.10055
2.08376
2.06674
2.04972
2.03242
2.01528
1.99805
1.98106
1.96421
1.94752
1.93094
1.91439
1.89825
1.88199
1.86641
1.85077
1.83584
1.82118
1.80706
1.79368
1.78083
1.76908
1.75819
1.7487
1.74014
1.73211
1.72604
1.72162
1.72075
1.72151
1.72395
1.7295
1.73845
1.75052
1.76313
1.77476
1.78405
1.79025
1.79308
1.79372
1.79302
1.79138
1.78929
1.78522
1.78205
1.7777
1.77427
1.76995
1.76626
1.76208
1.75813
1.75406
1.74993
1.74595
1.74175
1.73794
1.73401
1.73057
1.72738
1.72476
1.72297
1.72203