/*--------------------------------*- C++ -*----------------------------------*\
  =========                 |
  \\      /  F ield         | OpenFOAM: The Open Source CFD Toolbox
   \\    /   O peration     | Website:  https://openfoam.org
    \\  /    A nd           | Version:  13
     \\/     M anipulation  |
\*---------------------------------------------------------------------------*/
FoamFile
{
    format      ascii;
    class       volVectorField;
    location    "7.5";
    object      U;
}
// * * * * * * * * * * * * * * * * * * * * * * * * * * * * * * * * * * * * * //

dimensions      [0 1 -1 0 0 0 0];

internalField   nonuniform List<vector> 
5250
(
(3 1.02599e-08 0)
(2.99998 8.1437e-08 0)
(2.99996 2.40573e-07 0)
(2.99989 7.68236e-07 0)
(2.99973 1.71613e-06 0)
(2.99934 4.94892e-06 0)
(2.99837 9.88069e-06 0)
(2.99598 3.24587e-05 0)
(2.99002 6.2087e-05 0)
(2.97503 0.000193298 0)
(2.93567 0.000427293 0)
(2.82641 0.00120271 0)
(2.50654 0.00325076 0)
(1.60586 0.00946296 0)
(0.725926 0.0235974 0)
(0.520224 0.0234339 0)
(0.555693 0.0239448 0)
(0.555483 0.0256689 0)
(0.502615 0.0274864 0)
(0.416097 0.0294254 0)
(0.333777 0.0317936 0)
(0.265222 0.0345781 0)
(0.196035 0.0375198 0)
(0.117615 0.0409527 0)
(0.0515083 0.04584 0)
(3 1.43246e-08 0)
(2.99998 3.04733e-07 0)
(2.99996 4.28701e-07 0)
(2.99989 2.96138e-06 0)
(2.99974 3.35182e-06 0)
(2.99935 1.85881e-05 0)
(2.99839 2.39952e-05 0)
(2.99603 0.000110188 0)
(2.99015 0.000173935 0)
(2.97533 0.000617434 0)
(2.93651 0.00129031 0)
(2.82875 0.00373112 0)
(2.51333 0.0100797 0)
(1.62205 0.0293408 0)
(0.73556 0.0717443 0)
(0.517518 0.0675696 0)
(0.554631 0.0661357 0)
(0.555343 0.0689218 0)
(0.502351 0.071927 0)
(0.415921 0.0753104 0)
(0.333638 0.0793386 0)
(0.264562 0.0837859 0)
(0.194417 0.0879407 0)
(0.114758 0.0919835 0)
(0.0482525 0.0959845 0)
(3 6.2433e-08 0)
(2.99998 3.81709e-07 0)
(2.99996 1.21148e-06 0)
(2.9999 3.76164e-06 0)
(2.99975 9.08261e-06 0)
(2.99936 2.37499e-05 0)
(2.99844 6.20087e-05 0)
(2.99611 0.000140639 0)
(2.99044 0.000391185 0)
(2.97595 0.000893716 0)
(2.93829 0.00239552 0)
(2.83366 0.00615625 0)
(2.52804 0.017347 0)
(1.65802 0.0501642 0)
(0.758071 0.124263 0)
(0.513849 0.114584 0)
(0.555154 0.110947 0)
(0.558449 0.115922 0)
(0.505788 0.121577 0)
(0.42003 0.128369 0)
(0.338142 0.135887 0)
(0.268674 0.143921 0)
(0.197524 0.151624 0)
(0.116415 0.158663 0)
(0.0479837 0.163879 0)
(3 9.39411e-08 0)
(2.99999 5.01742e-07 0)
(2.99996 1.92972e-06 0)
(2.9999 4.97688e-06 0)
(2.99975 1.42362e-05 0)
(2.99939 3.32318e-05 0)
(2.99849 9.06568e-05 0)
(2.9963 0.000203255 0)
(2.99078 0.000555777 0)
(2.97699 0.00126738 0)
(2.94092 0.00338994 0)
(2.84112 0.00867366 0)
(2.55037 0.0243729 0)
(1.71423 0.0704492 0)
(0.793171 0.177567 0)
(0.508654 0.161006 0)
(0.557403 0.154764 0)
(0.56526 0.162095 0)
(0.513426 0.170625 0)
(0.428808 0.181208 0)
(0.347451 0.192639 0)
(0.277663 0.204805 0)
(0.205358 0.216827 0)
(0.121907 0.227666 0)
(0.049907 0.234571 0)
(3 1.06066e-07 0)
(2.99999 6.61364e-07 0)
(2.99996 2.40971e-06 0)
(2.99991 6.4383e-06 0)
(2.99977 1.7756e-05 0)
(2.99942 4.43026e-05 0)
(2.99859 0.000108951 0)
(2.99649 0.00028018 0)
(2.99133 0.000664459 0)
(2.97831 0.00170561 0)
(2.94447 0.00423817 0)
(2.85112 0.011197 0)
(2.57992 0.0309881 0)
(1.79108 0.0898559 0)
(0.841014 0.231563 0)
(0.502572 0.207183 0)
(0.562066 0.198007 0)
(0.576205 0.207571 0)
(0.525495 0.218834 0)
(0.442458 0.233213 0)
(0.361725 0.248798 0)
(0.291645 0.265603 0)
(0.217905 0.282698 0)
(0.131088 0.298394 0)
(0.0537563 0.307985 0)
(3 1.27025e-07 0)
(2.99999 7.9164e-07 0)
(2.99997 2.83821e-06 0)
(2.99991 7.69544e-06 0)
(2.99978 2.09893e-05 0)
(2.99947 5.20576e-05 0)
(2.99868 0.000129359 0)
(2.99676 0.00033059 0)
(2.99196 0.000789063 0)
(2.97998 0.00204769 0)
(2.94881 0.0050454 0)
(2.86354 0.0134059 0)
(2.61614 0.0369918 0)
(1.88967 0.107268 0)
(0.903289 0.284716 0)
(0.498588 0.253922 0)
(0.571187 0.241491 0)
(0.592773 0.252851 0)
(0.543217 0.26668 0)
(0.462056 0.285176 0)
(0.382029 0.305519 0)
(0.311671 0.327904 0)
(0.236343 0.351552 0)
(0.145113 0.374246 0)
(0.0602665 0.388886 0)
(3 1.2795e-07 0)
(2.99999 9.57348e-07 0)
(2.99997 2.88849e-06 0)
(2.99992 9.40982e-06 0)
(2.99981 2.18418e-05 0)
(2.99951 6.20295e-05 0)
(2.99882 0.000139562 0)
(2.99704 0.00038172 0)
(2.99276 0.000874475 0)
(2.98186 0.00232092 0)
(2.95392 0.00564403 0)
(2.87787 0.0150649 0)
(2.65853 0.0414035 0)
(2.00881 0.120211 0)
(0.983517 0.331084 0)
(0.503716 0.302486 0)
(0.588021 0.28764 0)
(0.617104 0.298958 0)
(0.568705 0.314371 0)
(0.489746 0.337253 0)
(0.410351 0.363068 0)
(0.33979 0.39232 0)
(0.263001 0.424575 0)
(0.166634 0.457821 0)
(0.0711861 0.482485 0)
(3 1.43976e-07 0)
(2.99999 9.33326e-07 0)
(2.99997 3.09634e-06 0)
(2.99993 9.18719e-06 0)
(2.99983 2.33232e-05 0)
(2.99957 6.06811e-05 0)
(2.99895 0.000150815 0)
(2.99738 0.000374154 0)
(2.99358 0.000940247 0)
(2.98395 0.00232809 0)
(2.95945 0.0059208 0)
(2.89338 0.0154321 0)
(2.70464 0.0426157 0)
(2.14456 0.123809 0)
(1.08848 0.356391 0)
(0.533533 0.348767 0)
(0.618356 0.338298 0)
(0.651817 0.347204 0)
(0.604787 0.362933 0)
(0.528424 0.389949 0)
(0.449432 0.421816 0)
(0.378776 0.459335 0)
(0.301314 0.502676 0)
(0.200427 0.551773 0)
(0.0904375 0.59716 0)
(3 1.35634e-07 0)
(2.99999 8.35204e-07 0)
(2.99998 2.92964e-06 0)
(2.99994 8.16492e-06 0)
(2.99985 2.1817e-05 0)
(2.99962 5.42901e-05 0)
(2.99908 0.000138441 0)
(2.9977 0.000337233 0)
(2.99439 0.000850956 0)
(2.98601 0.00209184 0)
(2.96487 0.00528134 0)
(2.90851 0.0136121 0)
(2.74983 0.0369811 0)
(2.28366 0.106102 0)
(1.22214 0.315269 0)
(0.596529 0.37691 0)
(0.662734 0.391239 0)
(0.69395 0.395524 0)
(0.650309 0.413504 0)
(0.57812 0.443349 0)
(0.500595 0.482124 0)
(0.431051 0.528472 0)
(0.355802 0.585103 0)
(0.255729 0.659071 0)
(0.126461 0.747805 0)
(3 1.28289e-07 0)
(2.99999 7.07013e-07 0)
(2.99998 2.74161e-06 0)
(2.99995 6.84609e-06 0)
(2.99987 2.02277e-05 0)
(2.99966 4.55806e-05 0)
(2.99919 0.000125477 0)
(2.99797 0.00028362 0)
(2.99504 0.000750352 0)
(2.98764 0.00175772 0)
(2.96906 0.00451031 0)
(2.91981 0.0112732 0)
(2.78165 0.0301693 0)
(2.37608 0.0843275 0)
(1.34837 0.250216 0)
(0.648615 0.415784 0)
(0.682972 0.448648 0)
(0.715119 0.446937 0)
(0.688886 0.466313 0)
(0.628818 0.496745 0)
(0.559466 0.542169 0)
(0.495758 0.596898 0)
(0.432097 0.671554 0)
(0.349231 0.78723 0)
(0.195826 0.993347 0)
(3 1.22692e-07 0)
(2.99999 6.57491e-07 0)
(2.99998 2.54268e-06 0)
(2.99995 6.41024e-06 0)
(2.99988 1.86801e-05 0)
(2.99971 4.22779e-05 0)
(2.99928 0.000117677 0)
(2.99822 0.000259491 0)
(2.99561 0.000713746 0)
(2.98914 0.00160189 0)
(2.97278 0.00425984 0)
(2.92987 0.0103712 0)
(2.81005 0.0279003 0)
(2.45987 0.0773149 0)
(1.51163 0.227583 0)
(0.74041 0.468887 0)
(0.690437 0.495153 0)
(0.721731 0.493363 0)
(0.716777 0.512976 0)
(0.674974 0.54538 0)
(0.621344 0.595032 0)
(0.573388 0.65862 0)
(0.540955 0.749452 0)
(0.53763 0.89182 0)
(0.571364 1.13281 0)
(3 1.05822e-07 0)
(2.99999 6.71252e-07 0)
(2.99998 2.29933e-06 0)
(2.99996 6.57061e-06 0)
(2.9999 1.70997e-05 0)
(2.99975 4.35542e-05 0)
(2.99937 0.000108016 0)
(2.99847 0.000268485 0)
(2.99616 0.000660835 0)
(2.9906 0.0016376 0)
(2.97636 0.0040551 0)
(2.93948 0.0102835 0)
(2.83727 0.0270031 0)
(2.53992 0.0751435 0)
(1.69811 0.218728 0)
(0.858835 0.513606 0)
(0.697492 0.525637 0)
(0.729701 0.528044 0)
(0.741901 0.547818 0)
(0.717929 0.585016 0)
(0.683877 0.637254 0)
(0.657961 0.707698 0)
(0.65861 0.804941 0)
(0.711667 0.940728 0)
(0.838923 1.11841 0)
(3 9.77119e-08 0)
(2.99999 6.86482e-07 0)
(2.99999 2.18061e-06 0)
(2.99996 6.72401e-06 0)
(2.99991 1.63104e-05 0)
(2.99978 4.45891e-05 0)
(2.99946 0.000103494 0)
(2.99868 0.000274266 0)
(2.99676 0.000639724 0)
(2.99197 0.00166364 0)
(2.97999 0.00399681 0)
(2.94898 0.0103081 0)
(2.86407 0.0267293 0)
(2.61898 0.0742196 0)
(1.90363 0.214924 0)
(1.00187 0.552285 0)
(0.712905 0.554745 0)
(0.744461 0.557313 0)
(0.769741 0.574688 0)
(0.761835 0.615465 0)
(0.74547 0.670201 0)
(0.741799 0.741348 0)
(0.76638 0.832934 0)
(0.84079 0.943947 0)
(0.983034 1.05265 0)
(3 9.92199e-08 0)
(3 6.49706e-07 0)
(2.99999 2.1422e-06 0)
(2.99997 6.35574e-06 0)
(2.99993 1.6e-05 0)
(2.99982 4.2027e-05 0)
(2.99956 0.000102889 0)
(2.99891 0.000258517 0)
(2.99732 0.000642525 0)
(2.99339 0.0015801 0)
(2.98357 0.00399169 0)
(2.9584 0.00998675 0)
(2.89064 0.0262012 0)
(2.69692 0.0720595 0)
(2.12431 0.20921 0)
(1.17409 0.57803 0)
(0.754946 0.591999 0)
(0.775676 0.594997 0)
(0.806835 0.602536 0)
(0.811582 0.640254 0)
(0.806974 0.694571 0)
(0.817728 0.761075 0)
(0.856321 0.839429 0)
(0.935232 0.925163 0)
(1.06918 0.995581 0)
(3 8.96916e-08 0)
(3 5.40189e-07 0)
(2.99999 1.95133e-06 0)
(2.99998 5.26933e-06 0)
(2.99994 1.44771e-05 0)
(2.99986 3.52755e-05 0)
(2.99965 9.06047e-05 0)
(2.99913 0.000221321 0)
(2.99786 0.000549973 0)
(2.99476 0.00136994 0)
(2.987 0.00337403 0)
(2.96749 0.00852529 0)
(2.91599 0.0218602 0)
(2.7725 0.0593201 0)
(2.35516 0.169921 0)
(1.40208 0.500478 0)
(0.854714 0.609918 0)
(0.834582 0.632301 0)
(0.855775 0.638739 0)
(0.869461 0.666216 0)
(0.870666 0.713504 0)
(0.887041 0.771789 0)
(0.93073 0.836524 0)
(1.00766 0.902382 0)
(1.12803 0.95319 0)
(3 7.4244e-08 0)
(3 4.50469e-07 0)
(2.99999 1.60397e-06 0)
(2.99998 4.39399e-06 0)
(2.99995 1.18236e-05 0)
(2.99988 2.90717e-05 0)
(2.99971 7.36952e-05 0)
(2.9993 0.000178352 0)
(2.99828 0.000444549 0)
(2.99575 0.00108129 0)
(2.98953 0.00267636 0)
(2.97383 0.00658793 0)
(2.93287 0.0166975 0)
(2.81979 0.0437602 0)
(2.4921 0.121689 0)
(1.62129 0.363154 0)
(0.948173 0.638064 0)
(0.876284 0.671097 0)
(0.894116 0.682752 0)
(0.917666 0.696191 0)
(0.928736 0.731789 0)
(0.949179 0.779597 0)
(0.993551 0.831933 0)
(1.06593 0.882851 0)
(1.17213 0.921457 0)
(3 5.96758e-08 0)
(3 4.01187e-07 0)
(2.99999 1.30944e-06 0)
(2.99998 3.9136e-06 0)
(2.99996 9.73897e-06 0)
(2.99991 2.57082e-05 0)
(2.99977 6.1577e-05 0)
(2.99944 0.000156362 0)
(2.99861 0.000376869 0)
(2.99662 0.000940377 0)
(2.99159 0.00228835 0)
(2.97916 0.00571339 0)
(2.94682 0.0142756 0)
(2.85864 0.0373362 0)
(2.60493 0.102677 0)
(1.88088 0.300212 0)
(1.09661 0.679455 0)
(0.905306 0.7062 0)
(0.91857 0.717891 0)
(0.950363 0.721692 0)
(0.976312 0.747402 0)
(1.0027 0.78596 0)
(1.04687 0.828115 0)
(1.11414 0.867784 0)
(1.20754 0.897496 0)
(3 5.21239e-08 0)
(3 3.42426e-07 0)
(3 1.14178e-06 0)
(2.99999 3.34008e-06 0)
(2.99997 8.50757e-06 0)
(2.99993 2.20691e-05 0)
(2.99982 5.37907e-05 0)
(2.99956 0.000136076 0)
(2.99893 0.000330103 0)
(2.99734 0.000829284 0)
(2.99351 0.00202806 0)
(2.9838 0.00507439 0)
(2.95921 0.012739 0)
(2.89303 0.0331008 0)
(2.70518 0.0906749 0)
(2.15198 0.262686 0)
(1.29367 0.689774 0)
(0.95543 0.736109 0)
(0.950472 0.743303 0)
(0.981497 0.743663 0)
(1.01877 0.75897 0)
(1.05031 0.789814 0)
(1.09339 0.824495 0)
(1.15523 0.856121 0)
(1.2376 0.879321 0)
(3 4.46212e-08 0)
(3 2.74253e-07 0)
(3 9.59392e-07 0)
(2.99999 2.67585e-06 0)
(2.99998 7.1118e-06 0)
(2.99995 1.76555e-05 0)
(2.99986 4.4972e-05 0)
(2.99967 0.000108422 0)
(2.99919 0.000275087 0)
(2.99804 0.000658027 0)
(2.99513 0.00167294 0)
(2.98809 0.00403597 0)
(2.97018 0.0102604 0)
(2.92356 0.0260414 0)
(2.79528 0.0702136 0)
(2.4228 0.200408 0)
(1.56574 0.580351 0)
(1.06361 0.740896 0)
(1.00682 0.762389 0)
(1.02303 0.769182 0)
(1.06139 0.774169 0)
(1.09689 0.795441 0)
(1.13733 0.822759 0)
(1.19272 0.847912 0)
(1.26504 0.866071 0)
(3 3.3298e-08 0)
(3 2.1715e-07 0)
(3 7.38205e-07 0)
(2.99999 2.11206e-06 0)
(2.99998 5.44933e-06 0)
(2.99996 1.40056e-05 0)
(2.9999 3.37127e-05 0)
(2.99975 8.62343e-05 0)
(2.99939 0.000202078 0)
(2.9985 0.000519478 0)
(2.99632 0.0012111 0)
(2.99096 0.00310634 0)
(2.97754 0.00739636 0)
(2.94286 0.0189717 0)
(2.84847 0.0488464 0)
(2.578 0.134987 0)
(1.84002 0.401075 0)
(1.18345 0.744232 0)
(1.05152 0.781175 0)
(1.05803 0.796176 0)
(1.09521 0.795554 0)
(1.13683 0.805391 0)
(1.17711 0.824626 0)
(1.22722 0.843838 0)
(1.2909 0.857632 0)
(3 2.82319e-08 0)
(3 1.67724e-07 0)
(3 6.03511e-07 0)
(2.99999 1.63336e-06 0)
(2.99999 4.46659e-06 0)
(2.99997 1.08254e-05 0)
(2.99992 2.79583e-05 0)
(2.99981 6.65902e-05 0)
(2.99955 0.000169025 0)
(2.99888 0.000404987 0)
(2.99728 0.00101639 0)
(2.99324 0.00246737 0)
(2.98338 0.00617394 0)
(2.95795 0.0153495 0)
(2.88999 0.0398952 0)
(2.6976 0.108465 0)
(2.13525 0.316413 0)
(1.36618 0.760479 0)
(1.09919 0.813354 0)
(1.09086 0.822084 0)
(1.12165 0.818495 0)
(1.16864 0.817469 0)
(1.21221 0.828926 0)
(1.25894 0.842888 0)
(1.31549 0.852995 0)
(3 2.08959e-08 0)
(3 1.33224e-07 0)
(3 4.51567e-07 0)
(3 1.29778e-06 0)
(2.99999 3.35716e-06 0)
(2.99998 8.52227e-06 0)
(2.99994 2.12174e-05 0)
(2.99987 5.19263e-05 0)
(2.99967 0.00012945 0)
(2.99921 0.000312959 0)
(2.99804 0.000784663 0)
(2.99526 0.00189453 0)
(2.98827 0.00476416 0)
(2.97095 0.0117173 0)
(2.92566 0.0301743 0)
(2.80213 0.0805802 0)
(2.44369 0.230875 0)
(1.64933 0.643684 0)
(1.20497 0.812794 0)
(1.14458 0.835444 0)
(1.15791 0.840082 0)
(1.20089 0.833467 0)
(1.2464 0.836594 0)
(1.29005 0.844919 0)
(1.34011 0.851514 0)
(3 1.53706e-08 0)
(3 9.88012e-08 0)
(3 3.37713e-07 0)
(3 9.61799e-07 0)
(2.99999 2.48946e-06 0)
(2.99998 6.34735e-06 0)
(2.99996 1.5412e-05 0)
(2.9999 3.88041e-05 0)
(2.99977 9.23071e-05 0)
(2.99942 0.00023289 0)
(2.9986 0.000550307 0)
(2.99656 0.00139011 0)
(2.99156 0.00329956 0)
(2.9791 0.00831803 0)
(2.94714 0.0204598 0)
(2.86087 0.0534783 0)
(2.61604 0.146009 0)
(1.94772 0.431101 0)
(1.33398 0.79809 0)
(1.19184 0.847333 0)
(1.19112 0.862736 0)
(1.22706 0.856448 0)
(1.27524 0.849104 0)
(1.31873 0.850142 0)
(1.36429 0.852787 0)
(3 1.19767e-08 0)
(3 7.26438e-08 0)
(3 2.58343e-07 0)
(3 7.07012e-07 0)
(3 1.90264e-06 0)
(2.99999 4.67236e-06 0)
(2.99997 1.18242e-05 0)
(2.99993 2.86377e-05 0)
(2.99983 7.10024e-05 0)
(2.99959 0.000172651 0)
(2.99901 0.000424363 0)
(2.99755 0.00104012 0)
(2.99404 0.00254498 0)
(2.98522 0.00630689 0)
(2.96306 0.0156273 0)
(2.90427 0.0402417 0)
(2.74012 0.108229 0)
(2.26162 0.313944 0)
(1.54299 0.762906 0)
(1.2569 0.863158 0)
(1.22925 0.880982 0)
(1.24994 0.879744 0)
(1.29601 0.866397 0)
(1.34308 0.859452 0)
(1.38727 0.857155 0)
(3 8.36491e-09 0)
(3 5.49373e-08 0)
(3 1.82318e-07 0)
(3 5.34731e-07 0)
(3 1.34891e-06 0)
(2.99999 3.50511e-06 0)
(2.99998 8.46755e-06 0)
(2.99995 2.12882e-05 0)
(2.99989 5.14593e-05 0)
(2.99972 0.000127157 0)
(2.99932 0.000310653 0)
(2.99832 0.000758985 0)
(2.99595 0.00187649 0)
(2.99 0.00457862 0)
(2.97537 0.0114203 0)
(2.93746 0.0288076 0)
(2.83535 0.0761879 0)
(2.54129 0.214922 0)
(1.84204 0.604716 0)
(1.37428 0.854978 0)
(1.2823 0.888213 0)
(1.28314 0.898256 0)
(1.3181 0.886477 0)
(1.36489 0.87185 0)
(1.4089 0.86468 0)
(3 6.18658e-09 0)
(3 3.89375e-08 0)
(3 1.33358e-07 0)
(3 3.78506e-07 0)
(3 9.85548e-07 0)
(2.99999 2.4764e-06 0)
(2.99999 6.1603e-06 0)
(2.99997 1.50107e-05 0)
(2.99992 3.71292e-05 0)
(2.99981 8.9713e-05 0)
(2.99953 0.000222059 0)
(2.99886 0.00053487 0)
(2.99722 0.00132635 0)
(2.99317 0.00321075 0)
(2.98323 0.00797474 0)
(2.95788 0.0197477 0)
(2.89079 0.0509209 0)
(2.70264 0.137931 0)
(2.16994 0.403372 0)
(1.54323 0.834967 0)
(1.33656 0.903449 0)
(1.31753 0.914557 0)
(1.33707 0.906926 0)
(1.38157 0.88803 0)
(1.42826 0.875165 0)
(3 4.47455e-09 0)
(3 2.69237e-08 0)
(3 9.59991e-08 0)
(3 2.61599e-07 0)
(3 7.06627e-07 0)
(3 1.71948e-06 0)
(2.99999 4.38744e-06 0)
(2.99998 1.04666e-05 0)
(2.99995 2.62482e-05 0)
(2.99987 6.28376e-05 0)
(2.99969 0.00015562 0)
(2.99924 0.00037657 0)
(2.99818 0.000923263 0)
(2.99554 0.00225907 0)
(2.98913 0.00552713 0)
(2.9731 0.0137174 0)
(2.93196 0.0346296 0)
(2.8211 0.0919299 0)
(2.50042 0.262501 0)
(1.82435 0.686538 0)
(1.4393 0.882739 0)
(1.36907 0.912684 0)
(1.36875 0.919787 0)
(1.40178 0.905428 0)
(1.4471 0.885583 0)
(3 3.01737e-09 0)
(3 1.86045e-08 0)
(3 6.49619e-08 0)
(3 1.8058e-07 0)
(3 4.7741e-07 0)
(3 1.18137e-06 0)
(2.99999 2.96183e-06 0)
(2.99999 7.13972e-06 0)
(2.99997 1.77099e-05 0)
(2.99991 4.24499e-05 0)
(2.9998 0.000104794 0)
(2.9995 0.00025182 0)
(2.99879 0.000619142 0)
(2.99701 0.00149383 0)
(2.99276 0.00366872 0)
(2.98209 0.00894663 0)
(2.95527 0.022266 0)
(2.88398 0.0570867 0)
(2.68401 0.15488 0)
(2.13857 0.444806 0)
(1.58027 0.849274 0)
(1.4189 0.915802 0)
(1.4016 0.92922 0)
(1.41892 0.922314 0)
(1.46049 0.899863 0)
(3 1.98105e-09 0)
(3 1.28951e-08 0)
(3 4.29728e-08 0)
(3 1.25289e-07 0)
(3 3.16457e-07 0)
(3 8.16655e-07 0)
(3 1.97435e-06 0)
(2.99999 4.90705e-06 0)
(2.99998 1.18856e-05 0)
(2.99994 2.89855e-05 0)
(2.99987 7.09992e-05 0)
(2.99967 0.000170638 0)
(2.99921 0.000423601 0)
(2.99808 0.00100848 0)
(2.99534 0.00252408 0)
(2.98857 0.00605008 0)
(2.97181 0.015181 0)
(2.92843 0.0380571 0)
(2.81148 0.101077 0)
(2.47232 0.288453 0)
(1.8368 0.72145 0)
(1.5052 0.897936 0)
(1.4458 0.927644 0)
(1.44527 0.933567 0)
(1.47598 0.917958 0)
(3 1.37678e-09 0)
(3 8.42576e-09 0)
(3 2.95892e-08 0)
(3 8.17758e-08 0)
(3 2.16877e-07 0)
(3 5.34422e-07 0)
(3 1.34235e-06 0)
(2.99999 3.22646e-06 0)
(2.99999 7.99747e-06 0)
(2.99996 1.91687e-05 0)
(2.99991 4.71823e-05 0)
(2.99979 0.000113625 0)
(2.99949 0.000277624 0)
(2.99876 0.00067327 0)
(2.99696 0.00163858 0)
(2.99263 0.00400396 0)
(2.98186 0.00978758 0)
(2.95468 0.0243908 0)
(2.88288 0.0626175 0)
(2.68088 0.171018 0)
(2.1482 0.484793 0)
(1.64 0.862928 0)
(1.49395 0.929775 0)
(1.47516 0.942232 0)
(1.48976 0.935282 0)
(3 9.2377e-10 0)
(3 5.5346e-09 0)
(3 1.97931e-08 0)
(3 5.36284e-08 0)
(3 1.45008e-07 0)
(3 3.50843e-07 0)
(3 8.95244e-07 0)
(3 2.12396e-06 0)
(2.99999 5.31365e-06 0)
(2.99998 1.26471e-05 0)
(2.99995 3.12649e-05 0)
(2.99987 7.51184e-05 0)
(2.99968 0.000183379 0)
(2.99921 0.00044633 0)
(2.99811 0.00107826 0)
(2.99536 0.00265377 0)
(2.98876 0.00641331 0)
(2.97217 0.0159499 0)
(2.92975 0.0400198 0)
(2.81541 0.106007 0)
(2.48569 0.302375 0)
(1.88908 0.731071 0)
(1.57678 0.909133 0)
(1.51602 0.940107 0)
(1.51279 0.94457 0)
(3 5.81014e-10 0)
(3 3.67683e-09 0)
(3 1.25284e-08 0)
(3 3.56099e-08 0)
(3 9.20126e-08 0)
(3 2.31571e-07 0)
(3 5.69952e-07 0)
(3 1.39022e-06 0)
(2.99999 3.40665e-06 0)
(2.99999 8.19328e-06 0)
(2.99997 2.01581e-05 0)
(2.99992 4.81678e-05 0)
(2.9998 0.000119043 0)
(2.9995 0.000283274 0)
(2.9988 0.00070176 0)
(2.99708 0.00167461 0)
(2.99293 0.00414774 0)
(2.98261 0.0100289 0)
(2.95674 0.0250731 0)
(2.88869 0.0640648 0)
(2.69804 0.174628 0)
(2.20007 0.488514 0)
(1.71347 0.868573 0)
(1.56278 0.940167 0)
(1.53971 0.950321 0)
(3 3.6775e-10 0)
(3 2.37215e-09 0)
(3 8.0017e-09 0)
(3 2.29737e-08 0)
(3 5.87203e-08 0)
(3 1.49594e-07 0)
(3 3.62058e-07 0)
(3 8.99514e-07 0)
(3 2.15586e-06 0)
(2.99999 5.3096e-06 0)
(2.99998 1.27241e-05 0)
(2.99995 3.11879e-05 0)
(2.99987 7.50813e-05 0)
(2.9997 0.00018301 0)
(2.99927 0.000442772 0)
(2.99823 0.00107622 0)
(2.99571 0.0026198 0)
(2.98957 0.00638304 0)
(2.97446 0.0156979 0)
(2.93585 0.0394901 0)
(2.83324 0.103635 0)
(2.53869 0.294488 0)
(1.97147 0.711542 0)
(1.64933 0.908215 0)
(1.57876 0.942899 0)
(3 2.38756e-10 0)
(3 1.47822e-09 0)
(3 5.12668e-09 0)
(3 1.4321e-08 0)
(3 3.74588e-08 0)
(3 9.30028e-08 0)
(3 2.31005e-07 0)
(3 5.56662e-07 0)
(3 1.37168e-06 0)
(2.99999 3.2708e-06 0)
(2.99999 8.05888e-06 0)
(2.99997 1.91487e-05 0)
(2.99992 4.71429e-05 0)
(2.99981 0.000112129 0)
(2.99955 0.000275385 0)
(2.99889 0.000656401 0)
(2.99735 0.00160969 0)
(2.99349 0.00386171 0)
(2.98423 0.00948803 0)
(2.96074 0.0232101 0)
(2.89981 0.059224 0)
(2.73111 0.15891 0)
(2.28174 0.442467 0)
(1.79268 0.839591 0)
(1.62011 0.930207 0)
(3 1.43874e-10 0)
(3 9.39394e-10 0)
(3 3.13969e-09 0)
(3 9.08136e-09 0)
(3 2.30613e-08 0)
(3 5.88598e-08 0)
(3 1.42048e-07 0)
(3 3.52096e-07 0)
(3 8.41428e-07 0)
(3 2.06591e-06 0)
(2.99999 4.95232e-06 0)
(2.99998 1.20567e-05 0)
(2.99995 2.90886e-05 0)
(2.99989 7.02151e-05 0)
(2.99972 0.000171168 0)
(2.99934 0.000409125 0)
(2.99838 0.00100626 0)
(2.99613 0.00240154 0)
(2.99054 0.00592994 0)
(2.97699 0.0143658 0)
(2.94245 0.0361256 0)
(2.85138 0.093785 0)
(2.59256 0.262679 0)
(2.05475 0.658705 0)
(1.70454 0.890005 0)
(3 9.27784e-11 0)
(3 5.55884e-10 0)
(3 1.98441e-09 0)
(3 5.37009e-09 0)
(3 1.44703e-08 0)
(3 3.49526e-08 0)
(3 8.84018e-08 0)
(3 2.09369e-07 0)
(3 5.18874e-07 0)
(3 1.23201e-06 0)
(3 3.01189e-06 0)
(2.99999 7.22e-06 0)
(2.99997 1.7429e-05 0)
(2.99993 4.2247e-05 0)
(2.99983 0.000100726 0)
(2.99959 0.000246988 0)
(2.99901 0.000582703 0)
(2.99759 0.00144132 0)
(2.99419 0.00339973 0)
(2.98582 0.00843045 0)
(2.96504 0.0203403 0)
(2.91129 0.0517913 0)
(2.76491 0.137114 0)
(2.36804 0.38509 0)
(1.85565 0.776823 0)
(3 5.41619e-11 0)
(3 3.37129e-10 0)
(3 1.15622e-09 0)
(3 3.25794e-09 0)
(3 8.41902e-09 0)
(3 2.09966e-08 0)
(3 5.16925e-08 0)
(3 1.24109e-07 0)
(3 3.05561e-07 0)
(3 7.18966e-07 0)
(3 1.78247e-06 0)
(2.99999 4.15698e-06 0)
(2.99998 1.03404e-05 0)
(2.99996 2.4066e-05 0)
(2.99989 5.9673e-05 0)
(2.99974 0.000139759 0)
(2.99938 0.000343787 0)
(2.99848 0.000812192 0)
(2.99636 0.00198378 0)
(2.99108 0.00475269 0)
(2.97829 0.0116121 0)
(2.94572 0.0286882 0)
(2.86012 0.0739788 0)
(2.62133 0.205096 0)
(2.08684 0.535087 0)
(3 2.89303e-11 0)
(3 1.94322e-10 0)
(3 6.35114e-10 0)
(3 1.86896e-09 0)
(3 4.61652e-09 0)
(3 1.19686e-08 0)
(3 2.79292e-08 0)
(3 7.02511e-08 0)
(3 1.62418e-07 0)
(3 4.0222e-07 0)
(3 9.34092e-07 0)
(2.99999 2.28078e-06 0)
(2.99999 5.3543e-06 0)
(2.99997 1.28494e-05 0)
(2.99993 3.0599e-05 0)
(2.99982 7.20315e-05 0)
(2.99957 0.000174445 0)
(2.99896 0.000402446 0)
(2.99747 0.00098883 0)
(2.99384 0.0022642 0)
(2.9849 0.00558101 0)
(2.96252 0.0131258 0)
(2.90417 0.0329637 0)
(2.74586 0.0857529 0)
(2.32086 0.243896 0)
(3 1.57702e-11 0)
(3 1.00498e-10 0)
(3 3.44657e-10 0)
(3 9.58477e-10 0)
(3 2.47716e-09 0)
(3 6.10385e-09 0)
(3 1.46447e-08 0)
(3 3.56319e-08 0)
(3 8.21311e-08 0)
(3 2.02765e-07 0)
(3 4.52779e-07 0)
(3 1.13564e-06 0)
(2.99999 2.48515e-06 0)
(2.99998 6.26374e-06 0)
(2.99994 1.35945e-05 0)
(2.99986 3.40396e-05 0)
(2.99965 7.39459e-05 0)
(2.99916 0.000182205 0)
(2.99791 0.000399617 0)
(2.9949 0.000961472 0)
(2.98731 0.00214698 0)
(2.96824 0.0050742 0)
(2.91791 0.0117114 0)
(2.77835 0.0283211 0)
(2.38603 0.0718237 0)
(3 8.54991e-12 0)
(3 4.90281e-11 0)
(3 1.80316e-10 0)
(3 4.66594e-10 0)
(3 1.28079e-09 0)
(3 2.94784e-09 0)
(3 7.50173e-09 0)
(3 1.68701e-08 0)
(3 4.1567e-08 0)
(3 9.44916e-08 0)
(3 2.24548e-07 0)
(3 5.23512e-07 0)
(2.99999 1.19935e-06 0)
(2.99998 2.87852e-06 0)
(2.99995 6.31408e-06 0)
(2.99987 1.568e-05 0)
(2.99969 3.28427e-05 0)
(2.99923 8.44321e-05 0)
(2.99812 0.000168206 0)
(2.99529 0.000443308 0)
(2.98832 0.000878578 0)
(2.97039 0.00222129 0)
(2.92296 0.0047896 0)
(2.78966 0.0114846 0)
(2.40282 0.0271138 0)
(3 4.09573e-12 0)
(3 2.49066e-11 0)
(3 8.71196e-11 0)
(3 2.37229e-10 0)
(3 6.23898e-10 0)
(3 1.47318e-09 0)
(3 3.661e-09 0)
(3 8.31092e-09 0)
(3 2.03618e-08 0)
(3 4.53599e-08 0)
(3 1.11803e-07 0)
(3 2.46299e-07 0)
(2.99999 5.99827e-07 0)
(2.99998 1.34194e-06 0)
(2.99995 3.19696e-06 0)
(2.99988 7.29483e-06 0)
(2.99971 1.67762e-05 0)
(2.99927 3.98015e-05 0)
(2.99821 8.74284e-05 0)
(2.99549 0.000213062 0)
(2.98879 0.000459875 0)
(2.97147 0.00109876 0)
(2.92541 0.00251299 0)
(2.79543 0.00594704 0)
(2.41418 0.0144992 0)
(3 1.7533e-12 0)
(3 1.466e-11 0)
(3 3.95415e-11 0)
(3 1.40271e-10 0)
(3 2.87524e-10 0)
(3 8.58528e-10 0)
(3 1.73159e-09 0)
(3 4.7778e-09 0)
(3 9.9425e-09 0)
(3 2.51411e-08 0)
(3 5.75463e-08 0)
(3 1.29288e-07 0)
(2.99999 3.27899e-07 0)
(2.99998 6.61951e-07 0)
(2.99995 1.89336e-06 0)
(2.99989 3.33736e-06 0)
(2.99972 1.08627e-05 0)
(2.99929 1.73061e-05 0)
(2.99826 6.19022e-05 0)
(2.9956 9.33476e-05 0)
(2.98906 0.000331762 0)
(2.97209 0.000574934 0)
(2.92689 0.00167636 0)
(2.79902 0.00376026 0)
(2.42199 0.00964901 0)
(3 1.34452e-12 0)
(3 8.3719e-12 0)
(3 2.599e-11 0)
(3 8.09839e-11 0)
(3 1.84982e-10 0)
(3 4.86913e-10 0)
(3 1.18898e-09 0)
(3 2.55494e-09 0)
(3 7.31383e-09 0)
(3 1.29765e-08 0)
(3 4.39355e-08 0)
(3 6.42837e-08 0)
(2.99999 2.6645e-07 0)
(2.99998 3.2175e-07 0)
(2.99996 1.5769e-06 0)
(2.99989 1.67953e-06 0)
(2.99972 8.93714e-06 0)
(2.99931 9.48137e-06 0)
(2.99827 4.90876e-05 0)
(2.99571 5.72095e-05 0)
(2.98919 0.000257186 0)
(2.97258 0.000397602 0)
(2.92803 0.00128092 0)
(2.80173 0.0028542 0)
(2.42879 0.00752765 0)
(3 1.3388e-12 0)
(3 4.93401e-12 0)
(3 2.71483e-11 0)
(3 4.61928e-11 0)
(3 1.97608e-10 0)
(3 3.10036e-10 0)
(3 1.18845e-09 0)
(3 1.91324e-09 0)
(3 6.57839e-09 0)
(3 1.19982e-08 0)
(3 3.50633e-08 0)
(3 7.5152e-08 0)
(2.99999 1.80445e-07 0)
(2.99998 4.75998e-07 0)
(2.99996 8.73072e-07 0)
(2.99989 2.99403e-06 0)
(2.99973 4.15551e-06 0)
(2.99932 1.7779e-05 0)
(2.9983 1.93822e-05 0)
(2.99577 0.000100857 0)
(2.98934 0.00011097 0)
(2.97295 0.000482421 0)
(2.92888 0.00082533 0)
(2.80408 0.00239133 0)
(2.43423 0.005818 0)
(3 5.97284e-13 0)
(3 6.83017e-12 0)
(3 1.63224e-11 0)
(3 6.51718e-11 0)
(3 1.22263e-10 0)
(3 4.26771e-10 0)
(3 7.27241e-10 0)
(3 2.64635e-09 0)
(3 4.27051e-09 0)
(3 1.52183e-08 0)
(3 2.54409e-08 0)
(3 8.47979e-08 0)
(2.99999 1.47974e-07 0)
(2.99998 4.48639e-07 0)
(2.99996 8.69896e-07 0)
(2.99989 2.24304e-06 0)
(2.99974 5.24211e-06 0)
(2.99933 1.07528e-05 0)
(2.99834 3.03604e-05 0)
(2.99579 5.12435e-05 0)
(2.9895 0.000155448 0)
(2.97317 0.000279986 0)
(2.92956 0.000731829 0)
(2.80574 0.00158781 0)
(2.4385 0.00414532 0)
(3 5.88431e-13 0)
(3 6.97176e-12 0)
(3 1.43319e-11 0)
(3 6.8906e-11 0)
(3 1.05895e-10 0)
(3 4.38519e-10 0)
(3 6.70976e-10 0)
(3 2.56171e-09 0)
(3 4.29227e-09 0)
(3 1.40983e-08 0)
(3 2.69872e-08 0)
(3 7.37105e-08 0)
(2.99999 1.68917e-07 0)
(2.99998 3.5661e-07 0)
(2.99996 1.04648e-06 0)
(2.9999 1.54215e-06 0)
(2.99973 6.18821e-06 0)
(2.99935 6.2758e-06 0)
(2.99833 3.47807e-05 0)
(2.99588 2.35972e-05 0)
(2.98953 0.000167258 0)
(2.97341 0.00014322 0)
(2.92995 0.000602636 0)
(2.80658 0.000920038 0)
(2.44127 0.00253495 0)
(3 1.15983e-12 0)
(3 3.22429e-12 0)
(3 2.18074e-11 0)
(3 3.14512e-11 0)
(3 1.57845e-10 0)
(3 2.20416e-10 0)
(3 9.72132e-10 0)
(3 1.3295e-09 0)
(3 5.61196e-09 0)
(3 8.14553e-09 0)
(3 3.03692e-08 0)
(3 4.95084e-08 0)
(2.99999 1.53995e-07 0)
(2.99998 3.05058e-07 0)
(2.99996 7.19304e-07 0)
(2.9999 1.82258e-06 0)
(2.99974 3.08939e-06 0)
(2.99935 1.03022e-05 0)
(2.99836 1.09492e-05 0)
(2.9959 5.38782e-05 0)
(2.9896 4.21223e-05 0)
(2.97352 0.000207675 0)
(2.93017 0.000237987 0)
(2.80698 0.000598403 0)
(2.44249 0.00112539 0)
(3 8.84008e-13 0)
(3 3.09169e-12 0)
(3 1.58512e-11 0)
(3 2.86938e-11 0)
(3 1.17679e-10 0)
(3 1.77245e-10 0)
(3 7.70092e-10 0)
(3 9.42519e-10 0)
(3 4.79575e-09 0)
(3 4.66859e-09 0)
(3 2.80783e-08 0)
(3 2.42144e-08 0)
(2.99999 1.54792e-07 0)
(2.99998 1.27907e-07 0)
(2.99996 7.94771e-07 0)
(2.9999 7.26787e-07 0)
(2.99974 3.78732e-06 0)
(2.99935 3.71241e-06 0)
(2.99837 1.53272e-05 0)
(2.9959 1.89092e-05 0)
(2.98965 5.1228e-05 0)
(2.97357 7.70786e-05 0)
(2.93019 0.000158935 0)
(2.80715 0.000171458 0)
(2.44233 0.000248331 0)
(3 1.94921e-13 0)
(3 3.76735e-12 0)
(3 5.76627e-12 0)
(3 3.53287e-11 0)
(3 4.64613e-11 0)
(3 2.12445e-10 0)
(3 3.04848e-10 0)
(3 1.22415e-09 0)
(3 1.96797e-09 0)
(3 6.41209e-09 0)
(3 1.23561e-08 0)
(3 3.20848e-08 0)
(2.99999 7.73594e-08 0)
(2.99998 1.43467e-07 0)
(2.99996 4.63803e-07 0)
(2.9999 5.83076e-07 0)
(2.99974 2.62611e-06 0)
(2.99936 1.74824e-06 0)
(2.99837 1.36808e-05 0)
(2.99593 1.87074e-06 0)
(2.98965 5.51481e-05 0)
(2.97362 4.1977e-07 0)
(2.93018 0.000120193 0)
(2.80696 -3.77204e-05 0)
(2.44206 -8.58216e-05 0)
(3 1.01134e-13 0)
(3 9.15651e-13 0)
(3 2.4411e-12 0)
(3 8.71841e-12 0)
(3 1.93493e-11 0)
(3 5.45694e-11 0)
(3 1.23409e-10 0)
(3 3.4177e-10 0)
(3 7.00319e-10 0)
(3 1.98972e-09 0)
(3 3.85075e-09 0)
(3 1.05173e-08 0)
(2.99999 2.08056e-08 0)
(2.99998 5.02606e-08 0)
(2.99996 1.09699e-07 0)
(2.9999 2.12131e-07 0)
(2.99974 5.86067e-07 0)
(2.99936 8.68989e-07 0)
(2.99837 2.76991e-06 0)
(2.99594 3.2095e-06 0)
(2.98965 9.61288e-06 0)
(2.97362 7.27806e-06 0)
(2.93014 1.80742e-05 0)
(2.80682 -2.44771e-05 0)
(2.4417 -9.73232e-05 0)
(1.1413 1.00709 0)
(1.07499 0.719531 0)
(0.252199 0.473444 0)
(-0.434685 0.0434959 0)
(-0.495276 -0.0152737 0)
(-0.671478 -0.0241666 0)
(-0.731553 -0.0186789 0)
(-0.773645 0.00405893 0)
(-0.83091 0.0191566 0)
(-0.896577 0.0200464 0)
(-0.955294 0.0146674 0)
(-1.00629 0.00895898 0)
(-1.05597 0.00680757 0)
(-1.10542 0.00554638 0)
(-1.15168 0.00396206 0)
(-1.19465 0.0021206 0)
(-1.23488 0.00171215 0)
(-1.26346 0.00371347 0)
(-1.2759 0.00355782 0)
(-1.27922 0.0018962 0)
(-1.27316 -0.000353149 0)
(-1.24966 -0.00356377 0)
(-1.20573 -0.00744765 0)
(-1.14481 -0.0117018 0)
(-1.07299 -0.0153656 0)
(-0.996226 -0.0179286 0)
(-0.918347 -0.0194499 0)
(-0.841495 -0.0201129 0)
(-0.766217 -0.0204985 0)
(-0.693744 -0.0203888 0)
(-0.624705 -0.0200183 0)
(-0.558866 -0.0197028 0)
(-0.495951 -0.0197319 0)
(-0.435263 -0.0203818 0)
(-0.376709 -0.0215551 0)
(-0.318175 -0.0233261 0)
(-0.261719 -0.0241849 0)
(-0.206967 -0.0243584 0)
(-0.154302 -0.0243451 0)
(-0.103101 -0.0246926 0)
(-0.0532967 -0.025306 0)
(-0.00493559 -0.0276909 0)
(0.0486872 -0.0267747 0)
(0.0942545 -0.0242504 0)
(0.138825 -0.0228581 0)
(0.181266 -0.0217179 0)
(0.221902 -0.0207828 0)
(0.259683 -0.0197319 0)
(0.296305 -0.0190611 0)
(0.333828 -0.0189631 0)
(0.371174 -0.018599 0)
(0.407028 -0.017987 0)
(0.44153 -0.0172655 0)
(0.474983 -0.0166273 0)
(0.507512 -0.0160402 0)
(0.539221 -0.0155024 0)
(0.570145 -0.0149647 0)
(0.600341 -0.0144519 0)
(0.629834 -0.0139382 0)
(0.658681 -0.0134482 0)
(0.686907 -0.0129617 0)
(0.714559 -0.0124956 0)
(0.741657 -0.0120379 0)
(0.768239 -0.0115953 0)
(0.794328 -0.0111653 0)
(0.819951 -0.0107468 0)
(0.845135 -0.010342 0)
(0.869896 -0.00994815 0)
(0.894261 -0.00956532 0)
(0.918243 -0.00919445 0)
(0.941858 -0.0088318 0)
(0.965124 -0.00847983 0)
(0.98805 -0.00813613 0)
(1.01065 -0.0077996 0)
(1.03294 -0.00747183 0)
(1.05491 -0.00714831 0)
(1.07659 -0.00683217 0)
(1.09796 -0.00651897 0)
(1.11904 -0.00621133 0)
(1.13982 -0.00590613 0)
(1.1603 -0.00560575 0)
(1.18047 -0.00530815 0)
(1.20034 -0.00501521 0)
(1.2199 -0.00472628 0)
(1.23915 -0.00444137 0)
(1.25808 -0.00416218 0)
(1.2767 -0.00388515 0)
(1.295 -0.00361283 0)
(1.31297 -0.00333897 0)
(1.33059 -0.00306647 0)
(1.34784 -0.00278655 0)
(1.36468 -0.00250096 0)
(1.38105 -0.00220287 0)
(1.39686 -0.00188154 0)
(1.41196 -0.00152171 0)
(1.42614 -0.00112029 0)
(1.43904 -0.000669342 0)
(1.45019 -0.000137999 0)
(1.45862 0.000532812 0)
(1.46462 0.0013792 0)
(1.19395 0.913877 0)
(1.21104 0.625659 0)