/*--------------------------------*- C++ -*----------------------------------*\
  =========                 |
  \\      /  F ield         | OpenFOAM: The Open Source CFD Toolbox
   \\    /   O peration     | Website:  https://openfoam.org
    \\  /    A nd           | Version:  13
     \\/     M anipulation  |
\*---------------------------------------------------------------------------*/
FoamFile
{
    format      ascii;
    class       volScalarField;
    location    "1.76";
    object      T;
}
// * * * * * * * * * * * * * * * * * * * * * * * * * * * * * * * * * * * * * //

dimensions      [0 0 0 1 0 0 0];

internalField   nonuniform List<scalar> 
1000
(
1.54371e-114
3.4333e-114
9.5086e-114
2.71315e-113
7.75846e-113
2.21583e-112
6.31798e-112
1.79836e-111
5.11006e-111
1.44953e-110
4.10469e-110
1.16033e-109
3.2744e-109
9.22419e-109
2.59401e-108
7.28214e-108
2.04076e-107
5.70907e-107
1.59434e-106
4.44466e-106
1.2369e-105
3.43613e-105
9.52888e-105
2.63785e-104
7.28942e-104
2.01081e-103
5.53707e-103
1.52203e-102
4.17632e-102
1.14392e-101
3.12771e-101
8.53657e-101
2.32577e-100
6.32522e-100
1.71715e-99
4.65332e-99
1.25875e-98
3.39889e-98
9.16121e-98
2.46483e-97
6.61971e-97
1.77463e-96
4.74886e-96
1.26848e-95
3.38215e-95
9.00146e-95
2.39135e-94
6.34135e-94
1.67853e-93
4.43488e-93
1.16961e-92
3.07896e-92
8.0904e-92
2.12197e-91
5.5553e-91
1.4517e-90
3.78655e-90
9.85845e-90
2.56194e-89
6.64546e-89
1.72058e-88
4.44649e-88
1.14697e-87
2.95307e-87
7.58905e-87
1.94665e-86
4.98397e-86
1.27364e-85
3.24867e-85
8.27076e-85
2.10168e-84
5.33052e-84
1.34944e-83
3.40967e-83
8.59903e-83
2.16453e-82
5.43814e-82
1.36368e-81
3.41307e-81
8.52608e-81
2.1258e-80
5.29012e-80
1.31394e-79
3.25725e-79
8.0592e-79
1.9902e-78
4.90527e-78
1.20667e-77
2.96263e-77
7.25979e-77
1.77553e-76
4.33399e-76
1.05585e-75
2.56726e-75
6.23005e-75
1.50891e-74
3.64742e-74
8.79946e-74
2.11872e-73
5.09141e-73
1.22109e-72
2.92281e-72
6.98225e-72
1.66468e-71
3.96103e-71
9.40638e-71
2.22933e-70
5.27306e-70
1.24476e-69
2.93253e-69
6.89494e-69
1.61789e-68
3.78878e-68
8.85477e-68
2.06529e-67
4.80742e-67
1.11678e-66
2.58908e-66
5.99027e-66
1.38314e-65
3.18719e-65
7.32936e-65
1.68206e-64
3.85241e-64
8.80517e-64
2.00842e-63
4.57178e-63
1.03854e-62
2.35437e-62
5.32636e-62
1.20252e-61
2.70933e-61
6.09163e-61
1.36681e-60
3.06043e-60
6.83846e-60
1.52487e-59
3.39315e-59
7.53477e-59
1.66967e-58
3.69221e-58
8.14766e-58
1.7942e-57
3.94273e-57
8.64592e-57
1.89196e-56
4.13142e-56
9.00264e-56
1.95759e-55
4.24773e-55
9.19754e-55
1.98731e-54
4.28485e-54
9.21896e-54
1.97926e-53
4.24031e-53
9.06492e-53
1.93375e-52
4.1163e-52
8.74343e-52
1.8532e-51
3.91949e-51
8.27179e-51
1.74194e-50
3.66038e-50
7.67503e-50
1.60581e-49
3.35245e-49
6.98375e-49
1.45167e-48
3.01094e-48
6.23142e-48
1.28684e-47
2.6516e-47
5.45181e-47
1.11846e-46
2.28952e-46
4.6764e-46
9.53064e-46
1.93809e-45
3.93246e-45
7.96147e-45
1.60827e-44
3.24162e-44
6.51925e-44
1.30818e-43
2.61919e-43
5.23237e-43
1.04294e-42
2.07417e-42
4.11584e-42
8.14885e-42
1.60975e-41
3.17279e-41
6.23944e-41
1.22425e-40
2.39669e-40
4.68133e-40
9.12311e-40
1.77391e-39
3.44137e-39
6.66104e-39
1.28636e-38
2.47853e-38
4.76465e-38
9.13847e-38
1.74872e-37
3.33865e-37
6.35951e-37
1.20858e-36
2.29155e-36
4.33489e-36
8.18134e-36
1.54051e-35
2.89401e-35
5.4241e-35
1.01425e-34
1.89214e-34
3.52168e-34
6.53934e-34
1.21144e-33
2.23901e-33
4.1285e-33
7.5947e-33
1.39383e-32
2.55204e-32
4.66167e-32
8.49519e-32
1.54447e-31
2.8013e-31
5.06889e-31
9.15033e-31
1.6479e-30
2.96068e-30
5.30666e-30
9.4889e-30
1.69268e-29
3.0123e-29
5.34789e-29
9.47168e-29
1.67352e-28
2.94981e-28
5.18696e-28
9.09886e-28
1.59226e-27
2.77969e-27
4.84093e-27
8.41031e-27
1.45762e-26
2.52013e-26
4.3466e-26
7.4786e-26
1.28362e-25
2.19782e-25
3.75397e-25
6.39632e-25
1.0872e-24
1.84341e-24
3.11799e-24
5.26091e-24
8.85485e-24
1.48674e-23
2.49011e-23
4.16038e-23
6.93387e-23
1.15278e-22
1.91181e-22
3.16276e-22
5.21931e-22
8.59177e-22
1.41083e-21
2.31092e-21
3.77586e-21
6.15409e-21
1.00053e-20
1.6226e-20
2.62486e-20
4.2356e-20
6.81768e-20
1.09463e-19
1.75312e-19
2.80067e-19
4.46293e-19
7.09389e-19
1.12475e-18
1.77881e-18
2.80612e-18
4.41556e-18
6.93051e-18
1.08504e-17
1.69443e-17
2.63937e-17
4.10084e-17
6.35537e-17
9.82435e-17
1.51481e-16
2.32974e-16
3.57394e-16
5.46861e-16
8.34633e-16
1.27058e-15
1.92929e-15
2.92198e-15
4.4141e-15
6.65108e-15
9.99597e-15
1.49844e-14
2.24046e-14
3.34128e-14
4.97015e-14
7.37401e-14
1.09123e-13
1.61066e-13
2.37121e-13
3.48184e-13
5.09943e-13
7.44918e-13
1.08534e-12
1.57724e-12
2.28611e-12
3.30497e-12
4.76549e-12
6.85354e-12
9.83082e-12
1.40647e-11
2.00696e-11
2.85634e-11
4.05459e-11
5.74046e-11
8.10606e-11
1.14165e-10
1.60369e-10
2.24682e-10
3.13962e-10
4.37566e-10
6.08233e-10
8.43246e-10
1.16599e-09
1.60803e-09
2.21183e-09
3.03433e-09
4.15174e-09
5.66569e-09
7.71134e-09
1.04679e-08
1.41725e-08
1.91374e-08
2.57735e-08
3.46191e-08
4.63779e-08
6.19666e-08
8.25763e-08
1.0975e-07
1.4548e-07
1.92333e-07
2.53603e-07
3.33506e-07
4.37426e-07
5.72208e-07
7.46541e-07
9.71409e-07
1.26067e-06
1.63173e-06
2.10642e-06
2.71201e-06
3.48246e-06
4.45996e-06
5.69672e-06
7.2572e-06
9.22067e-06
1.16844e-05
1.47673e-05
1.86142e-05
2.34013e-05
2.93418e-05
3.66931e-05
4.57651e-05
5.69294e-05
7.06305e-05
8.7398e-05
0.000107861
0.000132765
0.000162988
0.000199566
0.00024371
0.000296838
0.000360598
0.000436905
0.000527973
0.000636354
0.000764978
0.000917199
0.00109684
0.00130825
0.00155635
0.00184669
0.0021855
0.00257978
0.00303731
0.00356675
0.00417768
0.00488065
0.00568728
0.00661022
0.00766329
0.00886144
0.0102208
0.0117588
0.0134939
0.0154459
0.0176358
0.0200854
0.0228181
0.0258577
0.0292294
0.0329587
0.0370719
0.0415958
0.0465573
0.0519833
0.0579005
0.0643351
0.0713126
0.0788573
0.0869922
0.0957387
0.105116
0.115141
0.125829
0.13719
0.149233
0.161963
0.175381
0.189483
0.204263
0.219709
0.235805
0.252531
0.269863
0.287771
0.306223
0.325179
0.3446
0.364439
0.384649
0.405178
0.425971
0.446972
0.468123
0.489364
0.510636
0.531877
0.553028
0.574029
0.594822
0.615351
0.63556
0.6554
0.67482
0.693777
0.712228
0.730136
0.747467
0.764193
0.780289
0.795734
0.810513
0.824614
0.83803
0.850757
0.862798
0.874156
0.88484
0.894861
0.904232
0.912971
0.921097
0.92863
0.935594
0.942012
0.947909
0.95331
0.958241
0.962728
0.966798
0.970474
0.973782
0.976745
0.979387
0.981728
0.983789
0.985589
0.987144
0.988471
0.989582
0.99049
0.991204
0.991733
0.992082
0.992256
0.992256
0.992082
0.991733
0.991204
0.99049
0.989582
0.988471
0.987144
0.985589
0.983789
0.981728
0.979387
0.976745
0.973782
0.970474
0.966798
0.962728
0.958241
0.95331
0.947909
0.942012
0.935594
0.92863
0.921097
0.912971
0.904232
0.894861
0.88484
0.874156
0.862798
0.850757
0.83803
0.824614
0.810513
0.795734
0.780289
0.764193
0.747467
0.730136
0.712228
0.693777
0.67482
0.6554
0.63556
0.615351
0.594822
0.574029
0.553028
0.531877
0.510636
0.489364
0.468123
0.446972
0.425971
0.405178
0.384649
0.364439
0.3446
0.325179
0.306223
0.287771
0.269863
0.252531
0.235805
0.219709
0.204263
0.189483
0.175381
0.161963
0.149233
0.13719
0.125829
0.115141
0.105116
0.0957387
0.0869922
0.0788573
0.0713126
0.0643351
0.0579005
0.0519833
0.0465573
0.0415958
0.0370719
0.0329587
0.0292294
0.0258577
0.0228181
0.0200854
0.0176358
0.0154459
0.0134939
0.0117588
0.0102208
0.00886144
0.00766329
0.00661022
0.00568728
0.00488065
0.00417768
0.00356675
0.00303731
0.00257978
0.0021855
0.00184669
0.00155635
0.00130825
0.00109684
0.000917199
0.000764978
0.000636354
0.000527973
0.000436905
0.000360598
0.000296838
0.00024371
0.000199566
0.000162988
0.000132765
0.000107861
8.7398e-05
7.06305e-05
5.69294e-05
4.57651e-05
3.66931e-05
2.93418e-05
2.34013e-05
1.86142e-05
1.47673e-05
1.16844e-05
9.22067e-06
7.2572e-06
5.69672e-06
4.45996e-06
3.48246e-06
2.71201e-06
2.10642e-06
1.63173e-06
1.26067e-06
9.71409e-07
7.46541e-07
5.72208e-07
4.37426e-07
3.33506e-07
2.53603e-07
1.92333e-07
1.4548e-07
1.0975e-07
8.25763e-08
6.19666e-08
4.63779e-08
3.46191e-08
2.57735e-08
1.91374e-08
1.41725e-08
1.04679e-08
7.71134e-09
5.66569e-09
4.15174e-09
3.03433e-09
2.21183e-09
1.60803e-09
1.16599e-09
8.43246e-10
6.08233e-10
4.37566e-10
3.13962e-10
2.24682e-10
1.60369e-10
1.14165e-10
8.10606e-11
5.74046e-11
4.05459e-11
2.85634e-11
2.00696e-11
1.40647e-11
9.83082e-12
6.85354e-12
4.76549e-12
3.30497e-12
2.28611e-12
1.57724e-12
1.08534e-12
7.44918e-13
5.09943e-13
3.48184e-13
2.37121e-13
1.61066e-13
1.09123e-13
7.37401e-14
4.97015e-14
3.34128e-14
2.24046e-14
1.49844e-14
9.99597e-15
6.65108e-15
4.4141e-15
2.92198e-15
1.92929e-15
1.27058e-15
8.34633e-16
5.46861e-16
3.57394e-16
2.32974e-16
1.51481e-16
9.82435e-17
6.35537e-17
4.10084e-17
2.63937e-17
1.69443e-17
1.08504e-17
6.93051e-18
4.41556e-18
2.80612e-18
1.77881e-18
1.12475e-18
7.09389e-19
4.46293e-19
2.80067e-19
1.75312e-19
1.09463e-19
6.81768e-20
4.2356e-20
2.62486e-20
1.6226e-20
1.00053e-20
6.15409e-21
3.77586e-21
2.31092e-21
1.41083e-21
8.59177e-22
5.21931e-22
3.16276e-22
1.91181e-22
1.15278e-22
6.93387e-23
4.16038e-23
2.49011e-23
1.48674e-23
8.85485e-24
5.26091e-24
3.11799e-24
1.84341e-24
1.0872e-24
6.39632e-25
3.75397e-25
2.19782e-25
1.28362e-25
7.4786e-26
4.3466e-26
2.52013e-26
1.45762e-26
8.41031e-27
4.84093e-27
2.77969e-27
1.59226e-27
9.09886e-28
5.18696e-28
2.94981e-28
1.67352e-28
9.47168e-29
5.34789e-29
3.0123e-29
1.69268e-29
9.4889e-30
5.30666e-30
2.96068e-30
1.6479e-30
9.15033e-31
5.06889e-31
2.8013e-31
1.54447e-31
8.49519e-32
4.66167e-32
2.55204e-32
1.39383e-32
7.5947e-33
4.1285e-33
2.23901e-33
1.21144e-33
6.53934e-34
3.52168e-34
1.89214e-34
1.01425e-34
5.4241e-35
2.89401e-35
1.54051e-35
8.18134e-36
4.33489e-36
2.29155e-36
1.20858e-36
6.35951e-37
3.33865e-37
1.74872e-37
9.13847e-38
4.76465e-38
2.47853e-38
1.28636e-38
6.66104e-39
3.44137e-39
1.77391e-39
9.12311e-40
4.68133e-40
2.39669e-40
1.22425e-40
6.23944e-41
3.17279e-41
1.60975e-41
8.14885e-42
4.11584e-42
2.07417e-42
1.04294e-42
5.23237e-43
2.61919e-43
1.30818e-43
6.51925e-44
3.24162e-44
1.60827e-44
7.96147e-45
3.93246e-45
1.93809e-45
9.53064e-46
4.6764e-46
2.28952e-46
1.11846e-46
5.45181e-47
2.6516e-47
1.28684e-47
6.23142e-48
3.01094e-48
1.45167e-48
6.98375e-49
3.35245e-49
1.60581e-49
7.67503e-50
3.66038e-50
1.74194e-50
8.27179e-51
3.91949e-51
1.8532e-51
8.74343e-52
4.1163e-52
1.93375e-52
9.06492e-53
4.24031e-53
1.97926e-53
9.21896e-54
4.28485e-54
1.98731e-54
9.19754e-55
4.24773e-55
1.95759e-55
9.00264e-56
4.13142e-56
1.89196e-56
8.64592e-57
3.94273e-57
1.7942e-57
8.14766e-58
3.69221e-58
1.66967e-58
7.53477e-59
3.39315e-59
1.52487e-59
6.83846e-60
3.06043e-60
1.36681e-60
6.09163e-61
2.70933e-61
1.20252e-61
5.32636e-62
2.35437e-62
1.03854e-62
4.57178e-63
2.00842e-63
8.80517e-64
3.85241e-64
1.68206e-64
7.32936e-65
3.18719e-65
1.38314e-65
5.99027e-66
2.58908e-66
1.11678e-66
4.80742e-67
2.06529e-67
8.85477e-68
3.78878e-68
1.61789e-68
6.89494e-69
2.93253e-69
1.24476e-69
5.27306e-70
2.22933e-70
9.40638e-71
3.96103e-71
1.66468e-71
6.98225e-72
2.92281e-72
1.22109e-72
5.09141e-73
2.11872e-73
8.79946e-74
3.64742e-74
1.50891e-74
6.23005e-75
2.56726e-75
1.05585e-75
4.33399e-76
1.77553e-76
7.25979e-77
2.96263e-77
1.20667e-77
4.90527e-78
1.9902e-78
8.0592e-79
3.25725e-79
1.31394e-79
5.29012e-80
2.1258e-80
8.52608e-81
3.41307e-81
1.36368e-81
5.43814e-82
2.16453e-82
8.59903e-83
3.40967e-83
1.34944e-83
5.33052e-84
2.10168e-84
8.27076e-85
3.24867e-85
1.27364e-85
4.98397e-86
1.94665e-86
7.58905e-87
2.95307e-87
1.14697e-87
4.44649e-88
1.72058e-88
6.64546e-89
2.56194e-89
9.85845e-90
3.78655e-90
1.4517e-90
5.5553e-91
2.12197e-91
8.0904e-92
3.07896e-92
1.16961e-92
4.43488e-93
1.67853e-93
6.34135e-94
2.39135e-94
9.00146e-95
3.38215e-95
1.26848e-95
4.74886e-96
1.77463e-96
6.61971e-97
2.46483e-97
9.16121e-98
3.39889e-98
1.25875e-98
4.65332e-99
1.71715e-99
6.32522e-100
2.32577e-100
8.53657e-101
3.12771e-101
1.14392e-101
4.17632e-102
1.52203e-102
5.53707e-103
2.01081e-103
7.28942e-104
2.63785e-104
9.52888e-105
3.43613e-105
1.2369e-105
4.44466e-106
1.59434e-106
5.70907e-107
2.04076e-107
7.28214e-108
2.59401e-108
9.22419e-109
3.2744e-109
1.16033e-109
4.10469e-110
1.44953e-110
5.11006e-111
1.79836e-111
6.31798e-112
2.21583e-112
7.75846e-113
2.71315e-113
9.5086e-114
3.4333e-114
1.54371e-114
)
;

boundaryField
{
    sides
    {
        type            zeroGradient;
    }
    empty
    {
        type            empty;
    }
}


// ************************************************************************* //
