/*--------------------------------*- C++ -*----------------------------------*\
  =========                 |
  \\      /  F ield         | OpenFOAM: The Open Source CFD Toolbox
   \\    /   O peration     | Website:  https://openfoam.org
    \\  /    A nd           | Version:  13
     \\/     M anipulation  |
\*---------------------------------------------------------------------------*/
FoamFile
{
    format      ascii;
    class       volVectorField;
    location    "38";
    object      U;
}
// * * * * * * * * * * * * * * * * * * * * * * * * * * * * * * * * * * * * * //

dimensions      [0 1 -1 0 0 0 0];

internalField   nonuniform List<vector> 
918
(
(0.985164 -0.000501061 0)
(0.00501256 2.96625 0)
(-0.00223199 0.801747 0)
(0.979703 0.00214822 0)
(-0.053985 1.95958 1.77024e-20)
(-0.00704423 2.94879 -2.60555e-18)
(0.828515 1.1698 4.03773e-19)
(0.294249 0.136769 -1.68596e-20)
(0.999909 -0.000281238 0)
(0.0575852 0.819039 0)
(0.0125732 0.626443 0)
(0.73471 -0.0135703 0)
(0.0111054 2.9304 0)
(0.00218709 2.79504 0)
(-0.017654 3.15663 7.42211e-19)
(-0.00301581 1.85573 -3.07928e-20)
(0.363216 0.0385283 1.10773e-18)
(0.190521 1.17898 2.7243e-19)
(0.962778 0.00501604 0)
(0.00723053 0.616411 0)
(0.0682658 0.182965 -7.97318e-19)
(1.00198 -0.00498138 0)
(1.00022 -0.00979273 0)
(0.975725 -0.00644265 0)
(0.585728 -0.0365641 0)
(0.0161043 2.63878 0)
(-0.0150018 2.91008 9.68026e-19)
(-0.00274612 0.862878 0)
(0.0053147 1.04142 0)
(-0.00140385 0.836544 0)
(-0.0476505 2.5869 0)
(-0.0262035 2.06036 -1.41069e-20)
(-0.0254751 1.79485 0)
(-0.0206093 2.9876 -9.4068e-23)
(-0.0166903 3.00529 2.02502e-18)
(0.00209874 3.00018 0)
(0.870668 -0.00938757 0)
(0.403338 0.936843 2.03969e-19)
(0.807956 1.18685 -4.22117e-19)
(0.954231 1.02493 4.79264e-19)
(0.67855 1.28014 -9.26965e-20)
(0.677718 1.26529 5.44053e-19)
(0.335717 0.220379 1.6448e-20)
(0.309533 0.107136 0)
(1.12885 0.550411 0)
(0.301203 0.213102 7.51599e-20)
(0.264762 0.142071 -7.79947e-20)
(0.919748 -0.00745965 0)
(1.00027 0.000146771 0)
(0.999909 0.000330937 0)
(1.00363 -0.00777295 0)
(1.00096 -0.000933231 0)
(1.00017 2.89973e-05 0)
(0.0805644 1.80904 -8.6727e-19)
(0.0304935 0.997684 0)
(0.0877336 0.885069 0)
(0.0111702 0.949499 0)
(0.0349251 0.761224 0)
(0.0236843 2.00002 0)
(0.0211715 0.820656 0)
(0.0200875 0.653965 0)
(0.00324169 0.802246 0)
(-0.00684503 0.609087 0)
(0.837731 -0.015721 0)
(0.848413 0.0282718 0)
(0.767763 -0.00301899 0)
(0.81975 0.038304 0)
(0.702965 -0.0185025 0)
(0.0146872 3.00041 9.67748e-19)
(0.0114939 3.00802 0)
(0.00611309 3.00277 0)
(0.0135345 2.99735 1.10082e-23)
(0.00797374 2.95848 -1.43831e-18)
(0.0145001 2.98207 0)
(0.0108614 2.90356 0)
(0.0244443 2.93081 2.24531e-24)
(0.00456661 2.8251 0)
(0.0305845 2.91628 0)
(-0.00515004 2.74477 0)
(0.308492 3.55358 0)
(-0.131907 3.63507 0)
(0.139649 3.24716 -6.90712e-19)
(-0.012614 2.98262 0)
(-0.0110747 2.13126 0)
(-0.00748068 2.12608 3.03703e-20)
(-0.000743421 1.87284 -3.91022e-20)
(0.457855 0.144176 -3.83254e-19)
(0.361265 0.0212104 -3.69301e-19)
(0.441699 0.164914 -1.15418e-18)
(0.348955 0.058152 -7.61547e-19)
(0.220642 0.954425 0)
(0.272994 1.32172 -3.35242e-19)
(0.375171 1.26477 5.6305e-19)
(0.987483 0.00855725 0)
(0.941946 0.00587368 0)
(1.0003 0.000578685 0)
(1.00286 0.0093062 0)
(1.00302 0.00845946 -2.94559e-18)
(0.991913 0.00969888 2.22443e-18)
(-0.00996667 0.798712 0)
(-0.00673216 0.623827 0)
(0.00858398 0.887213 0)
(-0.0129351 0.795161 0)
(-0.0146527 0.617302 0)
(0.107869 0.18825 2.46484e-19)
(0.164555 0.165307 0)
(0.993538 -0.00838152 0)
(0.954416 -0.00651832 0)
(0.770396 0.0459158 0)
(0.706286 0.0565201 0)
(0.662856 -0.0302676 0)
(0.958952 -0.0100797 0)
(0.621964 0.0748569 0)
(0.448059 -0.0138232 1.62314e-18)
(-0.0369544 2.86273 7.4214e-19)
(0.0417585 2.90916 0)
(0.054468 2.88525 0)
(-0.00482741 2.69937 0)
(-0.0130647 2.9853 9.20247e-19)
(-0.0179454 2.89524 0)
(-0.0153463 2.98808 -2.84566e-18)
(-0.0133401 2.92521 9.7294e-19)
(0.0650348 1.2917 0)
(0.0626052 1.35812 0)
(-0.0207001 2.08465 -6.36345e-22)
(-0.0149858 2.04768 0)
(-0.00945688 1.83126 0)
(0.937919 -0.00772566 0)
(0.856257 -0.00947776 0)
(0.863427 0.00637091 0)
(0.949132 -0.00800073 0)
(0.883616 -0.00817241 0)
(0.515608 1.13076 -2.56343e-19)
(0.565179 1.18273 0)
(0.367099 0.880522 3.69812e-20)
(0.309384 0.739586 0)
(0.913876 1.06345 -1.28836e-19)
(1.02364 0.865002 2.54298e-19)
(0.369645 1.37387 0)
(0.53265 1.34358 0)
(0.545547 1.29503 0)
(0.114576 0.180668 -3.17073e-19)
(0.369758 0.209441 0)
(0.334878 0.100578 2.1522e-19)
(0.994316 0.920488 0)
(1.05829 0.769117 0)
(1.08306 0.709632 -1.83109e-19)
(1.10935 0.611292 0)
(1.15444 0.394954 5.42884e-20)
(0.957478 -0.00880514 0)
(0.962368 -0.0101283 0)
(0.901465 -0.00799673 0)
(0.984168 -0.00917923 0)
(0.974641 -0.00939917 0)
(0.93705 -0.00635575 0)
(1.00019 0.00233785 0)
(1.00091 0.00139594 0)
(0.999911 0.000855971 0)
(0.0333267 2.0629 4.76873e-19)
(0.121734 1.75171 0)
(0.0136378 2.1795 7.52989e-19)
(0.0540124 1.86274 -6.41584e-19)
(0.105753 1.18435 -2.22221e-19)
(0.0465833 1.07059 0)
(0.141257 1.03475 0)
(0.00907536 0.900613 0)
(0.0184631 0.721217 0)
(-0.00579806 2.22531 -1.55016e-21)
(0.0291615 1.99501 0)
(-0.00534186 2.21882 -7.47538e-20)
(0.0272516 1.99425 1.36685e-19)
(0.00493913 0.869411 0)
(0.0136533 0.8465 0)
(0.0171219 0.683697 0)
(-0.00239256 0.803178 0)
(-0.00464163 0.606195 0)
(0.93523 0.0088491 0)
(0.844665 -0.0149366 0)
(0.925409 -0.000343591 0)
(0.839957 -0.0126501 0)
(0.812219 0.00148521 0)
(0.901897 0.0197924 0)
(0.878588 0.0238395 0)
(0.788997 -0.000444548 0)
(0.00569244 3.06477 -9.10328e-21)
(0.0166698 3.05788 0)
(0.0147074 2.96906 0)
(0.00860891 2.87619 0)
(0.925666 3.97022 0)
(1.24037 3.3025 9.25607e-19)
(0.0701563 3.07466 0)
(-0.0281645 2.9058 0)
(0.0870478 1.46074 0)
(0.0291534 1.82741 0)
(0.0490081 1.68487 0)
(-0.0339514 2.53936 6.86116e-21)
(-0.022057 2.31317 0)
(-0.0543099 2.43625 0)
(0.028792 1.94721 3.39608e-21)
(-0.0147796 2.17232 4.5898e-20)
(-0.0084341 2.15641 3.96429e-20)
(0.0174712 1.90709 0)
(0.483985 0.120023 5.74641e-19)
(0.382 0.00429479 -5.64503e-19)
(0.260323 1.57378 0)
(0.268604 0.729887 -3.26335e-19)
(0.177573 1.65892 -1.09803e-18)
(0.226916 1.197 1.10079e-18)
(0.902252 0.00652709 0)
(0.967511 0.0110262 0)
(0.974623 0.01078 0)
(0.923446 0.00650858 0)
(-0.0142239 0.803037 0)
(-0.00572727 0.799296 0)
(-0.011092 0.616573 0)
(0.259393 0.210076 6.92984e-19)
(0.215665 0.196985 -8.20658e-19)
(0.224064 0.155543 0)
(1.08036 0.080618 3.22923e-20)
(1.06265 0.035665 0)
(1.00167 0.0376211 0)
(0.898579 -0.00791047 0)
(0.511678 0.0975907 0)
(0.55071 0.079998 -2.59619e-18)
(0.408043 -0.000967379 9.72982e-19)
(0.00908298 2.98116 7.85675e-19)
(-0.0326995 2.86615 4.73132e-20)
(0.00366808 3.05019 -1.92153e-20)
(0.0201764 3.04343 6.83295e-19)
(-0.0150268 2.99657 3.18933e-20)
(-0.0129586 2.94948 -1.28259e-22)
(-0.0172563 3.01194 -5.8822e-19)
(0.0148355 3.02387 4.25312e-19)
(0.00734086 3.03674 -6.75404e-19)
(0.932506 -0.00177185 0)
(0.938495 -0.00374986 0)
(0.844226 -0.0091232 0)
(0.956735 0.0116978 0)
(0.943071 0.0129492 0)
(0.88178 0.00612275 0)
(0.918209 0.0162614 0)
(0.926613 0.0146241 0)
(0.838723 0.00395871 0)
(0.719377 1.41027 1.1707e-20)
(0.753168 1.5197 0)
(0.18751 0.324588 7.63464e-20)
(0.217666 0.656097 6.16631e-19)
(0.258862 0.71732 -3.58018e-19)
(0.265124 0.533147 7.12593e-19)
(0.334673 0.787091 1.66281e-18)
(0.132461 0.220984 3.87495e-19)
(0.415999 0.185135 8.08018e-19)
(0.39528 0.201229 2.10263e-19)
(0.346557 0.0817943 4.01489e-19)
(1.14512 0.45339 2.34017e-21)
(1.15945 0.248485 -4.4276e-21)
(0.00650119 2.22739 2.9986e-19)
(0.0482728 1.92759 0)
(0.963577 0.0279979 0)
(0.938344 0.0129724 0)
(0.862235 -0.0185984 0)
(0.0111282 3.07432 0)
(0.0196803 2.94402 1.26099e-18)
(0.0164661 2.9563 0)
(0.0063378 2.85068 -1.25082e-18)
(0.00623659 3.091 3.06935e-19)
(0.0073222 3.08271 0)
(0.786366 1.82271 -1.52641e-19)
(1.24809 2.50143 3.8474e-19)
(0.768632 1.96268 -1.21677e-18)
(0.0202174 2.98145 -6.86013e-19)
(0.0361011 3.00205 0)
(-0.0335407 2.87874 0)
(-0.00813955 2.1967 -1.28728e-20)
(-0.0126421 2.18462 -9.71819e-20)
(0.0266199 1.98235 -1.86976e-21)
(0.27476 1.3805 1.06325e-18)
(0.225791 0.516872 -7.29119e-19)
(0.0628694 1.98764 8.14631e-19)
(0.136384 1.87597 -9.62172e-19)
(0.18036 1.49132 9.17625e-20)
(0.00233347 3.11848 -1.92936e-18)
(0.0169027 3.11786 2.06604e-18)
(-0.00899363 2.98109 8.51959e-19)
(-0.00323652 2.9775 -8.10998e-19)
(-0.0212009 2.88157 -8.67695e-19)
(0.00868002 3.09943 -2.28703e-18)
(0.00229153 3.10648 2.23076e-18)
(0.273525 0.680377 0)
(0.237028 0.670248 -1.2717e-18)
(0.0957446 0.221646 5.63458e-19)
(0.34915 0.91276 1.15101e-18)
(0.187774 0.265442 -1.77527e-18)
(1.15903 0.167942 8.64918e-20)
(1.16188 0.302578 0)
(1.14586 0.116781 -3.43125e-20)
(-0.00270673 2.2408 -2.19649e-21)
(0.000249986 2.23455 0)
(0.0347974 1.96631 0)
(0.33908 1.28947 -3.83013e-19)
(0.367398 1.12421 -8.26703e-19)
(0.201266 0.362908 1.47405e-18)
(1.00587 -0.0108646 0)
(1.00766 -0.007654 5.43872e-19)
(0.0483417 1.27072 0)
(0.00750485 1.19555 0)
(1.00222 0.00350719 1.8064e-21)
(1.00366 0.0094468 1.10958e-18)
(-0.0385989 2.54211 -8.54893e-21)
(-0.034179 2.57466 0)
(0.036443 3.17911 4.66882e-19)
(0.395598 3.49221 0)
(1.14447 0.65197 -8.58847e-20)
(1.01292 0.0130598 -2.1403e-21)
(1.02126 -0.0104117 0)
(1.00168 0.000100848 7.10115e-23)
(0.0990986 1.35518 0)
(0.148185 2.57892 0)
(0.0231332 1.2959 0)
(0.000329028 2.63221 7.77716e-20)
(-0.022361 2.58711 4.97446e-20)
(1.00196 0.0280639 2.47134e-21)
(1.06144 0.00334859 0)
(1.09433 0.0226443 0)
(0.0170216 1.85246 0)
(-0.0287636 2.58303 0)
(0.0281655 1.27496 0)
(0.291363 1.46873 -1.2457e-19)
(1.01126 -0.00965924 0)
(1.00939 -0.0149363 0)
(1.00235 0.000705964 6.94654e-19)
(1.00548 -0.00483233 -8.16826e-19)
(1.00119 -0.000988006 0)
(0.0400984 1.5551 0)
(0.0549883 1.37235 0)
(0.0598476 1.48752 0)
(0.0398088 1.26081 0)
(0.017251 1.18745 0)
(0.00871912 1.15834 0)
(1.03444 -0.00647712 0)
(1.02062 0.0156917 -9.11019e-22)
(0.797099 1.26518 2.14507e-19)
(1.00226 0.000254672 -6.93392e-19)
(1.00406 0.00524774 8.101e-19)
(1.00118 0.00205806 0)
(1.01285 0.0102621 6.89335e-19)
(1.00802 0.00828021 -8.34283e-19)
(1.00858 0.0146682 0)
(-0.0315332 2.60551 0)
(-0.0326052 2.58686 1.81827e-20)
(-0.0323662 2.59818 -1.17222e-20)
(1.22305 0.252368 6.98307e-19)
(1.15518 0.0817572 0)
(0.0447495 3.07735 -1.00835e-18)
(0.0658599 2.85367 -7.31695e-20)
(0.142514 3.1934 1.53104e-18)
(0.137445 3.22239 -2.36483e-19)
(0.135624 3.23495 0)
(0.0205117 3.13763 2.62658e-19)
(0.0771357 3.16069 9.95623e-19)
(0.0698515 3.18671 -4.94384e-19)
(0.0230614 3.12965 0)
(0.649564 0.295858 0)
(0.571789 0.345744 0)
(1.11262 0.685964 2.1941e-19)
(1.10876 0.814054 -2.31194e-19)
(1.17301 0.570946 0)
(1.20346 0.508025 0)
(1.01615 0.013295 -1.28558e-18)
(1.01499 0.0142637 1.61378e-18)
(1.02518 -0.00995947 0)
(1.02323 -0.0119758 0)
(1.00646 0.00255598 0)
(1.01044 0.00369309 0)
(1.00462 0.00181377 0)
(1.0098 0.00615842 0)
(1.00781 0.00595238 0)
(1.00453 0.00463738 0)
(0.0878994 1.35149 0)
(0.0824804 1.32586 0)
(0.119507 1.38813 0)
(0.131455 1.39975 0)
(0.147082 2.60313 0)
(0.187381 2.66979 -4.63874e-19)
(0.102028 2.66122 0)
(0.0878716 2.66481 2.36348e-19)
(0.040021 2.68709 -2.17845e-19)
(0.0256127 1.31701 0)
(0.0239753 1.24208 0)
(0.0353605 1.32157 0)
(0.0283834 1.26238 0)
(-0.000854791 1.98739 -3.84609e-20)
(-0.0237601 2.61496 3.40148e-20)
(-0.011759 2.67537 7.06833e-20)
(-0.0196596 2.68941 0)
(-0.0274835 2.61958 -1.14898e-19)
(-0.0271273 2.61291 -6.34076e-20)
(0.00899566 1.98728 3.10403e-20)
(-0.0138714 2.41216 -4.56343e-20)
(-0.0173452 2.43087 -8.01444e-20)
(1.01122 0.0362172 1.30832e-18)
(1.00769 0.0165917 -1.61713e-18)
(1.00319 0.042192 -1.30994e-18)
(0.982107 0.021847 1.66785e-18)
(1.06265 0.00715918 0)
(1.0482 -0.00887479 0)
(1.09133 0.0326734 0)
(1.0724 0.0114863 0)
(1.07013 -0.00133722 0)
(1.1366 0.0782803 0)
(1.1081 0.0417066 0)
(1.11088 0.029675 0)
(-0.0419851 2.44633 -6.23251e-21)
(0.00490143 2.06273 0)
(-0.0226256 2.2571 0)
(-0.0297488 2.60347 1.39284e-20)
(-0.0259504 2.61467 -7.55334e-22)
(0.0116029 1.61849 4.44972e-20)
(0.0307765 1.57939 -4.49544e-20)
(0.0336114 1.40158 0)
(0.0447903 1.41544 0)
(0.0279711 1.42051 0)
(0.014299 1.29094 0)
(0.00607068 1.20143 0)
(0.379025 1.4835 1.90816e-19)
(0.41769 1.4886 1.18663e-19)
(0.596711 2.44784 -2.48462e-19)
(0.402946 2.54348 7.36774e-19)
(0.353422 2.0665 8.67563e-20)
(1.02096 -0.00823125 0)
(1.01545 -0.00980892 0)
(1.01489 -0.0155319 0)
(1.00746 -0.00120763 0)
(1.00491 -0.000971243 0)
(1.00776 -0.00477343 0)
(1.00924 -0.00372577 0)
(1.01415 -0.00450224 0)
(1.02133 0.0160092 1.25924e-18)
(1.01809 0.015731 -1.61416e-18)
(1.02179 0.0179554 -1.26807e-18)
(1.0197 0.0166807 1.58717e-18)
(0.76436 1.31377 0)
(0.699788 1.36664 1.9004e-19)
(0.873008 1.21017 4.97528e-20)
(0.915614 1.16369 -6.61632e-20)
(1.15605 2.60864 3.64509e-19)
(0.807247 0.104731 6.36587e-19)
(1.15775 0.101085 0)
(1.20216 0.182351 -5.60776e-19)
(1.18559 0.146951 -2.37218e-20)
(1.00389 0.14389 0)
(0.137008 2.96129 5.98009e-19)
(0.114183 2.867 -1.27415e-18)
(0.0249233 2.37141 8.60111e-19)
(0.0918211 -0.0126515 -3.86397e-19)
(0.340337 3.42119 -1.83956e-19)
(0.19457 3.31371 0)
(0.237303 3.35595 2.39572e-19)
(0.245958 3.03461 -1.94511e-18)
(0.34075 3.19392 0)
(0.00604336 3.12103 5.04725e-20)
(0.0160568 3.12981 -5.92643e-19)
(0.0143696 3.12584 8.72253e-19)
(0.0357737 3.14011 0)
(0.0343616 3.15066 0)
(1.21533 2.60826 0)
(0.536115 0.838245 -5.63032e-19)
(1.0367 0.988159 3.40616e-20)
(0.973306 1.06364 0)
(0.822988 0.965738 -1.34398e-19)
(1.06 0.878841 2.89676e-20)
(0.367825 0.399418 -9.93816e-19)
(0.694574 0.320747 -2.2256e-20)
(0.659931 0.237929 4.5601e-19)
(0.589796 0.376076 3.37002e-20)
(0.506249 0.347362 -1.35707e-18)
(0.664215 0.339207 0)
(0.703002 0.424457 7.73676e-19)
(0.711233 0.421279 0)
(0.624427 0.368663 0)
(0.598156 0.292388 0)
(0.797862 0.61598 4.63509e-19)
(1.22117 0.275274 -5.90878e-19)
(1.21538 0.413347 0)
(1.22697 0.354689 0)
(0.74484 0.187917 6.77665e-19)
(0.844554 0.535645 -4.23089e-19)
(0.7443 0.508874 7.49986e-19)
(0.947727 0.423041 -8.31064e-19)
(1.01975 0.0146619 8.65713e-19)
(1.01787 0.0142003 -8.70834e-19)
(1.01594 0.0155975 0)
(1.03588 -0.00603175 0)
(1.02955 -0.00863654 -8.17433e-19)
(1.02749 -0.0121622 8.0945e-19)
(1.02508 0.00972459 0)
(1.02365 0.0133863 0)
(1.01142 0.00405684 0)
(1.01429 0.00898186 0)
(1.01512 0.003925 0)
(1.01422 0.00273841 0)
(0.058401 1.33509 0)
(0.0631479 1.29509 0)
(0.143558 1.36095 -4.32463e-20)
(0.268089 1.46564 6.12161e-20)
(0.160538 1.43656 1.25412e-19)
(0.190743 1.44455 -2.06369e-19)
(0.163537 1.38513 0)
(0.131942 1.59143 -1.23338e-19)
(0.115576 1.56265 0)
(0.352859 2.01982 -1.26111e-19)
(0.347968 2.35199 6.74332e-19)
(0.188255 1.44668 1.07532e-19)
(0.261242 1.38001 1.20808e-21)
(0.199802 1.36584 -9.79476e-22)
(0.273737 1.32164 -1.52386e-19)
(0.241508 1.57537 0)
(0.262221 1.6158 1.50918e-19)
(0.0347336 2.27093 -5.1692e-20)
(0.0427286 2.67707 0)
(0.0668526 2.40883 1.83379e-19)
(0.0605487 2.43037 0)
(0.0710131 2.6783 -2.61626e-19)
(0.0505644 2.70654 0)
(0.0284674 1.40441 -2.50137e-20)
(0.0360391 1.45605 0)
(0.032632 1.37256 0)
(0.0252644 1.37509 2.82237e-20)
(-0.0012852 2.66088 -1.97831e-20)
(0.0284809 2.70619 2.52121e-19)
(0.0108656 2.73001 1.75104e-21)
(-0.000989093 1.83628 3.81009e-20)
(-0.00792869 1.67918 1.63606e-20)
(0.0252831 1.2917 0)
(0.00216911 1.22058 0)
(0.0493142 1.56653 4.15205e-20)
(0.0302781 1.43895 3.87513e-20)
(0.0382372 1.50486 -4.75395e-20)
(0.0412909 1.59147 0)
(-0.0364739 2.28534 5.72375e-21)
(-0.0424245 2.55535 -4.17903e-21)
(-0.02267 2.45367 -1.00349e-20)
(-0.0155348 1.85234 -4.61562e-20)
(-0.032416 2.50565 -1.63524e-20)
(-0.026683 2.44977 7.965e-20)
(1.01977 0.0206342 -8.60565e-19)
(1.01602 0.0261806 8.6387e-19)
(1.0152 0.0162045 0)
(1.01119 0.067563 1.21459e-18)
(0.991544 0.0561973 -1.35885e-18)
(0.952599 0.0421509 1.51972e-18)
(1.01448 0.103621 -1.62113e-19)
(1.04209 -0.00606534 0)
(1.05018 -0.00194749 7.81736e-19)
(1.03847 -0.0100875 -7.82948e-19)
(1.06956 0.0403192 -4.67061e-20)
(1.06329 0.0222144 4.01755e-19)
(1.06405 0.0533748 0)
(1.05108 0.0482742 -1.44209e-19)
(1.0332 0.0403496 0)
(1.0261 0.0366205 0)
(1.02784 0.0127198 0)
(1.02434 0.0155672 0)
(1.03972 0.0305987 2.96852e-19)
(1.03939 0.0259505 -6.5469e-19)
(1.05021 0.0321877 -3.15053e-19)
(1.04816 0.0320299 -3.46504e-19)
(1.06918 0.0622003 6.80405e-19)
(1.0939 0.0496685 0)
(1.10177 0.0924064 0)
(-0.0411846 2.27832 -2.29573e-20)
(-0.0125522 2.04914 -8.25245e-21)
(-0.0176075 2.03272 0)
(-0.0291306 2.45761 2.46201e-20)
(-0.0222933 2.4035 1.4201e-20)
(-0.0528773 2.46787 -6.05583e-21)
(-0.0273614 2.6259 5.60707e-20)
(-0.0343703 2.56736 -4.06341e-21)
(-0.0300619 2.52102 1.6268e-20)
(-0.0232264 2.61999 -2.20701e-20)
(-0.0287159 2.62055 2.80898e-20)
(0.0135092 1.5116 8.94175e-23)
(0.0123008 1.64779 4.40266e-20)
(0.367736 1.42431 -7.14885e-20)
(0.36588 1.36808 8.5857e-20)
(0.646419 1.41365 -1.83709e-19)
(0.515039 1.47834 -1.1523e-19)
(0.568043 1.45007 0)
(0.592272 2.42354 2.20962e-19)
(0.659488 2.41577 3.50403e-19)
(0.411146 2.51748 8.37898e-20)
(0.404765 2.54471 -6.77929e-19)
(0.512881 2.48942 6.55219e-19)
(0.551881 2.46159 0)
(0.489095 2.51761 -5.86674e-19)
(0.249366 2.59361 1.23883e-18)
(0.35414 2.56635 -8.22164e-20)
(0.285222 2.65535 -1.69182e-18)
(0.94328 2.37852 7.68992e-19)
(0.835267 2.38123 0)
(1.01094 0.000388569 2.82171e-20)
(1.01521 -0.0055276 -2.29096e-20)
(1.01763 -0.00365645 -4.18629e-19)
(1.01489 -0.000980272 4.20466e-19)
(1.0123 0.00101508 0)
(0.634149 1.28184 0)
(0.652124 1.17848 0)
(0.755784 1.08676 0)
(0.644421 1.14328 0)
(1.18571 2.62309 5.87724e-20)
(1.07356 2.36712 0)
(0.837486 2.1901 4.30734e-21)
(0.825022 2.44829 0)
(0.92176 2.5394 -4.69446e-19)
(0.957017 2.49562 3.12495e-19)
(0.816144 0.157383 0)
(0.783252 0.130589 1.7385e-19)
(0.925144 0.138753 1.01124e-18)
(0.840058 0.136701 -3.78837e-19)
(0.817246 0.0783697 -1.16139e-18)
(1.07651 0.223523 -9.96936e-19)
(0.99696 0.281699 -1.5248e-20)
(0.923316 0.279584 9.42526e-19)
(1.00468 0.212746 7.89738e-19)
(0.953273 0.181874 -1.34797e-18)
(0.91783 0.183039 1.68465e-19)
(0.951689 0.242379 -3.62465e-19)
(0.930424 0.205277 0)
(0.993378 0.178634 6.65661e-19)
(1.04416 0.177606 0)
(1.04364 0.203641 0)
(1.10515 0.112104 3.18746e-19)
(1.06883 0.16552 -1.39221e-20)
(1.07083 0.225081 -1.73814e-19)
(1.10147 0.192621 0)
(1.0229 0.0437297 6.68072e-19)
(1.04102 0.056561 8.35058e-19)
(1.03429 0.0421462 -6.6279e-19)
(1.04176 0.0629232 -5.59658e-19)
(1.01861 0.0705146 -8.54166e-19)
(0.988525 0.150709 0)
(0.998471 0.0999385 0)
(0.968631 0.0643398 -5.41012e-19)
(0.919591 0.0867552 2.12387e-19)
(1.03717 0.0996296 7.73895e-19)
(1.06753 0.11536 -9.19014e-19)
(1.06987 0.146595 8.19667e-19)
(1.02928 0.137289 0)
(1.07337 0.105189 0)
(1.05498 0.0864335 -3.73659e-19)
(1.04411 0.0927253 -6.33912e-19)
(0.577924 1.07596 1.59826e-19)
(0.612484 1.41374 -6.17712e-20)
(1.15637 2.74198 -2.54999e-19)
(1.22319 3.08262 7.1657e-21)
(1.24848 2.72279 -1.93893e-19)
(1.2787 2.70677 -2.69837e-21)
(1.20658 2.34597 -1.00867e-20)
(1.21029 2.98644 -1.16448e-19)
(1.22954 2.95152 2.71083e-19)
(1.21434 3.23611 -1.34075e-19)
(1.37539 2.96772 1.85444e-19)
(1.36615 2.88572 0)
(0.541016 0.846186 -5.30108e-20)
(0.137887 1.25679 5.98019e-19)
(0.532123 0.455849 6.4164e-19)
(0.369079 0.207211 7.09054e-19)
(0.528822 0.381603 7.65859e-19)
(0.5451 0.476307 -1.23814e-18)
(0.546717 0.478874 1.01101e-18)
(0.496905 0.403721 -3.8715e-19)
(0.420774 0.337604 8.7805e-19)
(0.74802 0.247341 -3.87912e-19)
(0.713657 0.280835 0)
(0.698783 0.205148 9.56949e-21)
(0.729597 0.5128 4.07426e-19)
(0.700443 0.483253 -1.48476e-18)
(0.614618 0.470427 1.58286e-20)
(0.625459 0.458407 0)
(0.671958 0.732071 4.29322e-19)
(0.823593 0.771805 4.4745e-19)
(0.748041 0.853472 -5.22127e-19)
(0.865161 0.804676 -1.8024e-19)
(0.897918 0.849221 -4.7021e-20)
(0.905964 0.84992 4.81458e-20)
(0.838985 0.644171 -7.69177e-19)
(0.916555 0.701393 1.67434e-19)
(0.972728 0.715908 0)
(0.963584 0.692308 -2.3152e-19)
(1.02366 0.319623 2.41523e-19)
(1.13737 0.289103 3.41448e-19)
(1.06358 0.258868 4.07746e-19)
(1.01041 0.354653 -4.83659e-19)
(1.051 0.420337 0)
(1.10297 0.404389 0)
(0.911799 0.35056 5.93594e-21)
(0.8416 0.283194 0)
(0.87263 0.276523 4.42211e-19)
(0.906257 0.285236 -4.85311e-21)
(0.939914 0.426028 2.31928e-18)
(0.896187 0.48732 5.99667e-19)
(0.900449 0.450485 -6.33042e-19)
(0.820062 0.43361 6.78264e-19)
(0.802666 0.429396 4.05172e-19)
(0.773401 0.415428 -3.98173e-19)
(1.02738 -0.000431708 6.97837e-19)
(1.02002 -0.000146384 0)
(1.01849 0.00079326 4.54522e-19)
(1.02154 -0.00197434 -1.02973e-18)
(1.02224 0.00420241 5.00337e-19)
(1.02043 0.0110573 -1.04806e-18)
(1.0214 0.0104534 0)
(1.02074 0.0107084 -2.18269e-19)
(1.01601 0.00759614 5.47621e-19)
(1.01676 0.0103435 -2.73178e-19)
(1.01745 0.00968753 2.01238e-19)
(0.0316912 1.31098 0)
(0.0356373 1.34386 0)
(0.0401845 1.31161 0)
(0.0447852 1.27434 0)
(0.0707897 1.37222 6.00587e-20)
(0.0771685 1.34535 -1.06301e-20)
(0.109929 1.50031 -4.12084e-20)
(0.0932466 1.34957 2.27053e-20)
(0.0343253 1.4431 -6.60501e-20)
(0.0384819 1.4356 5.13709e-20)
(0.0621647 1.35508 -6.67281e-21)
(0.0549224 1.35621 -2.82483e-20)
(0.0475398 1.33283 -4.47306e-21)
(0.0401351 1.35425 -7.27869e-21)
(0.109503 2.37881 -2.02738e-19)
(0.0971662 2.42438 0)
(0.173991 2.05309 1.29292e-19)
(0.112317 1.7104 6.24078e-20)
(0.232217 2.04674 -1.05853e-19)
(0.207594 2.44067 0)
(0.267563 2.39177 -6.60519e-19)
(0.30639 2.38964 4.68474e-19)
(0.234289 2.00609 -2.94728e-19)
(0.15606 2.16878 1.91448e-19)
(0.146182 2.28267 0)
(0.0181937 1.87688 -7.05202e-20)
(-0.00514435 2.4089 -1.30986e-19)
(0.00155018 2.16006 0)
(0.0121686 2.46743 -1.42051e-20)
(0.0268552 2.31146 4.68944e-20)
(0.0211747 1.39048 4.32014e-21)
(0.0148577 1.37632 -7.17967e-20)
(0.0151066 1.38118 1.90476e-20)
(0.0211788 1.37907 2.44313e-20)
(0.0268077 1.40844 0)
(0.0107833 1.36375 0)
(0.00583398 1.27898 3.07743e-20)
(0.00280289 1.35321 -1.05247e-20)
(0.0107551 1.35068 0)
(0.0101973 1.27786 1.96163e-20)
(0.00638178 1.19232 -4.14132e-20)
(1.03994 0.0109169 0)
(1.04621 0.00722586 -7.33188e-20)
(1.03868 0.0205146 -5.28019e-19)
(1.04787 0.0194378 0)
(1.05136 0.0193562 0)
(1.03641 0.0108483 -6.64407e-21)
(1.03097 0.0107091 8.46706e-19)
(1.03196 0.0157855 1.02763e-18)
(1.02596 0.0198105 0)
(1.02324 0.0202383 0)
(1.03525 0.0241816 5.26871e-19)
(1.02632 0.0255692 0)
(1.02461 0.0256253 0)
(-0.0322278 2.02963 0)
(0.00250663 1.65367 -7.21692e-21)
(-0.0144598 1.77034 -1.92933e-20)
(0.00434225 1.36039 0)
(-0.0130073 1.55836 2.47228e-20)
(0.00205872 1.45564 -1.65448e-20)
(0.0193439 1.38049 0)
(0.391221 1.6705 0)
(0.367833 1.2974 -1.55936e-19)
(0.304709 1.34214 0)
(0.423845 1.29559 1.12198e-19)
(0.467298 1.45352 0)
(0.448547 1.39948 -2.21134e-20)
(1.03503 2.68652 -1.6446e-20)
(0.964798 2.4092 -9.66491e-19)
(0.914578 2.18929 1.10638e-18)
(0.848722 2.3734 2.54451e-19)
(0.846431 2.49703 0)
(0.916499 2.49355 0)
(0.926667 2.37166 0)
(0.905059 2.35803 -9.88731e-19)
(0.689088 2.46536 -4.36803e-19)
(0.800836 2.45587 -1.06505e-19)
(0.811252 2.4297 8.12331e-20)
(0.694085 2.39028 0)
(0.798317 2.38559 0)
(0.757227 2.39817 -3.81884e-19)
(0.768719 2.4869 0)
(0.611825 1.09888 0)
(0.4827 0.928095 -5.44007e-19)
(0.549492 0.963019 -3.45615e-20)
(0.518703 1.05489 0)
(0.519533 1.00494 8.16913e-19)
(0.771613 0.879766 -1.49586e-19)
(0.781099 1.01549 0)
(0.754838 0.974045 2.22269e-19)
(0.641528 1.03501 0)
(0.64599 0.943557 0)
(1.16422 2.76313 -2.59292e-19)
(1.14182 2.82685 -1.17431e-19)
(0.931398 2.34761 1.34299e-19)
(0.899241 2.32531 -9.42597e-20)
(1.12897 2.73561 0)
(1.08237 2.70567 1.13463e-19)
(1.08886 2.48692 -3.40658e-19)
(0.982691 2.2342 -3.03586e-20)
(0.495437 1.35485 0)
(0.508552 1.07431 -1.40956e-19)
(0.561555 1.16396 0)
(0.860548 0.218211 0)
(0.789871 0.169238 0)
(0.736457 0.137972 0)
(0.855907 0.222114 -6.96044e-19)
(0.765002 0.209381 4.07447e-19)
(0.934391 0.0736538 -4.38689e-19)
(0.949302 0.119576 0)
(0.928552 0.1302 1.88063e-19)
(0.868915 0.10717 7.54087e-19)
(0.84245 0.0649745 -4.72002e-19)
(1.16191 3.36146 -7.02033e-19)
(1.20943 3.28081 0)
(1.16049 3.38937 -1.45243e-18)
(0.64802 3.55018 1.23299e-18)
(0.872936 3.11747 4.85836e-20)
(0.514177 0.853113 6.33734e-19)
(0.43133 0.846701 0)
(0.339652 0.491292 -1.60383e-19)
(0.451226 0.681004 9.13225e-19)
(0.535643 0.461277 -2.2154e-19)
(0.509466 0.514269 2.52029e-19)
(0.661987 0.530933 5.49135e-19)
(0.692286 0.554366 0)
(0.644251 0.612642 0)
(0.602049 0.550686 0)
(0.978178 0.601232 1.19294e-19)
(0.898439 0.536483 -5.83448e-19)
(0.922294 0.570523 4.50285e-19)
(0.95885 0.505432 -4.52544e-19)
(1.06232 0.479428 0)
(1.06948 0.570407 -1.1641e-19)
(0.844058 0.385208 -9.25169e-19)
(0.847577 0.371553 -1.14515e-18)
(0.795689 0.379647 7.21092e-19)
(0.791515 0.350216 -7.36118e-19)
(0.841671 0.306023 -5.75534e-19)
(0.794101 0.305256 7.07035e-19)
(1.02669 0.00550557 -5.35109e-19)
(1.02644 0.00572971 1.09115e-18)
(1.02914 -0.000255562 6.77183e-19)
(1.03329 0.000670342 -8.15822e-19)
(1.03338 0.00824199 0)
(1.03008 0.00880177 -1.32508e-18)
(0.0644411 1.64068 3.42347e-20)
(0.0462683 1.56842 0)
(0.0866174 1.69221 2.22334e-19)
(0.0966027 1.67528 -1.98522e-19)
(0.0875619 1.5202 7.73292e-20)
(0.0880805 1.50096 0)
(0.00431301 1.68455 0)
(-0.00241559 1.48995 -1.34411e-20)
(-0.00606818 1.42621 1.20786e-20)
(-0.00711567 1.54998 1.21507e-21)
(-0.00429361 1.89146 -2.32689e-20)
(-0.0225187 1.94347 1.32348e-20)
(0.494763 1.37259 -3.43625e-19)
(0.489058 1.37578 3.75927e-19)
(0.445258 1.29176 -8.48801e-20)
(0.433403 1.29299 1.16553e-20)
(0.625517 1.29814 0)
(0.544346 1.38536 5.06273e-20)
(0.560266 1.39325 -4.92747e-20)
(0.455838 1.27764 8.19238e-20)
(0.509108 1.23237 0)
(0.561642 1.19765 0)
(0.655733 2.42435 6.41671e-19)
(0.670102 2.4611 1.349e-18)
(0.715609 2.473 -9.29203e-19)
(0.614987 2.44862 -2.15449e-19)
(0.561424 2.5406 3.05849e-19)
(0.511282 2.51395 -8.11921e-19)
(0.975589 2.37864 -6.19738e-19)
(1.01165 2.39278 0)
(0.921148 2.16763 -7.15231e-19)
(1.05254 2.68466 0)
(1.05463 2.6713 0)
(0.613191 2.27672 -1.37956e-19)
(1.04239 3.16433 1.12981e-19)
(0.913635 3.03437 -1.58411e-20)
(0.281979 0.915173 0)
(0.323498 0.776628 -3.33826e-19)
(0.481704 0.732038 -3.39499e-19)
(0.392184 2.02381 0)
(0.467799 2.78617 -3.38199e-20)
(0.424709 2.55018 0)
(0.686668 0.679754 -9.11473e-19)
(0.768394 0.680145 1.24814e-18)
(0.788814 0.622657 -1.23673e-18)
(0.669935 0.642382 -1.17721e-19)
(0.726125 0.596499 -4.89074e-19)
(1.00435 2.76786 -8.59068e-20)
(1.04117 2.82487 -1.99417e-19)
(0.641606 2.15501 7.01517e-19)
(0.597182 1.71821 -4.97664e-19)
(0.699964 1.90996 -4.45541e-19)
(0.98984 2.45104 -1.17918e-19)
(0.994524 2.44563 3.34427e-19)
(0.661735 1.85089 3.06058e-20)
(0.451869 1.33648 1.62726e-19)
)
;

boundaryField
{
    wall-4
    {
        type            noSlip;
    }
    velocity-inlet-5
    {
        type            fixedValue;
        value           uniform (1 0 0);
    }
    velocity-inlet-6
    {
        type            fixedValue;
        value           uniform (0 3 0);
    }
    pressure-outlet-7
    {
        type            zeroGradient;
    }
    wall-8
    {
        type            noSlip;
    }
    frontAndBackPlanes
    {
        type            empty;
    }
}


// ************************************************************************* //
