/*--------------------------------*- C++ -*----------------------------------*\
  =========                 |
  \\      /  F ield         | OpenFOAM: The Open Source CFD Toolbox
   \\    /   O peration     | Website:  https://openfoam.org
    \\  /    A nd           | Version:  13
     \\/     M anipulation  |
\*---------------------------------------------------------------------------*/
FoamFile
{
    format      ascii;
    class       volScalarField;
    location    "1.81";
    object      T;
}
// * * * * * * * * * * * * * * * * * * * * * * * * * * * * * * * * * * * * * //

dimensions      [0 0 0 1 0 0 0];

internalField   nonuniform List<scalar> 
1000
(
6.36076e-112
1.38069e-111
3.7351e-111
1.04273e-110
2.91853e-110
8.15928e-110
2.27736e-109
6.34566e-109
1.76515e-108
4.9017e-108
1.35884e-107
3.76053e-107
1.03893e-106
2.86534e-106
7.88897e-106
2.16829e-105
5.94932e-105
1.62955e-104
4.45571e-104
1.21623e-103
3.31407e-103
9.01475e-103
2.44789e-102
6.63549e-102
1.79555e-101
4.85027e-101
1.3079e-100
3.52065e-100
9.46043e-100
2.53768e-99
6.79515e-99
1.81634e-98
4.84652e-98
1.29091e-97
3.43237e-97
9.11013e-97
2.41371e-96
6.38373e-96
1.68536e-95
4.44157e-95
1.16844e-94
3.06833e-94
8.04304e-94
2.10456e-93
5.49698e-93
1.4332e-92
3.73001e-92
9.69015e-92
2.51286e-91
6.50461e-91
1.6807e-90
4.33482e-90
1.116e-89
2.86794e-89
7.35675e-89
1.8837e-88
4.81442e-88
1.22824e-87
3.12773e-87
7.95022e-87
2.01713e-86
5.10845e-86
1.29136e-85
3.25839e-85
8.20651e-85
2.06306e-84
5.17681e-84
1.29661e-83
3.24152e-83
8.08875e-83
2.01468e-82
5.00867e-82
1.24288e-81
3.07837e-81
7.61032e-81
1.87789e-80
4.62512e-80
1.137e-79
2.78983e-79
6.83248e-79
1.67016e-78
4.07492e-78
9.92331e-78
2.41197e-77
5.85142e-77
1.41686e-76
3.42424e-76
8.25988e-76
1.98863e-75
4.77865e-75
1.1461e-74
2.74353e-74
6.55485e-74
1.56308e-73
3.72015e-73
8.83699e-73
2.09512e-72
4.95763e-72
1.17084e-71
2.75981e-71
6.49258e-71
1.52444e-70
3.57238e-70
8.35522e-70
1.95034e-69
4.54373e-69
1.05649e-68
2.45168e-68
5.67819e-68
1.31251e-67
3.02788e-67
6.97136e-67
1.60191e-66
3.67368e-66
8.40819e-66
1.92062e-65
4.37843e-65
9.96165e-65
2.26193e-64
5.12576e-64
1.15923e-63
2.61646e-63
5.89369e-63
1.32492e-62
2.97246e-62
6.65535e-62
1.48713e-61
3.31629e-61
7.38034e-61
1.63916e-60
3.63318e-60
8.03656e-60
1.77407e-59
3.90829e-59
8.59247e-59
1.88522e-58
4.12781e-58
9.01959e-58
1.96682e-57
4.28006e-57
9.29485e-57
2.01438e-56
4.35657e-56
9.40266e-56
2.02516e-55
4.3528e-55
9.33637e-55
1.99841e-54
4.26864e-54
9.09892e-54
1.93546e-53
4.10839e-53
8.70266e-53
1.8396e-52
3.88045e-52
8.16827e-52
1.71579e-51
3.59655e-51
7.52299e-51
1.57029e-50
3.27076e-50
6.79827e-50
1.41003e-49
2.91834e-49
6.02726e-49
1.24216e-48
2.55454e-48
5.24227e-48
1.07349e-47
2.19354e-47
4.47263e-47
9.10014e-47
1.84757e-46
3.74297e-46
7.56654e-46
1.5263e-45
3.07217e-45
6.17035e-45
1.23661e-44
2.47294e-44
4.93459e-44
9.82524e-44
1.95204e-43
3.86979e-43
7.65484e-43
1.5109e-42
2.97566e-42
5.8476e-42
1.14662e-41
2.24338e-41
4.37958e-41
8.53106e-41
1.65812e-40
3.21563e-40
6.22237e-40
1.20138e-39
2.31443e-39
4.44878e-39
8.53239e-39
1.6328e-38
3.11763e-38
5.93945e-38
1.12901e-37
2.14128e-37
4.05205e-37
7.6507e-37
1.44129e-36
2.70908e-36
5.08057e-36
9.50655e-36
1.77481e-35
3.30595e-35
6.14407e-35
1.13928e-34
2.10774e-34
3.8906e-34
7.16516e-34
1.31657e-33
2.41362e-33
4.41471e-33
8.05637e-33
1.46683e-32
2.66456e-32
4.82915e-32
8.73206e-32
1.57529e-31
2.83533e-31
5.09147e-31
9.12174e-31
1.63045e-30
2.90755e-30
5.17297e-30
9.18212e-30
1.62605e-29
2.87286e-29
5.06385e-29
8.90498e-29
1.56232e-28
2.73456e-28
4.77516e-28
8.31896e-28
1.44587e-27
2.50707e-27
4.33693e-27
7.48467e-27
1.28866e-26
2.21348e-26
3.79303e-26
6.48436e-26
1.1059e-25
1.88164e-25
3.19391e-25
5.40848e-25
9.13676e-25
1.53983e-24
2.5889e-24
4.34231e-24
7.26583e-24
1.21286e-23
2.01972e-23
3.35528e-23
5.56061e-23
9.19329e-23
1.51625e-22
2.49474e-22
4.09477e-22
6.70477e-22
1.09518e-21
1.78458e-21
2.90091e-21
4.7041e-21
7.60961e-21
1.22798e-20
1.9768e-20
3.1745e-20
5.08543e-20
8.12678e-20
1.29553e-19
2.06021e-19
3.26823e-19
5.17187e-19
8.16424e-19
1.28563e-18
2.01952e-18
3.16454e-18
4.94654e-18
7.71296e-18
1.19969e-17
1.8614e-17
2.88096e-17
4.44795e-17
6.85022e-17
1.05238e-16
1.61272e-16
2.46529e-16
3.7592e-16
5.71795e-16
8.67568e-16
1.31305e-15
1.98233e-15
2.98528e-15
4.48444e-15
6.71959e-15
1.00436e-14
1.49743e-14
2.22697e-14
3.30362e-14
4.88848e-14
7.21549e-14
1.06234e-13
1.56015e-13
2.28547e-13
3.33954e-13
4.86746e-13
7.07652e-13
1.02621e-12
1.48442e-12
2.14179e-12
3.08244e-12
4.42498e-12
6.33616e-12
9.04976e-12
1.28927e-11
1.83209e-11
2.59684e-11
3.67144e-11
5.17752e-11
7.28281e-11
1.02181e-10
1.42998e-10
1.9961e-10
2.77923e-10
3.85972e-10
5.34659e-10
7.38731e-10
1.01808e-09
1.39948e-09
1.91884e-09
2.6242e-09
3.57966e-09
4.87047e-09
6.60974e-09
8.94712e-09
1.208e-08
1.62679e-08
2.18516e-08
2.92762e-08
3.91229e-08
5.21469e-08
6.93279e-08
9.19326e-08
1.21594e-07
1.60412e-07
2.11077e-07
2.7703e-07
3.62655e-07
4.73522e-07
6.16691e-07
8.01078e-07
1.03792e-06
1.34131e-06
1.72893e-06
2.22283e-06
2.85045e-06
3.64588e-06
4.65126e-06
5.91861e-06
7.51189e-06
9.50953e-06
1.20074e-05
1.51225e-05
1.89966e-05
2.3802e-05
2.97461e-05
3.70793e-05
4.61015e-05
5.71718e-05
7.07185e-05
8.72506e-05
0.000107372
0.000131794
0.000161358
0.000197047
0.000240015
0.000291606
0.000353381
0.000427151
0.000515005
0.000619347
0.000742935
0.00088892
0.00106089
0.00126292
0.00149962
0.00177618
0.00209844
0.0024729
0.00290686
0.00340838
0.00398641
0.00465078
0.00541231
0.00628282
0.00727518
0.00840335
0.00968241
0.0111286
0.0127591
0.0145927
0.0166487
0.0189479
0.021512
0.0243637
0.0275265
0.0310247
0.0348832
0.0391275
0.0437834
0.0488765
0.0544328
0.0604776
0.0670358
0.0741314
0.0817873
0.090025
0.0988642
0.108323
0.118416
0.129158
0.140557
0.15262
0.165353
0.178753
0.192818
0.20754
0.222906
0.238901
0.255505
0.272692
0.290435
0.308702
0.327454
0.346653
0.366254
0.38621
0.406473
0.42699
0.447706
0.468566
0.489512
0.510488
0.531434
0.552294
0.57301
0.593527
0.613789
0.633746
0.653347
0.672545
0.691297
0.709563
0.727306
0.744493
0.761096
0.77709
0.792456
0.807176
0.821239
0.834638
0.847368
0.859428
0.870823
0.88156
0.891647
0.901099
0.909929
0.918156
0.925798
0.932877
0.939415
0.945435
0.950962
0.95602
0.960632
0.964825
0.968622
0.972046
0.975121
0.977869
0.980309
0.982462
0.984346
0.985978
0.987372
0.988541
0.989498
0.990252
0.99081
0.991179
0.991363
0.991363
0.991179
0.99081
0.990252
0.989498
0.988541
0.987372
0.985978
0.984346
0.982462
0.980309
0.977869
0.975121
0.972046
0.968622
0.964825
0.960632
0.95602
0.950962
0.945435
0.939415
0.932877
0.925798
0.918156
0.909929
0.901099
0.891647
0.88156
0.870823
0.859428
0.847368
0.834638
0.821239
0.807176
0.792456
0.77709
0.761096
0.744493
0.727306
0.709563
0.691297
0.672545
0.653347
0.633746
0.613789
0.593527
0.57301
0.552294
0.531434
0.510488
0.489512
0.468566
0.447706
0.42699
0.406473
0.38621
0.366254
0.346653
0.327454
0.308702
0.290435
0.272692
0.255505
0.238901
0.222906
0.20754
0.192818
0.178753
0.165353
0.15262
0.140557
0.129158
0.118416
0.108323
0.0988642
0.090025
0.0817873
0.0741314
0.0670358
0.0604776
0.0544328
0.0488765
0.0437834
0.0391275
0.0348832
0.0310247
0.0275265
0.0243637
0.021512
0.0189479
0.0166487
0.0145927
0.0127591
0.0111286
0.00968241
0.00840335
0.00727518
0.00628282
0.00541231
0.00465078
0.00398641
0.00340838
0.00290686
0.0024729
0.00209844
0.00177618
0.00149962
0.00126292
0.00106089
0.00088892
0.000742935
0.000619347
0.000515005
0.000427151
0.000353381
0.000291606
0.000240015
0.000197047
0.000161358
0.000131794
0.000107372
8.72506e-05
7.07185e-05
5.71718e-05
4.61015e-05
3.70793e-05
2.97461e-05
2.3802e-05
1.89966e-05
1.51225e-05
1.20074e-05
9.50953e-06
7.51189e-06
5.91861e-06
4.65126e-06
3.64588e-06
2.85045e-06
2.22283e-06
1.72893e-06
1.34131e-06
1.03792e-06
8.01078e-07
6.16691e-07
4.73522e-07
3.62655e-07
2.7703e-07
2.11077e-07
1.60412e-07
1.21594e-07
9.19326e-08
6.93279e-08
5.21469e-08
3.91229e-08
2.92762e-08
2.18516e-08
1.62679e-08
1.208e-08
8.94712e-09
6.60974e-09
4.87047e-09
3.57966e-09
2.6242e-09
1.91884e-09
1.39948e-09
1.01808e-09
7.38731e-10
5.34659e-10
3.85972e-10
2.77923e-10
1.9961e-10
1.42998e-10
1.02181e-10
7.28281e-11
5.17752e-11
3.67144e-11
2.59684e-11
1.83209e-11
1.28927e-11
9.04976e-12
6.33616e-12
4.42498e-12
3.08244e-12
2.14179e-12
1.48442e-12
1.02621e-12
7.07652e-13
4.86746e-13
3.33954e-13
2.28547e-13
1.56015e-13
1.06234e-13
7.21549e-14
4.88848e-14
3.30362e-14
2.22697e-14
1.49743e-14
1.00436e-14
6.71959e-15
4.48444e-15
2.98528e-15
1.98233e-15
1.31305e-15
8.67568e-16
5.71795e-16
3.7592e-16
2.46529e-16
1.61272e-16
1.05238e-16
6.85022e-17
4.44795e-17
2.88096e-17
1.8614e-17
1.19969e-17
7.71296e-18
4.94654e-18
3.16454e-18
2.01952e-18
1.28563e-18
8.16424e-19
5.17187e-19
3.26823e-19
2.06021e-19
1.29553e-19
8.12678e-20
5.08543e-20
3.1745e-20
1.9768e-20
1.22798e-20
7.60961e-21
4.7041e-21
2.90091e-21
1.78458e-21
1.09518e-21
6.70477e-22
4.09477e-22
2.49474e-22
1.51625e-22
9.19329e-23
5.56061e-23
3.35528e-23
2.01972e-23
1.21286e-23
7.26583e-24
4.34231e-24
2.5889e-24
1.53983e-24
9.13676e-25
5.40848e-25
3.19391e-25
1.88164e-25
1.1059e-25
6.48436e-26
3.79303e-26
2.21348e-26
1.28866e-26
7.48467e-27
4.33693e-27
2.50707e-27
1.44587e-27
8.31896e-28
4.77516e-28
2.73456e-28
1.56232e-28
8.90498e-29
5.06385e-29
2.87286e-29
1.62605e-29
9.18212e-30
5.17297e-30
2.90755e-30
1.63045e-30
9.12174e-31
5.09147e-31
2.83533e-31
1.57529e-31
8.73206e-32
4.82915e-32
2.66456e-32
1.46683e-32
8.05637e-33
4.41471e-33
2.41362e-33
1.31657e-33
7.16516e-34
3.8906e-34
2.10774e-34
1.13928e-34
6.14407e-35
3.30595e-35
1.77481e-35
9.50655e-36
5.08057e-36
2.70908e-36
1.44129e-36
7.6507e-37
4.05205e-37
2.14128e-37
1.12901e-37
5.93945e-38
3.11763e-38
1.6328e-38
8.53239e-39
4.44878e-39
2.31443e-39
1.20138e-39
6.22237e-40
3.21563e-40
1.65812e-40
8.53106e-41
4.37958e-41
2.24338e-41
1.14662e-41
5.8476e-42
2.97566e-42
1.5109e-42
7.65484e-43
3.86979e-43
1.95204e-43
9.82524e-44
4.93459e-44
2.47294e-44
1.23661e-44
6.17035e-45
3.07217e-45
1.5263e-45
7.56654e-46
3.74297e-46
1.84757e-46
9.10014e-47
4.47263e-47
2.19354e-47
1.07349e-47
5.24227e-48
2.55454e-48
1.24216e-48
6.02726e-49
2.91834e-49
1.41003e-49
6.79827e-50
3.27076e-50
1.57029e-50
7.52299e-51
3.59655e-51
1.71579e-51
8.16827e-52
3.88045e-52
1.8396e-52
8.70266e-53
4.10839e-53
1.93546e-53
9.09892e-54
4.26864e-54
1.99841e-54
9.33637e-55
4.3528e-55
2.02516e-55
9.40266e-56
4.35657e-56
2.01438e-56
9.29485e-57
4.28006e-57
1.96682e-57
9.01959e-58
4.12781e-58
1.88522e-58
8.59247e-59
3.90829e-59
1.77407e-59
8.03656e-60
3.63318e-60
1.63916e-60
7.38034e-61
3.31629e-61
1.48713e-61
6.65535e-62
2.97246e-62
1.32492e-62
5.89369e-63
2.61646e-63
1.15923e-63
5.12576e-64
2.26193e-64
9.96165e-65
4.37843e-65
1.92062e-65
8.40819e-66
3.67368e-66
1.60191e-66
6.97136e-67
3.02788e-67
1.31251e-67
5.67819e-68
2.45168e-68
1.05649e-68
4.54373e-69
1.95034e-69
8.35522e-70
3.57238e-70
1.52444e-70
6.49258e-71
2.75981e-71
1.17084e-71
4.95763e-72
2.09512e-72
8.83699e-73
3.72015e-73
1.56308e-73
6.55485e-74
2.74353e-74
1.1461e-74
4.77865e-75
1.98863e-75
8.25988e-76
3.42424e-76
1.41686e-76
5.85142e-77
2.41197e-77
9.92331e-78
4.07492e-78
1.67016e-78
6.83248e-79
2.78983e-79
1.137e-79
4.62512e-80
1.87789e-80
7.61032e-81
3.07837e-81
1.24288e-81
5.00867e-82
2.01468e-82
8.08875e-83
3.24152e-83
1.29661e-83
5.17681e-84
2.06306e-84
8.20651e-85
3.25839e-85
1.29136e-85
5.10845e-86
2.01713e-86
7.95022e-87
3.12773e-87
1.22824e-87
4.81442e-88
1.8837e-88
7.35675e-89
2.86794e-89
1.116e-89
4.33482e-90
1.6807e-90
6.50461e-91
2.51286e-91
9.69015e-92
3.73001e-92
1.4332e-92
5.49698e-93
2.10456e-93
8.04304e-94
3.06833e-94
1.16844e-94
4.44157e-95
1.68536e-95
6.38373e-96
2.41371e-96
9.11013e-97
3.43237e-97
1.29091e-97
4.84652e-98
1.81634e-98
6.79515e-99
2.53768e-99
9.46043e-100
3.52065e-100
1.3079e-100
4.85027e-101
1.79555e-101
6.63549e-102
2.44789e-102
9.01475e-103
3.31407e-103
1.21623e-103
4.45571e-104
1.62955e-104
5.94932e-105
2.16829e-105
7.88897e-106
2.86534e-106
1.03893e-106
3.76053e-107
1.35884e-107
4.9017e-108
1.76515e-108
6.34566e-109
2.27736e-109
8.15928e-110
2.91853e-110
1.04273e-110
3.7351e-111
1.38069e-111
6.36076e-112
)
;

boundaryField
{
    sides
    {
        type            zeroGradient;
    }
    empty
    {
        type            empty;
    }
}


// ************************************************************************* //
