/*--------------------------------*- C++ -*----------------------------------*\
  =========                 |
  \\      /  F ield         | OpenFOAM: The Open Source CFD Toolbox
   \\    /   O peration     | Website:  https://openfoam.org
    \\  /    A nd           | Version:  13
     \\/     M anipulation  |
\*---------------------------------------------------------------------------*/
FoamFile
{
    format      ascii;
    class       volScalarField;
    location    "26";
    object      p;
}
// * * * * * * * * * * * * * * * * * * * * * * * * * * * * * * * * * * * * * //

dimensions      [0 2 -2 0 0 0 0];

internalField   nonuniform List<scalar> 
918
(
0.244401
0.913823
0.0316971
0.243699
-0.00352536
0.880872
-0.815782
0.420035
0.224479
-0.396103
-0.416334
0.215942
0.741588
0.508199
-1.441
-0.191028
0.373892
-0.693892
0.223471
-0.0604999
0.469947
0.231123
0.234166
0.224763
0.285853
0.490868
0.622421
0.0106932
0.0238848
0.0110229
-0.0133576
-0.0520274
-0.0694805
0.764504
0.8156
0.838277
0.193349
0.0207934
-0.671059
-0.744715
-0.732802
-0.861849
0.411841
0.416326
-0.478378
0.420439
0.432547
0.211886
0.223821
0.224757
0.225878
0.224789
0.2262
0.11781
-0.401334
-0.436452
-0.378458
-0.370181
-0.201408
-0.417156
-0.398503
-0.413842
-0.388018
0.146793
0.213064
0.210288
0.220781
0.22845
0.85337
0.825274
0.851406
0.765172
0.781616
0.719539
0.692009
0.528247
0.549922
0.493898
0.480408
-1.88332
-2.85468
-0.840467
-0.583933
-0.00748656
-0.221241
-0.248786
0.363336
0.366239
0.37311
0.386145
0.76894
-0.688172
-0.830121
0.223527
0.222319
0.230854
0.231538
0.227546
0.226642
-0.0970757
-0.148172
-0.0165562
-0.0417502
-0.039223
0.455318
0.450846
0.225322
0.22236
0.236084
0.25859
0.248276
-0.0126736
0.293318
0.311888
0.307777
0.476325
0.473363
0.481136
0.596099
0.55934
0.659449
0.682808
0.0128532
0.00624908
-0.177061
-0.0959456
-0.124971
0.189434
0.182456
0.207512
0.196627
0.198914
-0.0635068
-0.199856
0.10643
0.129598
-0.580391
-0.645645
-0.75213
-0.766205
-0.874583
0.264595
0.402951
0.404446
-0.495669
-0.41467
-0.556182
-0.340994
-0.406709
0.202309
0.209221
0.204262
0.219568
0.214113
0.216049
0.22811
0.225193
0.226733
0.182687
0.303868
0.0536114
0.0293585
-0.551015
-0.451674
-0.53984
-0.355977
-0.362075
-0.202759
-0.165324
-0.209542
-0.201777
-0.364531
-0.381671
-0.36791
-0.367946
-0.326321
0.139761
0.129336
0.157969
0.164995
0.204851
0.205949
0.208106
0.206911
0.642794
0.665283
0.672646
0.646265
-3.86521
-6.68782
-0.251634
-0.110621
-0.00152533
0.000222401
0.00060147
-0.000942548
-0.00186346
-0.0142772
-0.249592
-0.25966
-0.26085
-0.267474
0.347982
0.349093
0.685373
0.678042
0.671103
0.624815
0.211617
0.213785
0.219328
0.21518
-0.289808
-0.198333
-0.236464
0.429685
0.441882
0.440449
-0.048304
-0.133212
0.0333994
0.0605006
0.334125
0.317172
0.333281
0.371262
0.407679
0.690313
0.708551
0.706791
0.71511
0.759092
0.775452
0.740859
0.170344
0.179652
0.174756
0.210799
0.208397
0.209406
0.204496
0.206128
0.203757
-0.353509
-0.74085
0.188249
0.208232
0.176026
0.191576
0.341091
0.413877
0.383739
0.394293
0.395771
-0.274098
-0.335291
-0.0204251
-0.0608301
0.0853013
0.118198
0.100265
0.614017
0.574093
0.62419
0.597672
0.558832
0.585419
-0.692805
-2.21932
-1.32357
0.249064
0.0578895
0.147938
-0.212687
-0.228018
-0.220222
0.664939
0.745504
0.360392
0.520825
0.53349
0.444284
0.475464
0.533111
0.457536
0.49327
0.528452
0.507879
0.224576
0.199073
0.193551
0.484585
0.540458
-0.160755
-0.213194
-0.261713
-0.164269
-0.109959
-0.130144
0.713323
0.601233
0.676699
0.222083
0.222766
-0.00265282
-0.0178151
0.226871
0.226939
-0.0148001
-0.0458027
0.129271
-1.15073
-0.172593
0.215255
0.205734
0.222433
-0.381664
0.0764643
-0.422408
-0.205989
-0.278087
0.213609
0.156209
0.120168
0.00210251
-0.183365
-0.118389
-0.506081
0.219735
0.218072
0.221928
0.222971
0.223604
-0.010715
-0.0175117
-0.00665794
-0.104492
-0.0488605
-0.0526995
0.187671
0.203992
-0.467304
0.222117
0.224209
0.224068
0.217117
0.222906
0.221034
-0.121348
-0.0759901
-0.15716
-0.0621745
0.0542948
0.379989
0.479576
0.342177
0.113998
-0.12774
0.278123
0.344814
0.245426
0.406652
0.393189
0.409847
-0.11145
-0.258284
-0.103878
-0.158144
0.213214
0.211836
0.203975
0.201167
0.217344
0.21538
0.22005
0.216891
0.219888
0.221283
-0.341532
-0.366496
-0.378944
-0.441779
0.0355555
0.293367
-0.032403
0.00811385
-0.138929
-0.459522
-0.41662
-0.40902
-0.38553
-0.363473
-0.278589
-0.242143
-0.217121
-0.322027
-0.31936
-0.430125
-0.354194
-0.376534
0.207687
0.206647
0.212771
0.219715
0.16532
0.168911
0.136721
0.155411
0.140662
0.086754
0.119858
0.095644
-0.0074534
0.000914583
0.00163009
-0.194374
-0.299548
-0.0914494
-0.0385484
-0.04758
-0.0409797
-0.0533571
-0.194382
-0.217285
-0.466996
-0.583938
0.670167
0.61665
-0.189958
0.208963
0.215364
0.212184
0.216865
0.219986
0.220877
0.218629
0.21524
0.204702
0.206564
0.202644
0.203058
-0.409362
-0.543822
-0.368029
-0.434553
-0.173118
0.324632
0.0671507
0.0076694
0.00305948
0.218695
0.620497
0.421138
0.428609
0.453729
-0.650955
-0.251089
-0.58273
0.0381156
-0.140071
0.379466
0.429387
0.45071
0.398314
0.349323
-0.426825
0.231093
-0.353315
-0.31018
-0.120852
-0.223111
0.420824
0.377117
0.382808
0.397291
0.41661
0.381199
0.359977
0.357318
0.393232
0.39822
0.19158
-0.0300739
-0.0748949
-0.112001
0.358311
0.232561
0.288725
0.205066
0.207983
0.210885
0.209387
0.192409
0.199662
0.195488
0.200634
0.203752
0.213134
0.213543
0.208797
0.211254
-0.34489
-0.353224
-0.318762
-0.429324
-0.422011
-0.46782
-0.361265
-0.232111
-0.270209
-0.0722433
0.0383863
-0.25664
-0.368926
-0.337556
-0.309984
-0.127693
-0.103592
-0.206148
-0.115858
-0.116495
-0.13531
-0.0287225
-0.0258332
-0.423654
-0.361861
-0.351383
-0.409251
-0.257578
-0.182111
-0.178849
-0.479445
-0.51529
-0.418146
-0.371328
-0.304071
-0.320295
-0.334258
-0.273063
-0.174344
-0.184791
-0.255534
-0.455474
-0.34512
-0.378201
0.202912
0.204388
0.204497
0.214812
0.226918
0.24193
0.207641
0.185617
0.177184
0.180198
0.155459
0.165256
0.160094
0.173129
0.192464
0.199401
0.198962
0.201109
0.18534
0.186954
0.17463
0.177575
0.155356
0.138578
0.12769
-0.0911085
-0.0551974
-0.0838861
-0.0859187
-0.0238311
-0.046305
-0.323097
-0.272444
-0.315927
-0.291918
-0.363395
-0.117654
-0.136616
-0.380492
-0.305071
-0.492849
-0.523084
-0.593493
0.580498
0.687995
0.508461
0.293279
0.297028
0.524274
0.619027
0.258643
0.430716
0.460712
0.236613
0.504572
0.213849
0.213363
0.210927
0.210396
0.211916
-0.325585
-0.225498
-0.208125
-0.160776
-0.0427085
0.0732405
-0.0204286
-0.146304
-0.00646265
0.00398313
0.319762
0.336346
0.280666
0.305865
0.304658
0.131668
0.207135
0.262217
0.217115
0.260645
0.282602
0.24357
0.27327
0.221565
0.179578
0.178409
0.124537
0.145269
0.123059
0.104954
0.203558
0.182506
0.192145
0.183866
0.203527
0.231351
0.226325
0.252798
0.264806
0.188905
0.150814
0.159608
0.186775
0.149166
0.162176
0.176735
-0.102287
-0.202125
-0.113823
-0.406305
-0.318567
-0.334437
-0.380067
-0.340416
-0.0535689
-0.755234
-0.725353
-1.3624
0.168921
0.647385
0.377714
0.350126
0.413644
0.390871
0.394316
0.421393
0.427865
0.347514
0.366957
0.369418
0.320206
0.346892
0.371455
0.369193
0.201109
0.0837381
0.0751307
0.0364979
-0.0854542
-0.0545711
0.14865
0.0709805
-0.00148521
0.0031737
0.166948
0.0582714
0.123252
0.16114
0.0947633
0.051363
0.248261
0.315964
0.307433
0.281672
0.196826
0.208744
0.235284
0.271728
0.298057
0.333394
0.200843
0.206214
0.207452
0.204941
0.202448
0.205186
0.205151
0.2077
0.208633
0.211634
0.210552
-0.35561
-0.335352
-0.344891
-0.358149
-0.317006
-0.319325
-0.269305
-0.281557
-0.295397
-0.284743
-0.324173
-0.326472
-0.336346
-0.323626
-0.194121
-0.184217
-0.197677
-0.237877
-0.056561
0.0792509
0.1416
0.0256377
-0.0796884
-0.0551092
-0.0279132
-0.286162
-0.27788
-0.300404
-0.231016
-0.240106
-0.473264
-0.467774
-0.467527
-0.538767
-0.477128
-0.408836
-0.27267
-0.322421
-0.351362
-0.344733
-0.302167
0.187354
0.181053
0.183256
0.177568
0.176232
0.189719
0.19371
0.195237
0.199824
0.20139
0.193352
0.197674
0.200923
-0.34504
-0.215627
-0.274862
-0.333226
-0.249209
-0.186595
-0.224855
-0.20317
-0.270098
-0.262774
-0.307189
-0.430114
-0.372544
0.153778
0.146532
0.164547
0.378802
0.233043
0.149725
0.239633
0.342917
-0.058856
0.143429
-0.0263045
0.555376
0.44283
0.585388
0.215391
-0.0861972
0.0655338
0.120228
-0.0779057
-0.00746798
0.0147745
-0.0958841
-0.0660652
-0.0371179
0.0645198
-0.0582691
-0.0875597
-0.333703
-0.149839
-0.0197755
-0.0419905
0.0932689
0.158039
-0.072995
-0.149074
-0.191814
0.310211
0.330891
0.349685
0.319385
0.343429
0.26611
0.25666
0.27546
0.285085
0.27901
-1.09056
-0.799207
-1.74095
-1.04884
-0.60175
0.204391
0.158699
0.446518
0.333764
0.408341
0.390658
0.347894
0.312008
0.321959
0.357217
0.0595982
0.168526
0.142716
0.149829
0.0535826
-0.0137302
0.285152
0.27861
0.316381
0.340815
0.306369
0.340865
0.19858
0.19809
0.197792
0.19451
0.192668
0.194799
-0.228794
-0.253696
-0.224155
-0.243062
-0.258998
-0.273166
-0.456606
-0.438745
-0.413637
-0.380803
-0.41186
-0.431157
-0.167261
-0.223456
-0.292028
-0.266657
-0.320752
-0.386465
-0.402872
-0.305901
-0.218332
-0.225563
0.0771211
0.329432
0.154584
0.324982
0.162782
0.22024
0.161838
0.157748
0.190374
0.0555192
0.130387
-0.106766
-0.610398
-0.517142
0.459686
0.48045
0.270359
0.0782899
-0.149889
0.0431835
0.23068
0.169185
0.209871
0.277407
0.271689
-0.321041
-0.248834
-0.00602829
0.221034
-0.0945738
-0.101296
-0.106072
0.0595172
-0.0127458
)
;

boundaryField
{
    wall-4
    {
        type            zeroGradient;
    }
    velocity-inlet-5
    {
        type            zeroGradient;
    }
    velocity-inlet-6
    {
        type            zeroGradient;
    }
    pressure-outlet-7
    {
        type            fixedValue;
        value           uniform 0;
    }
    wall-8
    {
        type            zeroGradient;
    }
    frontAndBackPlanes
    {
        type            empty;
    }
}


// ************************************************************************* //
