/*--------------------------------*- C++ -*----------------------------------*\
  =========                 |
  \\      /  F ield         | OpenFOAM: The Open Source CFD Toolbox
   \\    /   O peration     | Website:  https://openfoam.org
    \\  /    A nd           | Version:  13
     \\/     M anipulation  |
\*---------------------------------------------------------------------------*/
FoamFile
{
    format      ascii;
    class       volScalarField;
    location    "0.005";
    object      mag(U);
}
// * * * * * * * * * * * * * * * * * * * * * * * * * * * * * * * * * * * * * //

dimensions      [0 1 -1 0 0 0 0];

internalField   nonuniform List<scalar> 
1000
(
3.96774e-12
4.1355e-12
4.25657e-12
3.47469e-12
3.075e-12
5.06179e-12
5.36812e-12
6.5497e-12
5.49941e-12
6.4257e-12
5.09534e-12
6.19814e-12
5.65112e-12
7.43952e-12
6.03768e-12
6.22148e-12
5.41335e-12
5.37834e-12
3.29819e-12
3.61473e-12
1.82487e-12
2.79201e-12
3.61911e-12
2.54402e-12
2.75116e-12
1.90072e-12
2.56445e-12
2.14725e-12
2.51485e-12
1.63378e-13
6.30171e-13
2.85911e-13
5.58693e-13
4.81381e-14
1.37558e-12
8.05219e-13
1.26472e-12
2.20706e-12
1.98825e-12
3.04874e-12
1.52437e-12
1.57835e-12
2.35439e-12
3.68621e-12
1.11447e-12
2.35439e-12
1.93428e-12
1.38433e-12
2.12975e-13
1.75048e-12
7.76044e-13
3.18003e-13
7.22071e-13
1.72568e-12
1.95762e-12
1.52437e-12
2.32376e-12
1.31286e-12
1.44122e-12
5.45565e-13
1.87447e-12
8.81073e-13
1.58856e-12
1.29973e-12
1.04591e-12
3.13627e-13
7.76044e-13
4.21573e-13
7.08943e-13
5.32436e-13
1.17282e-12
1.59585e-12
1.74172e-12
1.48207e-12
2.71178e-12
1.59731e-12
1.51562e-12
1.04737e-12
1.00215e-12
3.15669e-12
1.47915e-12
1.40038e-12
4.50747e-13
2.31355e-12
1.18449e-12
2.7993e-12
2.10057e-12
1.9795e-12
8.271e-13
3.40467e-12
2.46234e-12
3.89918e-12
2.85619e-12
3.79416e-12
1.26618e-12
3.56659e-12
2.55132e-12
3.79999e-12
2.87953e-12
2.86786e-12
2.1808e-12
3.15377e-12
3.38571e-12
3.9269e-12
3.64974e-12
3.45135e-12
1.89781e-12
2.03055e-12
1.06341e-12
1.64545e-12
2.93642e-12
2.97289e-12
2.13266e-12
1.06487e-12
1.16698e-14
9.58385e-13
5.83492e-15
1.72568e-12
2.53819e-12
3.34633e-12
4.46225e-12
3.50533e-12
3.63661e-12
3.36821e-12
2.70448e-12
1.95616e-12
2.81243e-12
2.62571e-12
2.16475e-12
2.5907e-12
3.76644e-12
2.7322e-12
2.70886e-12
3.35508e-12
2.32376e-12
4.28866e-12
3.21212e-12
2.58195e-12
3.31277e-12
1.52291e-12
1.39163e-12
2.0641e-12
1.45873e-12
1.68046e-12
6.87062e-13
1.69359e-12
2.11662e-12
1.2195e-12
3.35508e-13
2.32667e-12
1.23117e-12
2.06994e-12
2.61988e-12
3.14794e-12
2.3894e-12
2.18664e-12
2.25957e-12
3.14648e-12
3.40905e-12
3.5841e-12
4.2697e-12
2.95101e-12
2.58049e-12
3.3332e-12
3.41197e-12
4.27262e-12
3.4849e-12
4.06548e-12
4.18947e-12
4.56582e-12
5.28935e-12
4.31055e-12
4.00567e-12
3.7431e-12
2.92038e-12
2.57903e-12
2.2479e-12
2.39086e-12
1.59439e-12
3.74894e-13
3.34049e-13
7.61457e-13
2.28875e-12
1.64836e-12
1.75923e-12
2.93351e-12
4.65481e-12
2.18226e-12
1.43539e-12
1.02549e-12
5.76198e-13
8.63568e-13
4.77005e-13
9.29211e-13
7.49787e-13
6.8852e-13
1.98387e-13
3.96774e-13
1.06196e-12
1.53167e-13
1.40622e-12
2.29021e-13
2.12683e-12
1.54188e-12
7.77503e-13
2.47984e-13
3.83646e-13
8.7232e-13
2.01305e-13
5.07638e-13
1.3785e-12
2.74241e-13
5.60152e-13
1.45873e-14
1.31577e-12
1.63961e-12
1.6046e-13
1.10863e-12
5.42647e-13
1.5871e-12
8.1543e-13
9.55468e-13
2.8737e-13
4.41995e-13
2.47984e-14
5.2806e-13
1.03424e-12
9.27752e-13
8.67944e-13
3.06333e-13
4.97427e-13
1.30994e-12
9.43798e-13
1.37704e-12
1.6046e-14
2.46525e-13
1.75339e-12
1.43831e-12
9.93395e-13
3.93857e-13
8.62109e-13
1.18157e-13
3.86563e-13
8.21265e-13
1.41059e-12
6.71016e-13
1.26909e-13
2.757e-13
4.27408e-13
6.79768e-13
1.25159e-12
1.12614e-12
1.95032e-12
7.9209e-13
4.31784e-13
3.7927e-13
1.08384e-12
1.05029e-12
1.18449e-12
3.94295e-12
1.34261e-11
2.87793e-11
6.4187e-11
1.38795e-10
2.99251e-10
6.37366e-10
1.3433e-09
2.80338e-09
5.80386e-09
1.19185e-08
2.42811e-08
4.90655e-08
9.83409e-08
1.95476e-07
3.85307e-07
7.53033e-07
1.45901e-06
2.80208e-06
5.33351e-06
1.00598e-05
1.87992e-05
3.48007e-05
6.38053e-05
0.000115841
0.000208219
0.000370455
0.000652242
0.00113615
0.00195752
0.00333501
0.00561666
0.00934777
0.0153685
0.0249505
0.0399815
0.063206
0.0985224
0.151325
0.228853
0.340482
0.497799
0.714269
1.00406
1.37929
1.84551
2.40128
3.04352
3.76992
4.57725
5.46091
6.41535
7.43449
8.51212
9.64215
10.8188
12.037
13.2917
14.5789
15.8948
17.2362
18.6001
19.9843
21.3863
22.8046
24.2373
25.683
27.1406
28.6089
30.087
31.574
33.0692
34.572
36.0816
37.5977
39.1197
40.6472
42.1799
43.7174
45.2594
46.8056
48.3557
49.9096
51.467
53.0277
54.5915
56.1584
57.728
59.3003
60.8751
62.4524
64.032
65.6138
67.1977
68.7835
70.3713
71.9609
73.5523
75.1454
76.74
78.3362
79.9338
81.5329
83.1333
84.735
86.3379
87.942
89.5472
91.1535
92.7609
94.3692
95.9785
97.5887
99.1997
100.812
102.424
104.038
105.652
107.267
108.882
110.498
112.115
113.732
115.35
116.968
118.587
120.206
121.825
123.445
125.065
126.686
128.307
129.928
131.549
133.171
134.793
136.415
138.037
139.659
141.282
142.904
144.527
146.149
147.772
149.395
151.017
152.64
154.263
155.885
157.507
159.13
160.752
162.374
163.995
165.617
167.238
168.859
170.48
172.101
173.721
175.341
176.96
178.579
180.198
181.816
183.433
185.05
186.667
188.283
189.898
191.513
193.127
194.74
196.353
197.964
199.576
201.186
202.794
204.402
206.009
207.616
209.221
210.824
212.424
214.025
215.627
217.227
218.823
220.415
222.007
223.6
225.192
226.78
228.367
229.954
231.535
233.106
234.674
236.259
237.862
239.454
240.997
242.507
244.064
245.702
247.364
248.957
250.412
251.866
253.501
255.269
257.03
258.644
260.032
261.399
262.963
264.641
266.263
267.742
269.099
270.333
271.689
273.356
275.096
276.704
277.987
279.012
280.234
281.734
283.196
284.472
285.382
286.12
287.094
288.185
289.136
289.841
290.236
290.588
291.117
291.66
292.127
292.507
292.747
292.902
293.111
293.356
293.578
293.767
293.932
294.033
294.06
294.105
294.189
294.27
294.348
294.424
294.466
294.493
294.545
294.606
294.661
294.715
294.76
294.777
294.784
294.801
294.822
294.836
294.841
294.847
294.842
294.823
294.8
294.774
294.744
294.723
294.703
294.668
294.626
294.588
294.552
294.507
294.475
294.454
294.42
294.373
294.327
294.292
294.26
294.219
294.185
294.162
294.139
294.11
294.069
294.022
294.004
294.006
293.993
293.96
293.923
293.903
293.9
293.896
293.878
293.854
293.835
293.827
293.822
293.808
293.788
293.776
293.776
293.767
293.744
293.726
293.728
293.734
293.725
293.702
293.685
293.688
293.697
293.689
293.669
293.659
293.662
293.668
293.661
293.644
293.633
293.636
293.645
293.639
293.621
293.61
293.616
293.623
293.614
293.597
293.589
293.597
293.602
293.589
293.57
293.566
293.577
293.58
293.566
293.549
293.543
293.551
293.559
293.547
293.526
293.521
293.529
293.534
293.523
293.507
293.501
293.511
293.52
293.509
293.489
293.488
293.504
293.51
293.497
293.482
293.485
293.505
293.524
293.524
293.52
293.543
293.588
293.629
293.657
293.684
293.727
293.786
293.837
293.851
293.836
293.815
293.781
293.698
293.55
293.371
293.217
293.143
293.144
293.167
293.198
293.261
293.34
293.389
293.387
293.365
293.371
293.401
293.419
293.401
293.372
293.374
293.403
293.422
293.4
293.365
293.365
293.395
293.411
293.393
293.366
293.366
293.389
293.404
293.389
293.367
293.371
293.392
293.402
293.391
293.376
293.38
293.397
293.406
293.397
293.385
293.385
293.397
293.406
293.399
293.388
293.389
293.401
293.407
293.402
293.393
293.394
293.406
293.414
293.409
293.397
293.394
293.406
293.419
293.413
293.395
293.391
293.404
293.416
293.409
293.39
293.384
293.397
293.406
293.395
293.374
293.368
293.382
293.39
293.369
293.341
293.338
293.357
293.359
293.327
293.29
293.289
293.31
293.305
293.263
293.222
293.211
293.221
293.219
293.175
293.118
293.089
293.083
293.073
293.024
292.955
292.903
292.869
292.838
292.784
292.692
292.599
292.525
292.453
292.372
292.243
292.081
291.937
291.809
291.683
291.503
291.234
290.957
290.714
290.477
290.196
289.74
289.137
288.511
287.813
286.95
285.727
283.797
281.13
277.722
272.866
265.196
252.179
227.071
167.431
66.2975
11.4459
1.7881
0.263169
0.0386268
0.00566402
0.00083016
0.000121678
1.78323e-05
2.61319e-06
3.82937e-07
5.61152e-08
8.22435e-09
1.20609e-09
1.77407e-10
2.61317e-11
4.91009e-12
2.25228e-12
2.71178e-12
2.11808e-12
1.6542e-12
1.56084e-12
1.6046e-14
1.77674e-12
1.52875e-12
3.28944e-12
1.838e-13
2.09911e-12
2.32522e-12
1.50833e-12
1.64399e-12
5.47024e-13
3.15524e-12
2.65052e-12
4.17635e-12
7.16237e-13
2.20414e-12
2.33397e-13
2.13267e-12
1.86718e-13
1.64107e-12
6.0975e-13
1.91094e-12
1.78549e-12
2.79493e-12
2.68844e-12
2.24936e-12
2.6476e-12
3.82479e-12
3.62932e-12
5.00637e-12
2.2727e-12
2.86787e-12
1.29681e-12
2.77305e-12
1.28077e-12
2.2975e-12
9.61304e-13
1.10134e-12
1.02257e-12
3.19316e-12
1.25013e-12
1.55355e-12
1.14802e-12
3.22088e-12
5.01804e-13
1.65128e-12
3.99255e-12
2.96414e-12
3.15086e-13
2.50318e-12
3.11147e-12
1.46019e-12
2.01888e-12
1.09697e-12
2.35148e-12
2.04368e-12
2.57174e-12
1.10864e-12
2.38357e-12
2.71032e-12
3.83355e-12
3.65558e-12
2.62863e-12
1.5871e-12
1.4777e-12
1.91094e-12
6.76851e-13
2.64468e-12
2.19539e-12
3.71977e-12
2.91017e-12
3.959e-12
1.4281e-12
1.85405e-12
5.04721e-13
1.92844e-12
2.39524e-12
1.78986e-12
2.62134e-12
1.84967e-12
2.51339e-12
1.29098e-12
2.72637e-12
1.23992e-13
1.54188e-12
1.49958e-12
1.72714e-12
1.79278e-12
1.07071e-12
1.56084e-13
7.87715e-14
1.19178e-12
2.57904e-12
4.58188e-12
4.5279e-12
4.9203e-12
5.87723e-12
5.44253e-12
5.00199e-12
4.49581e-12
4.76422e-12
4.79047e-12
7.31262e-12
6.26379e-12
7.72982e-12
5.50525e-12
4.78902e-12
3.06334e-12
4.10487e-12
2.25958e-12
2.46088e-12
8.47523e-13
1.9299e-12
2.10495e-12
1.87885e-12
4.54103e-12
3.84376e-12
3.45136e-12
2.76576e-12
2.47839e-12
3.78687e-12
1.68484e-12
3.28069e-12
1.85551e-12
1.4529e-12
2.28e-12
1.4777e-12
1.07654e-12
1.74173e-12
1.10572e-12
1.56376e-12
2.74971e-12
2.42733e-12
3.12169e-12
3.86272e-12
3.05313e-12
4.62418e-12
4.719e-12
5.50671e-12
4.28138e-12
6.17189e-12
5.72698e-12
5.10848e-12
4.65627e-12
3.26318e-12
4.49143e-12
3.88023e-12
3.23984e-12
2.45796e-12
4.27992e-12
4.17635e-12
3.0648e-12
1.94741e-12
1.50687e-12
1.30848e-12
2.10787e-12
2.17497e-12
1.43831e-12
3.22963e-12
3.77374e-12
4.19094e-12
2.88537e-12
3.7008e-12
3.67309e-12
4.60959e-12
5.28936e-12
5.26894e-12
5.59715e-12
3.39884e-12
5.46149e-12
4.02756e-12
3.35217e-12
3.67746e-12
3.84376e-12
4.05819e-12
3.63662e-12
4.66065e-12
4.12821e-12
4.36161e-12
5.32583e-12
5.43815e-12
6.40091e-12
6.22878e-12
6.07562e-12
6.11646e-12
6.2317e-12
6.54241e-12
4.77297e-12
6.06249e-12
6.27984e-12
8.07408e-12
5.94141e-12
6.49427e-12
5.92391e-12
6.65036e-12
6.92168e-12
7.39869e-12
7.85819e-12
8.45627e-12
7.7765e-12
)
;

boundaryField
{
    sides
    {
        type            calculated;
        value           nonuniform List<scalar> 2(7.7765e-12 3.96774e-12);
    }
    empty
    {
        type            empty;
    }
}


// ************************************************************************* //
