/*--------------------------------*- C++ -*----------------------------------*\
  =========                 |
  \\      /  F ield         | OpenFOAM: The Open Source CFD Toolbox
   \\    /   O peration     | Website:  https://openfoam.org
    \\  /    A nd           | Version:  13
     \\/     M anipulation  |
\*---------------------------------------------------------------------------*/
FoamFile
{
    format      ascii;
    class       volScalarField;
    location    "0.005";
    object      p;
}
// * * * * * * * * * * * * * * * * * * * * * * * * * * * * * * * * * * * * * //

dimensions      [1 -1 -2 0 0 0 0];

internalField   nonuniform List<scalar> 
1000
(
100000
100000
100000
100000
100000
100000
100000
100000
100000
100000
100000
100000
100000
100000
100000
100000
100000
100000
100000
100000
100000
100000
100000
100000
100000
100000
100000
100000
100000
100000
100000
100000
100000
100000
100000
100000
100000
100000
100000
100000
100000
100000
100000
100000
100000
100000
100000
100000
100000
100000
100000
100000
100000
100000
100000
100000
100000
100000
100000
100000
100000
100000
100000
100000
100000
100000
100000
100000
100000
100000
100000
100000
100000
100000
100000
100000
100000
100000
100000
100000
100000
100000
100000
100000
100000
100000
100000
100000
100000
100000
100000
100000
100000
100000
100000
100000
100000
100000
100000
100000
100000
100000
100000
100000
100000
100000
100000
100000
100000
100000
100000
100000
100000
100000
100000
100000
100000
100000
100000
100000
100000
100000
100000
100000
100000
100000
100000
100000
100000
100000
100000
100000
100000
100000
100000
100000
100000
100000
100000
100000
100000
100000
100000
100000
100000
100000
100000
100000
100000
100000
100000
100000
100000
100000
100000
100000
100000
100000
100000
100000
100000
100000
100000
100000
100000
100000
100000
100000
100000
100000
100000
100000
100000
100000
100000
100000
100000
100000
100000
100000
100000
100000
100000
100000
100000
100000
100000
100000
100000
100000
100000
100000
100000
100000
100000
100000
100000
100000
100000
100000
100000
100000
100000
100000
100000
100000
100000
100000
100000
100000
100000
100000
100000
100000
100000
100000
100000
100000
100000
100000
100000
100000
100000
100000
100000
100000
100000
100000
100000
100000
100000
100000
100000
100000
100000
100000
100000
100000
100000
100000
100000
100000
100000
100000
100000
100000
100000
100000
100000
100000
100000
100000
100000
100000
100000
100000
100000
100000
100000
100000
100000
100000
100000
100000
100000
100000
100000
100000
100000
100000
100000
100000
100000
100000
100000
100000
100000
100000
100000
100000
100000
100000
100000
100000
99999.9
99999.9
99999.8
99999.6
99999.3
99998.8
99997.9
99996.5
99994.3
99990.8
99985.2
99976.6
99963.5
99943.9
99915.1
99873.6
99815
99734.3
99626.1
99485.6
99310.6
99102.6
98863
98592.8
98293.3
97966.6
97615
97240.9
96846.8
96435.3
96008.5
95568.5
95117.3
94656.4
94187.4
93711.4
93229.6
92743
92252.4
91758.4
91261.8
90763.1
90262.7
89761.1
89258.6
88755.6
88252.3
87749
87245.8
86743.1
86240.9
85739.5
85238.9
84739.3
84240.8
83743.5
83247.4
82752.8
82259.5
81767.8
81277.6
80789
80302.1
79816.9
79333.5
78851.8
78372
77894
77417.9
76943.7
76471.4
76001.1
75532.8
75066.5
74602.1
74139.8
73679.5
73221.3
72765.2
72311.1
71859.1
71409.2
70961.4
70515.7
70072.1
69630.6
69191.3
68754.1
68319
67886
67455.2
67026.6
66600.1
66175.7
65753.5
65333.4
64915.5
64499.7
64086.1
63674.6
63265.3
62858.1
62453
62050.1
61649.4
61250.7
60854.2
60459.8
60067.6
59677.5
59289.5
58903.6
58519.8
58138.1
57758.6
57381.1
57005.7
56632.5
56261.3
55892.2
55525.1
55160.2
54797.3
54436.4
54077.7
53721
53366.3
53013.6
52663
52314.5
51967.9
51623.4
51280.9
50940.4
50601.9
50265.4
49931
49598.5
49267.9
48939.4
48612.8
48288.2
47965.7
47645
47326.2
47009.5
46694.7
46381.8
46070.9
45762
45455.1
45150
44846.5
44545.1
44246.1
43949.4
43654.1
43359.7
43067.1
42777.7
42491.5
42206.6
41921.6
41637.7
41357.3
41080.5
40805.2
40530.4
40257.8
39988.5
39718.9
39446
39176.6
38920.5
38672.9
38417.3
38136.3
37847.2
37601
37386.8
37165
36905.3
36569.3
36274.2
36081.7
35904.4
35690
35407.8
35017.5
34707.7
34519
34346.5
34146.7
33869.4
33621.1
33281.6
33066
32963.1
32864
32696.5
32458.8
32052.3
31908.5
31829.5
31733.5
31587.7
31340.8
31036.7
30972
30935.5
30877.5
30804.9
30609.1
30503.3
30496.3
30497.4
30492.5
30475.7
30425.2
30336.9
30331.3
30331.6
30334.6
30331
30338.3
30329.3
30268.1
30258.8
30258.8
30257.9
30256.7
30264.2
30243.6
30221.9
30221.3
30222.1
30221
30224.6
30230.3
30216.6
30209.2
30209.1
30215.6
30217.6
30218.9
30228.5
30229.8
30228.2
30229
30231.4
30230.7
30240.8
30250.1
30250.6
30249.7
30255.3
30260.6
30258.2
30265.8
30281
30283.6
30283.3
30280.9
30287.9
30294.4
30293.7
30292.6
30303.4
30311
30310.5
30305.7
30298.1
30305.9
30322.4
30327.2
30322
30310.3
30313.9
30327.1
30327.9
30327.6
30322.8
30320.4
30324.7
30329.5
30328.3
30323.7
30324
30331.1
30332.7
30323.9
30318.7
30326.1
30336
30332.5
30319.5
30318.6
30325.8
30330.3
30327.6
30320.1
30317.3
30321.7
30328.1
30325.4
30316.3
30314.7
30319.7
30325.9
30322.5
30312.9
30311.5
30318.4
30324.1
30318.4
30309.1
30308.9
30317.5
30321.7
30313.9
30307.2
30306.8
30315.1
30319.4
30311.6
30304.1
30304.4
30314.3
30317
30309.1
30303.7
30302.8
30310.9
30316.1
30309.9
30299.9
30300.9
30312.2
30314.9
30306.1
30299.6
30300.3
30310.1
30314.6
30306.3
30296.8
30298.9
30311.8
30314
30304.1
30298.6
30300
30310.7
30315
30307.5
30297.5
30299.8
30313.4
30314.8
30304.6
30296.2
30296.8
30305.3
30309.1
30298
30287.5
30290.1
30307.5
30310.9
30305.6
30296.9
30299.9
30310.6
30314.9
30303.9
30292.7
30295.9
30309.5
30312.5
30303
30293.1
30294.8
30308.8
30312.4
30303
30292.9
30295.1
30307.3
30311.3
30303.8
30293.2
30295.9
30307.4
30309.2
30302.1
30295.4
30297.8
30305.6
30307.8
30302.5
30296.1
30298.2
30305.4
30306.9
30302.6
30297.3
30298.8
30305
30305.7
30302.5
30299.2
30300
30304.3
30305.9
30303.5
30299.5
30300
30305.1
30307.2
30304.9
30299.3
30299.5
30306.1
30308.2
30305.8
30300.1
30299.4
30305.6
30309.3
30306.7
30299.8
30299.1
30305.7
30310
30306.1
30297.4
30298.4
30308
30310.3
30302.6
30294.7
30297.7
30308.8
30310
30297.8
30291.1
30295.5
30306.2
30308.1
30295.3
30285.4
30288.6
30301.2
30302.7
30290.2
30280.6
30279.9
30287.7
30292.6
30284.5
30271
30268.2
30269.7
30275.2
30271.7
30252.2
30246.8
30244.4
30244.1
30246
30227.7
30204
30198.5
30195.7
30197.2
30188.2
30139.1
30118.8
30111.1
30108.9
30108.7
30045.7
29963.8
29929.4
29895.9
29859.2
29795.9
29564.4
29293.7
29072.4
28751.7
28167.2
27084.1
25050.9
20631.3
12458.6
10446.2
10067.3
10010
10001.5
10000.2
10000
10000
10000
10000
10000
10000
10000
10000
10000
10000
10000
10000
10000
10000
10000
10000
10000
10000
10000
10000
10000
10000
10000
10000
10000
10000
10000
10000
10000
10000
10000
10000
10000
10000
10000
10000
10000
10000
10000
10000
10000
10000
10000
10000
10000
10000
10000
10000
10000
10000
10000
10000
10000
10000
10000
10000
10000
10000
10000
10000
10000
10000
10000
10000
10000
10000
10000
10000
10000
10000
10000
10000
10000
10000
10000
10000
10000
10000
10000
10000
10000
10000
10000
10000
10000
10000
10000
10000
10000
10000
10000
10000
10000
10000
10000
10000
10000
10000
10000
10000
10000
10000
10000
10000
10000
10000
10000
10000
10000
10000
10000
10000
10000
10000
10000
10000
10000
10000
10000
10000
10000
10000
10000
10000
10000
10000
10000
10000
10000
10000
10000
10000
10000
10000
10000
10000
10000
10000
10000
10000
10000
10000
10000
10000
10000
10000
10000
10000
10000
10000
10000
10000
10000
10000
10000
10000
10000
10000
10000
10000
10000
10000
10000
10000
10000
10000
10000
10000
10000
10000
10000
10000
10000
10000
10000
10000
10000
10000
10000
10000
10000
10000
10000
10000
10000
10000
10000
10000
10000
10000
10000
10000
10000
10000
10000
10000
10000
10000
10000
10000
10000
10000
10000
10000
10000
10000
10000
10000
10000
10000
10000
10000
10000
10000
10000
)
;

boundaryField
{
    sides
    {
        type            zeroGradient;
    }
    empty
    {
        type            empty;
    }
}


// ************************************************************************* //
