/*--------------------------------*- C++ -*----------------------------------*\
  =========                 |
  \\      /  F ield         | OpenFOAM: The Open Source CFD Toolbox
   \\    /   O peration     | Website:  https://openfoam.org
    \\  /    A nd           | Version:  13
     \\/     M anipulation  |
\*---------------------------------------------------------------------------*/
FoamFile
{
    format      ascii;
    class       surfaceScalarField;
    location    "0.005";
    object      phi;
}
// * * * * * * * * * * * * * * * * * * * * * * * * * * * * * * * * * * * * * //

dimensions      [1 0 -1 0 0 0 0];

internalField   nonuniform List<scalar> 
999
(
-1.57954e-11
-1.63851e-11
-1.60085e-11
-1.27471e-11
-1.63283e-11
-2.08971e-11
-2.40163e-11
-2.48832e-11
-2.25242e-11
-2.3654e-11
-2.3249e-11
-2.33129e-11
-2.52669e-11
-2.77964e-11
-2.38813e-11
-2.25597e-11
-2.2979e-11
-1.66551e-11
-1.34719e-11
-1.11768e-11
-8.68994e-12
-1.33582e-11
-1.25198e-11
-1.09992e-11
-9.00968e-12
-8.56915e-12
-9.84812e-12
-9.59943e-12
-5.25091e-12
-1.39266e-12
-2.08189e-12
6.6791e-13
8.95284e-13
-2.6148e-12
-1.27898e-12
4.49774e-12
6.83542e-12
8.00782e-12
1.05516e-11
8.93863e-12
5.98988e-12
7.48912e-12
1.26477e-11
9.70601e-12
6.55831e-12
9.18021e-12
6.48015e-12
2.92744e-12
4.12825e-12
2.08189e-12
-2.37321e-12
9.52127e-13
4.51905e-12
7.75913e-12
6.52989e-12
7.91545e-12
7.61702e-12
5.40723e-12
3.74456e-12
5.08038e-12
5.15854e-12
5.22249e-12
5.73408e-12
4.70379e-12
1.66978e-12
7.67386e-13
8.10019e-13
-2.16716e-12
-2.3519e-12
1.12266e-12
5.32197e-12
7.21911e-12
5.7625e-12
9.06653e-12
8.66862e-12
6.56541e-12
4.59721e-12
4.583e-12
8.31335e-12
8.82494e-12
6.35936e-12
3.38218e-12
5.79092e-12
6.98464e-12
8.32756e-12
9.25837e-12
8.63309e-12
5.20828e-12
8.67573e-12
1.19726e-11
1.31308e-11
1.27969e-11
1.42037e-11
9.37916e-12
1.00826e-11
1.23279e-11
1.25766e-11
1.28679e-11
1.17097e-11
1.03029e-11
1.10347e-11
1.22782e-11
1.52696e-11
1.50067e-11
1.39195e-11
1.10063e-11
7.81597e-12
5.94724e-12
5.84066e-12
8.7752e-12
1.18092e-11
1.0381e-11
6.8141e-12
2.01794e-12
1.58451e-12
2.46558e-12
3.0056e-12
7.91545e-12
1.24416e-11
1.52269e-11
1.6243e-11
1.41398e-11
1.34506e-11
1.27685e-11
8.63309e-12
1.01963e-11
1.07931e-11
9.21574e-12
9.93339e-12
1.21716e-11
1.33724e-11
1.15818e-11
1.11839e-11
1.20934e-11
1.2534e-11
1.58664e-11
1.07576e-11
1.26192e-11
9.1589e-12
5.6346e-12
6.70042e-12
7.39675e-12
6.0183e-12
4.99512e-12
4.38405e-12
8.07177e-12
6.43041e-12
3.16192e-12
5.55644e-12
6.87805e-12
6.08935e-12
9.9476e-12
1.22213e-11
1.00826e-11
1.00115e-11
8.29914e-12
1.11129e-11
1.3145e-11
1.35216e-11
1.5639e-11
1.43459e-11
1.15961e-11
1.14042e-11
1.37277e-11
1.4893e-11
1.6172e-11
1.47438e-11
1.67546e-11
1.65841e-11
2.02789e-11
1.92699e-11
1.60156e-11
1.62501e-11
1.26619e-11
1.14042e-11
9.37206e-12
9.71312e-12
7.42517e-12
4.3201e-12
1.20792e-12
-6.75016e-13
-6.52278e-12
-8.22808e-12
-6.32383e-12
-8.9031e-12
-1.6243e-11
-1.26121e-11
-8.23519e-12
-4.23483e-12
-1.01608e-12
-6.32383e-13
-2.8848e-12
8.88178e-13
3.73745e-12
2.55795e-12
2.01084e-12
9.23706e-13
3.38218e-12
1.62004e-12
2.69296e-12
2.15294e-12
3.5314e-12
7.71649e-12
4.5759e-12
2.359e-12
-4.05009e-13
8.31335e-13
2.54374e-12
-8.3844e-13
2.11031e-12
2.82796e-12
2.01794e-12
9.166e-13
-2.63611e-12
8.3844e-13
3.10507e-12
3.06954e-12
8.59757e-13
2.2311e-12
4.78195e-12
-1.49214e-13
-1.54898e-12
1.3145e-12
1.00187e-12
-1.27187e-12
9.23706e-13
3.82272e-12
3.88667e-12
2.12452e-12
-3.33955e-13
-3.83693e-12
-4.16378e-12
-4.9738e-12
-2.67875e-12
-4.54747e-13
3.12639e-12
6.38067e-12
4.51195e-12
1.35003e-12
8.10019e-13
2.49401e-12
6.53699e-13
2.94165e-12
4.448e-12
1.35003e-12
-1.22924e-12
-2.27374e-13
3.48166e-13
1.91136e-12
4.20641e-12
4.66116e-12
6.27409e-12
5.16565e-12
2.67875e-12
7.81597e-14
-3.29692e-12
-3.83693e-12
1.91847e-13
9.72733e-12
3.25997e-11
8.02842e-11
1.76094e-10
3.8424e-10
8.32088e-10
1.77896e-09
3.76684e-09
7.89244e-09
1.63966e-08
3.3787e-08
6.90721e-08
1.4007e-07
2.8174e-07
5.62056e-07
1.11197e-06
2.18136e-06
4.2426e-06
8.17985e-06
1.56316e-05
2.96034e-05
5.55507e-05
0.00010327
0.000190162
0.00034678
0.000626153
0.00111922
0.00197997
0.00346589
0.00600167
0.0102782
0.0174029
0.029124
0.0481571
0.078648
0.12681
0.201772
0.316654
0.489858
0.746485
1.11968
1.65149
2.39262
3.39986
4.72952
6.42279
8.47935
10.8754
13.599
16.6367
19.9682
23.5689
27.4114
31.4675
35.7095
40.1111
44.6481
49.2987
54.0435
58.8655
63.7498
68.6834
73.655
78.655
83.6749
88.7075
93.7464
98.7861
103.822
108.85
113.866
118.867
123.85
128.813
133.754
138.671
143.562
148.426
153.261
158.066
162.84
167.583
172.293
176.969
181.612
186.22
190.793
195.331
199.833
204.299
208.728
213.121
217.476
221.794
226.075
230.318
234.524
238.692
242.821
246.913
250.967
254.983
258.961
262.901
266.803
270.666
274.492
278.279
282.029
285.74
289.414
293.05
296.648
300.208
303.731
307.216
310.664
314.075
317.448
320.784
324.083
327.345
330.571
333.76
336.912
340.028
343.108
346.151
349.159
352.131
355.067
357.968
360.833
363.663
366.458
369.218
371.943
374.634
377.29
379.912
382.499
385.053
387.573
390.06
392.513
394.933
397.32
399.673
401.994
404.283
406.539
408.763
410.955
413.115
415.243
417.34
419.406
421.441
423.444
425.416
427.358
429.271
431.153
433.005
434.825
436.616
438.379
440.114
441.818
443.491
445.136
446.755
448.344
449.904
451.437
452.946
454.425
455.867
457.279
458.678
460.068
461.422
462.716
463.966
465.223
466.507
467.763
468.927
470.015
471.119
472.276
473.412
474.459
475.47
476.524
477.543
478.362
479.091
480.154
481.574
482.823
483.244
482.813
483.533
485.832
488.111
489.269
487.952
485.689
488.194
491.978
494.641
495.138
491.833
488.188
490.872
494.494
497.219
496.934
495.984
495.288
492.326
496.425
501.442
504.58
505.616
497.951
496.184
500.12
504.51
506.029
507.254
496.977
498.081
501.071
504.136
504.895
504.455
497.928
499.221
500.772
502.534
503.182
504.129
499.795
499.703
500.287
501.105
501.714
502.288
503.587
501.222
500.164
500.428
500.788
500.967
501.594
501.808
500.131
500.135
500.232
500.294
500.316
500.848
500.601
499.761
499.628
499.704
499.868
499.735
499.978
500.101
499.877
499.65
499.589
499.363
499.302
499.849
499.69
499.44
499.267
499.482
499.218
498.942
499.783
499.832
499.651
499.316
499.25
499.637
499.461
499.155
499.454
499.846
499.755
499.677
498.957
498.689
499.806
500.063
499.936
499.23
499.066
499.575
499.765
499.79
499.482
499.218
499.27
499.593
499.6
499.286
499.1
499.457
499.739
499.37
498.891
499.061
499.682
499.699
499.152
498.883
498.908
499.431
499.547
498.985
498.768
498.871
499.29
499.333
498.836
498.63
498.634
499.131
499.212
498.628
498.431
498.48
498.972
498.938
498.325
498.212
498.382
498.812
498.653
498.048
497.927
498.25
498.652
498.405
497.828
497.729
497.926
498.308
498.268
497.611
497.406
497.624
497.98
497.787
497.156
497.022
497.215
497.574
497.473
496.751
496.533
496.935
497.227
496.826
496.018
495.748
495.95
495.945
495.394
494.092
493.023
492.35
490.932
488.261
484.137
479.276
473.216
465.114
454.467
440.809
425.517
408.789
390.687
371.616
353.064
337.219
325.467
318.02
313.756
311.16
310.039
310.071
310.159
310.011
309.462
309.454
309.911
310.23
310.307
309.966
309.991
310.437
310.76
310.744
310.216
310.127
310.542
310.791
310.725
310.284
310.243
310.57
310.754
310.725
310.36
310.313
310.619
310.753
310.682
310.404
310.392
310.614
310.725
310.675
310.451
310.44
310.593
310.686
310.68
310.5
310.468
310.614
310.7
310.679
310.516
310.482
310.612
310.732
310.723
310.535
310.474
310.584
310.764
310.795
310.545
310.456
310.588
310.799
310.806
310.554
310.461
310.608
310.832
310.805
310.516
310.452
310.655
310.867
310.815
310.425
310.392
310.751
310.932
310.784
310.353
310.322
310.787
310.969
310.735
310.277
310.291
310.639
310.867
310.805
310.264
310.215
310.398
310.717
310.739
310.194
310.114
310.168
310.382
310.534
310.131
309.841
309.858
309.945
310.137
310.091
309.206
309.147
309.235
309.443
309.77
308.717
307.899
307.966
308.218
308.735
308.423
305.603
305.189
305.284
305.457
306.029
303.441
296.633
294.513
293.117
288.175
276.914
255.962
212.936
85.5594
17.5574
2.81128
0.420158
0.0614927
0.00901215
0.00132131
0.000193668
2.83847e-05
4.15975e-06
6.09574e-07
8.93267e-08
1.30902e-08
1.91867e-09
2.81519e-10
4.145e-11
6.33182e-12
5.30243e-13
-1.41442e-12
-1.11156e-12
-1.00009e-12
-8.1446e-13
-4.11227e-13
-4.16112e-13
-7.63833e-14
-4.04121e-13
-8.11351e-13
-4.91163e-13
-1.04894e-12
-9.60121e-13
-8.39773e-13
-5.51559e-13
-8.75744e-13
-1.39755e-12
-1.7657e-12
-1.30917e-12
-7.21201e-13
-5.23137e-13
-6.43485e-13
-5.43121e-13
-5.04485e-13
-5.47562e-13
-5.91527e-13
-9.59233e-13
-1.09113e-12
-1.3558e-12
-1.2701e-12
-1.2168e-12
-1.59206e-12
-1.95532e-12
-2.1787e-12
-1.71685e-12
-1.35536e-12
-9.59233e-13
-1.10667e-12
-9.41025e-13
-9.50351e-13
-7.32303e-13
1.5099e-14
5.11591e-13
1.14309e-12
1.11733e-12
6.54587e-13
6.2661e-13
1.18083e-12
9.52127e-13
4.87166e-13
-5.21361e-13
-1.92513e-12
-7.0699e-13
-8.01137e-13
-1.36202e-12
-1.12177e-12
-8.62421e-13
-7.22089e-13
-9.98313e-13
-9.47686e-13
-1.25677e-12
-4.10338e-13
-2.70894e-13
-1.33671e-12
-1.58895e-12
-1.9269e-12
-1.52323e-12
-1.00631e-12
-8.30003e-13
-8.8729e-13
-5.88862e-13
-8.68638e-13
-1.13154e-12
-1.4273e-12
-1.81277e-12
-1.57385e-12
-1.3145e-12
-8.9706e-13
-3.85025e-13
6.99885e-13
9.90319e-13
1.09379e-12
1.0516e-12
1.22036e-12
9.79661e-13
9.52127e-13
1.09601e-12
6.27054e-13
-4.76508e-13
-6.88338e-13
-7.82041e-13
-9.3392e-13
-7.04325e-13
-2.0961e-13
5.15143e-14
3.66374e-13
8.29115e-13
1.91669e-12
2.38209e-12
2.27196e-12
2.55085e-12
3.00693e-12
2.46914e-12
2.47535e-12
2.1716e-12
2.51887e-12
2.9643e-12
3.33955e-12
3.55982e-12
3.30713e-12
2.52509e-12
1.92646e-12
1.8634e-12
1.50457e-12
1.26832e-12
7.60281e-13
7.64722e-13
9.48575e-13
9.34364e-13
1.68932e-12
2.01794e-12
1.87361e-12
1.54055e-12
1.23501e-12
1.64668e-12
1.32028e-12
1.22879e-12
1.33049e-12
7.71827e-13
9.79661e-13
9.53904e-13
5.84421e-13
6.67022e-13
7.38964e-13
7.74047e-13
9.81437e-13
1.19993e-12
1.45306e-12
1.81233e-12
1.67999e-12
1.88782e-12
2.29727e-12
2.55485e-12
2.47091e-12
2.58593e-12
2.97629e-12
2.74891e-12
2.45093e-12
1.88294e-12
2.02949e-12
2.11031e-12
1.74616e-12
1.48459e-12
1.58451e-12
2.19824e-12
1.76925e-12
1.30873e-12
8.06466e-13
6.25278e-13
1.00053e-12
9.57012e-13
8.96616e-13
1.12577e-12
1.67644e-12
2.07834e-12
1.80878e-12
1.59428e-12
1.79634e-12
2.0286e-12
2.57971e-12
2.51577e-12
2.8102e-12
2.16627e-12
2.30038e-12
2.26752e-12
1.9269e-12
1.66755e-12
1.99263e-12
1.82521e-12
2.07923e-12
1.95133e-12
2.23022e-12
2.10454e-12
2.33769e-12
2.84572e-12
2.81641e-12
3.14504e-12
3.12328e-12
2.97851e-12
3.1708e-12
3.22364e-12
2.68452e-12
2.84395e-12
3.10774e-12
3.46789e-12
3.63531e-12
3.11795e-12
3.02602e-12
3.21876e-12
3.2494e-12
3.69083e-12
3.71259e-12
4.16955e-12
4.08029e-12
)
;

boundaryField
{
    sides
    {
        type            calculated;
        value           nonuniform List<scalar> 2(3.87518e-12 1.58558e-11);
    }
    empty
    {
        type            empty;
    }
}


// ************************************************************************* //
