/*--------------------------------*- C++ -*----------------------------------*\
  =========                 |
  \\      /  F ield         | OpenFOAM: The Open Source CFD Toolbox
   \\    /   O peration     | Website:  https://openfoam.org
    \\  /    A nd           | Version:  13
     \\/     M anipulation  |
\*---------------------------------------------------------------------------*/
FoamFile
{
    format      ascii;
    class       volScalarField;
    location    "0.005";
    object      rho;
}
// * * * * * * * * * * * * * * * * * * * * * * * * * * * * * * * * * * * * * //

dimensions      [1 -3 0 0 0 0 0];

internalField   nonuniform List<scalar> 
1000
(
0.997575
0.997575
0.997575
0.997575
0.997575
0.997575
0.997575
0.997575
0.997575
0.997575
0.997575
0.997575
0.997575
0.997575
0.997575
0.997575
0.997575
0.997575
0.997575
0.997575
0.997575
0.997575
0.997575
0.997575
0.997575
0.997575
0.997575
0.997575
0.997575
0.997575
0.997575
0.997575
0.997575
0.997575
0.997575
0.997575
0.997575
0.997575
0.997575
0.997575
0.997575
0.997575
0.997575
0.997575
0.997575
0.997575
0.997575
0.997575
0.997575
0.997575
0.997575
0.997575
0.997575
0.997575
0.997575
0.997575
0.997575
0.997575
0.997575
0.997575
0.997575
0.997575
0.997575
0.997575
0.997575
0.997575
0.997575
0.997575
0.997575
0.997575
0.997575
0.997575
0.997575
0.997575
0.997575
0.997575
0.997575
0.997575
0.997575
0.997575
0.997575
0.997575
0.997575
0.997575
0.997575
0.997575
0.997575
0.997575
0.997575
0.997575
0.997575
0.997575
0.997575
0.997575
0.997575
0.997575
0.997575
0.997575
0.997575
0.997575
0.997575
0.997575
0.997575
0.997575
0.997575
0.997575
0.997575
0.997575
0.997575
0.997575
0.997575
0.997575
0.997575
0.997575
0.997575
0.997575
0.997575
0.997575
0.997575
0.997575
0.997575
0.997575
0.997575
0.997575
0.997575
0.997575
0.997575
0.997575
0.997575
0.997575
0.997575
0.997575
0.997575
0.997575
0.997575
0.997575
0.997575
0.997575
0.997575
0.997575
0.997575
0.997575
0.997575
0.997575
0.997575
0.997575
0.997575
0.997575
0.997575
0.997575
0.997575
0.997575
0.997575
0.997575
0.997575
0.997575
0.997575
0.997575
0.997575
0.997575
0.997575
0.997575
0.997575
0.997575
0.997575
0.997575
0.997575
0.997575
0.997575
0.997575
0.997575
0.997575
0.997575
0.997575
0.997575
0.997575
0.997575
0.997575
0.997575
0.997575
0.997575
0.997575
0.997575
0.997575
0.997575
0.997575
0.997575
0.997575
0.997575
0.997575
0.997575
0.997575
0.997575
0.997575
0.997575
0.997575
0.997575
0.997575
0.997575
0.997575
0.997575
0.997575
0.997575
0.997575
0.997575
0.997575
0.997575
0.997575
0.997575
0.997575
0.997575
0.997575
0.997575
0.997575
0.997575
0.997575
0.997575
0.997575
0.997575
0.997575
0.997575
0.997575
0.997575
0.997575
0.997575
0.997575
0.997575
0.997575
0.997575
0.997575
0.997575
0.997575
0.997575
0.997575
0.997575
0.997575
0.997575
0.997575
0.997575
0.997575
0.997575
0.997575
0.997575
0.997575
0.997575
0.997575
0.997575
0.997575
0.997575
0.997575
0.997575
0.997575
0.997575
0.997575
0.997575
0.997575
0.997575
0.997575
0.997575
0.997575
0.997575
0.997575
0.997575
0.997575
0.997575
0.997575
0.997575
0.997575
0.997575
0.997575
0.997575
0.997575
0.997575
0.997575
0.997575
0.997575
0.997575
0.997575
0.997575
0.997575
0.997575
0.997574
0.997574
0.997574
0.997574
0.997574
0.997573
0.997572
0.997569
0.997566
0.99756
0.99755
0.997534
0.997509
0.997469
0.997408
0.997315
0.997175
0.99697
0.996674
0.996257
0.995682
0.994911
0.993909
0.992661
0.991177
0.989466
0.987534
0.985393
0.983054
0.980533
0.977849
0.975019
0.97206
0.968987
0.965815
0.962557
0.959226
0.95583
0.952379
0.948882
0.945343
0.94177
0.938168
0.934541
0.930892
0.927225
0.923544
0.91985
0.916147
0.912435
0.908717
0.904994
0.901269
0.897541
0.893812
0.890084
0.886357
0.882631
0.878908
0.875189
0.871473
0.867762
0.864055
0.860355
0.85666
0.852971
0.849289
0.845613
0.841945
0.838285
0.834632
0.830987
0.827351
0.823723
0.820103
0.816493
0.812891
0.809299
0.805715
0.802142
0.798578
0.795023
0.791479
0.787944
0.78442
0.780905
0.777401
0.773907
0.770424
0.766951
0.763489
0.760037
0.756596
0.753166
0.749747
0.746338
0.742941
0.739554
0.736179
0.732815
0.729462
0.72612
0.722789
0.71947
0.716161
0.712864
0.709579
0.706305
0.703042
0.699791
0.696551
0.693323
0.690106
0.6869
0.683707
0.680524
0.677354
0.674194
0.671047
0.667911
0.664787
0.661674
0.658573
0.655483
0.652405
0.649339
0.646285
0.643242
0.640211
0.637191
0.634183
0.631187
0.628203
0.62523
0.622269
0.61932
0.616382
0.613456
0.610542
0.60764
0.604749
0.60187
0.599003
0.596147
0.593304
0.590473
0.587653
0.584844
0.582047
0.579263
0.576491
0.57373
0.570982
0.568246
0.565521
0.562806
0.560103
0.557417
0.554747
0.552084
0.549424
0.546776
0.544151
0.54155
0.538955
0.536355
0.533761
0.531193
0.528654
0.526122
0.52359
0.521075
0.518584
0.516085
0.513553
0.51105
0.508663
0.506347
0.503951
0.501317
0.498615
0.496304
0.494275
0.492168
0.4897
0.486526
0.483759
0.481916
0.480198
0.478128
0.475414
0.471696
0.46876
0.466923
0.465228
0.463273
0.460601
0.458206
0.454902
0.452816
0.451761
0.450731
0.449068
0.446703
0.442783
0.441376
0.44056
0.439574
0.438148
0.435661
0.432721
0.432025
0.431594
0.430955
0.430213
0.428232
0.427202
0.427099
0.427076
0.426994
0.426802
0.426254
0.425412
0.425359
0.425354
0.425363
0.425298
0.425346
0.425219
0.424615
0.424542
0.424568
0.424598
0.424618
0.424702
0.424486
0.424271
0.424251
0.424241
0.424213
0.424238
0.424279
0.424131
0.424052
0.424046
0.424104
0.42412
0.424132
0.424223
0.42423
0.42421
0.424215
0.424232
0.424222
0.424321
0.424403
0.424403
0.424389
0.424441
0.424484
0.424452
0.424526
0.424664
0.424682
0.424673
0.424645
0.42471
0.424763
0.424751
0.424737
0.42484
0.424908
0.424903
0.424852
0.424783
0.424871
0.425035
0.425085
0.425035
0.424922
0.424956
0.425073
0.425069
0.425051
0.42499
0.424952
0.424982
0.425014
0.424992
0.424939
0.424937
0.425
0.425006
0.424912
0.424857
0.424925
0.42501
0.424966
0.424827
0.424812
0.424873
0.424906
0.424864
0.424781
0.424741
0.424775
0.424821
0.424779
0.424676
0.424646
0.42468
0.424722
0.424667
0.424555
0.424523
0.42457
0.424601
0.424521
0.424407
0.424384
0.424444
0.42446
0.424359
0.424272
0.424247
0.424304
0.424317
0.424215
0.424114
0.424088
0.424149
0.424136
0.424012
0.423915
0.423847
0.423864
0.423846
0.423726
0.423568
0.423525
0.423581
0.423556
0.423412
0.423291
0.423224
0.423227
0.423155
0.422939
0.422679
0.42249
0.422342
0.422006
0.421434
0.420736
0.41984
0.418643
0.416849
0.414207
0.410559
0.405761
0.399518
0.391367
0.38117
0.369048
0.355231
0.340116
0.324245
0.308421
0.293856
0.281942
0.273674
0.268732
0.266087
0.264766
0.264216
0.26406
0.264018
0.26393
0.263875
0.263935
0.264083
0.264199
0.264267
0.264324
0.264412
0.264542
0.264588
0.264543
0.264492
0.264516
0.264598
0.264628
0.264586
0.26453
0.264554
0.264632
0.264648
0.264608
0.264575
0.264596
0.264647
0.264664
0.264632
0.264597
0.264612
0.264658
0.264668
0.264642
0.264613
0.264624
0.264665
0.264671
0.264652
0.264635
0.264643
0.264671
0.264681
0.264667
0.264644
0.264649
0.264681
0.264695
0.26468
0.264648
0.264651
0.264693
0.264706
0.26469
0.264658
0.264655
0.264695
0.264718
0.264701
0.264661
0.264659
0.264701
0.264728
0.264704
0.264654
0.264662
0.264723
0.264737
0.26469
0.264645
0.264667
0.264737
0.264744
0.264669
0.264632
0.264663
0.264729
0.26474
0.264661
0.264604
0.264626
0.264704
0.264714
0.264635
0.26458
0.264578
0.264627
0.264657
0.264605
0.264526
0.264511
0.264521
0.264556
0.264532
0.264414
0.264384
0.26437
0.264369
0.264381
0.264264
0.264125
0.264091
0.264075
0.264086
0.264024
0.263725
0.263606
0.26356
0.263548
0.263545
0.263145
0.262662
0.262458
0.262259
0.262046
0.261655
0.260229
0.258629
0.25731
0.255358
0.251778
0.24507
0.23195
0.201767
0.144486
0.128602
0.125295
0.124785
0.12471
0.124699
0.124697
0.124697
0.124697
0.124697
0.124697
0.124697
0.124697
0.124697
0.124697
0.124697
0.124697
0.124697
0.124697
0.124697
0.124697
0.124697
0.124697
0.124697
0.124697
0.124697
0.124697
0.124697
0.124697
0.124697
0.124697
0.124697
0.124697
0.124697
0.124697
0.124697
0.124697
0.124697
0.124697
0.124697
0.124697
0.124697
0.124697
0.124697
0.124697
0.124697
0.124697
0.124697
0.124697
0.124697
0.124697
0.124697
0.124697
0.124697
0.124697
0.124697
0.124697
0.124697
0.124697
0.124697
0.124697
0.124697
0.124697
0.124697
0.124697
0.124697
0.124697
0.124697
0.124697
0.124697
0.124697
0.124697
0.124697
0.124697
0.124697
0.124697
0.124697
0.124697
0.124697
0.124697
0.124697
0.124697
0.124697
0.124697
0.124697
0.124697
0.124697
0.124697
0.124697
0.124697
0.124697
0.124697
0.124697
0.124697
0.124697
0.124697
0.124697
0.124697
0.124697
0.124697
0.124697
0.124697
0.124697
0.124697
0.124697
0.124697
0.124697
0.124697
0.124697
0.124697
0.124697
0.124697
0.124697
0.124697
0.124697
0.124697
0.124697
0.124697
0.124697
0.124697
0.124697
0.124697
0.124697
0.124697
0.124697
0.124697
0.124697
0.124697
0.124697
0.124697
0.124697
0.124697
0.124697
0.124697
0.124697
0.124697
0.124697
0.124697
0.124697
0.124697
0.124697
0.124697
0.124697
0.124697
0.124697
0.124697
0.124697
0.124697
0.124697
0.124697
0.124697
0.124697
0.124697
0.124697
0.124697
0.124697
0.124697
0.124697
0.124697
0.124697
0.124697
0.124697
0.124697
0.124697
0.124697
0.124697
0.124697
0.124697
0.124697
0.124697
0.124697
0.124697
0.124697
0.124697
0.124697
0.124697
0.124697
0.124697
0.124697
0.124697
0.124697
0.124697
0.124697
0.124697
0.124697
0.124697
0.124697
0.124697
0.124697
0.124697
0.124697
0.124697
0.124697
0.124697
0.124697
0.124697
0.124697
0.124697
0.124697
0.124697
0.124697
0.124697
0.124697
0.124697
0.124697
0.124697
0.124697
0.124697
0.124697
0.124697
0.124697
0.124697
0.124697
0.124697
0.124697
0.124697
0.124697
0.124697
0.124697
0.124697
0.124697
)
;

boundaryField
{
    sides
    {
        type            calculated;
        value           nonuniform List<scalar> 2(0.124697 0.997575);
    }
    empty
    {
        type            empty;
    }
}


// ************************************************************************* //
