/*--------------------------------*- C++ -*----------------------------------*\
  =========                 |
  \\      /  F ield         | OpenFOAM: The Open Source CFD Toolbox
   \\    /   O peration     | Website:  https://openfoam.org
    \\  /    A nd           | Version:  13
     \\/     M anipulation  |
\*---------------------------------------------------------------------------*/
FoamFile
{
    format      ascii;
    class       volScalarField;
    location    "0.005";
    object      T;
}
// * * * * * * * * * * * * * * * * * * * * * * * * * * * * * * * * * * * * * //

dimensions      [0 0 0 1 0 0 0];

internalField   nonuniform List<scalar> 
1000
(
348.432
348.432
348.432
348.432
348.432
348.432
348.432
348.432
348.432
348.432
348.432
348.432
348.432
348.432
348.432
348.432
348.432
348.432
348.432
348.432
348.432
348.432
348.432
348.432
348.432
348.432
348.432
348.432
348.432
348.432
348.432
348.432
348.432
348.432
348.432
348.432
348.432
348.432
348.432
348.432
348.432
348.432
348.432
348.432
348.432
348.432
348.432
348.432
348.432
348.432
348.432
348.432
348.432
348.432
348.432
348.432
348.432
348.432
348.432
348.432
348.432
348.432
348.432
348.432
348.432
348.432
348.432
348.432
348.432
348.432
348.432
348.432
348.432
348.432
348.432
348.432
348.432
348.432
348.432
348.432
348.432
348.432
348.432
348.432
348.432
348.432
348.432
348.432
348.432
348.432
348.432
348.432
348.432
348.432
348.432
348.432
348.432
348.432
348.432
348.432
348.432
348.432
348.432
348.432
348.432
348.432
348.432
348.432
348.432
348.432
348.432
348.432
348.432
348.432
348.432
348.432
348.432
348.432
348.432
348.432
348.432
348.432
348.432
348.432
348.432
348.432
348.432
348.432
348.432
348.432
348.432
348.432
348.432
348.432
348.432
348.432
348.432
348.432
348.432
348.432
348.432
348.432
348.432
348.432
348.432
348.432
348.432
348.432
348.432
348.432
348.432
348.432
348.432
348.432
348.432
348.432
348.432
348.432
348.432
348.432
348.432
348.432
348.432
348.432
348.432
348.432
348.432
348.432
348.432
348.432
348.432
348.432
348.432
348.432
348.432
348.432
348.432
348.432
348.432
348.432
348.432
348.432
348.432
348.432
348.432
348.432
348.432
348.432
348.432
348.432
348.432
348.432
348.432
348.432
348.432
348.432
348.432
348.432
348.432
348.432
348.432
348.432
348.432
348.432
348.432
348.432
348.432
348.432
348.432
348.432
348.432
348.432
348.432
348.432
348.432
348.432
348.432
348.432
348.432
348.432
348.432
348.432
348.432
348.432
348.432
348.432
348.432
348.432
348.432
348.432
348.432
348.432
348.432
348.432
348.432
348.432
348.432
348.432
348.432
348.432
348.432
348.432
348.432
348.432
348.432
348.432
348.432
348.432
348.432
348.432
348.432
348.432
348.432
348.432
348.432
348.432
348.432
348.432
348.432
348.432
348.432
348.432
348.432
348.432
348.432
348.432
348.432
348.432
348.432
348.432
348.432
348.432
348.432
348.432
348.432
348.432
348.432
348.432
348.432
348.432
348.432
348.432
348.432
348.432
348.432
348.432
348.432
348.432
348.431
348.431
348.43
348.429
348.426
348.423
348.417
348.409
348.396
348.376
348.347
348.306
348.247
348.167
348.059
347.918
347.743
347.534
347.293
347.021
346.719
346.389
346.033
345.653
345.252
344.831
344.394
343.941
343.476
342.999
342.512
342.015
341.511
341
340.483
339.961
339.433
338.901
338.366
337.827
337.284
336.74
336.192
335.642
335.091
334.537
333.982
333.425
332.867
332.307
331.747
331.185
330.623
330.059
329.495
328.93
328.365
327.799
327.232
326.665
326.098
325.53
324.962
324.394
323.825
323.256
322.687
322.118
321.549
320.979
320.41
319.84
319.271
318.701
318.132
317.562
316.993
316.424
315.854
315.285
314.716
314.148
313.579
313.011
312.442
311.874
311.307
310.739
310.172
309.605
309.038
308.472
307.906
307.34
306.774
306.209
305.644
305.08
304.516
303.952
303.389
302.826
302.264
301.701
301.14
300.579
300.018
299.458
298.898
298.338
297.779
297.221
296.663
296.106
295.549
294.992
294.436
293.881
293.326
292.772
292.218
291.665
291.112
290.56
290.009
289.458
288.908
288.358
287.809
287.261
286.713
286.166
285.619
285.073
284.528
283.983
283.44
282.896
282.354
281.812
281.271
280.731
280.191
279.653
279.115
278.578
278.041
277.506
276.971
276.436
275.904
275.373
274.842
274.31
273.779
273.251
272.726
272.202
271.674
271.146
270.622
270.102
269.583
269.062
268.543
268.027
267.509
266.982
266.457
265.957
265.474
264.973
264.417
263.835
263.339
262.914
262.473
261.952
261.26
260.635
260.243
259.891
259.457
258.875
258.04
257.359
256.967
256.614
256.198
255.591
255.044
254.302
253.818
253.619
253.435
253.077
252.568
251.612
251.282
251.124
250.928
250.589
250.049
249.304
249.186
249.142
249.043
248.886
248.448
248.186
248.189
248.211
248.219
248.194
248.101
247.871
247.856
247.861
247.881
247.888
247.92
247.921
247.773
247.739
247.724
247.699
247.678
247.69
247.647
247.595
247.601
247.615
247.622
247.636
247.659
247.633
247.618
247.621
247.64
247.648
247.652
247.677
247.683
247.682
247.686
247.695
247.696
247.721
247.749
247.753
247.754
247.769
247.788
247.786
247.805
247.85
247.86
247.863
247.86
247.88
247.901
247.902
247.902
247.93
247.953
247.951
247.941
247.92
247.932
247.972
247.982
247.969
247.939
247.948
247.988
247.997
248.005
248.001
248.003
248.021
248.042
248.045
248.039
248.042
248.064
248.073
248.056
248.046
248.066
248.098
248.095
248.069
248.071
248.094
248.112
248.114
248.101
248.101
248.118
248.144
248.146
248.132
248.136
248.157
248.184
248.187
248.175
248.182
248.21
248.239
248.24
248.23
248.241
248.277
248.302
248.297
248.294
248.305
248.339
248.367
248.362
248.361
248.378
248.424
248.453
248.461
248.473
248.506
248.562
248.615
248.635
248.646
248.679
248.739
248.776
248.789
248.806
248.851
248.93
249.01
249.068
249.143
249.272
249.465
249.682
249.94
250.309
250.855
251.66
252.779
254.329
256.505
259.557
263.731
269.237
276.346
285.344
296.449
309.71
324.909
341.455
358.255
373.426
384.929
392.051
395.879
397.74
398.608
398.983
399.104
399.092
399.027
398.979
398.934
398.798
398.572
398.355
398.245
398.233
398.211
398.156
398.099
398.093
398.13
398.137
398.102
398.046
398.045
398.08
398.079
398.045
398.008
398.008
398.033
398.038
398.015
397.984
397.988
398.015
398.019
398.001
397.976
397.978
397.999
397.999
397.985
397.967
397.966
397.981
397.985
397.975
397.957
397.956
397.975
397.983
397.974
397.95
397.948
397.971
397.979
397.97
397.945
397.94
397.962
397.976
397.966
397.936
397.93
397.953
397.969
397.954
397.916
397.916
397.95
397.959
397.93
397.893
397.899
397.941
397.945
397.897
397.865
397.876
397.918
397.926
397.876
397.832
397.841
397.889
397.895
397.849
397.805
397.8
397.828
397.847
397.819
397.76
397.747
397.751
397.771
397.761
397.682
397.657
397.646
397.643
397.65
397.586
397.484
397.46
397.448
397.451
397.427
397.23
397.142
397.11
397.098
397.1
396.872
396.518
396.371
396.227
396.062
395.814
394.89
393.696
392.724
391.36
388.857
384.138
375.397
355.42
299.713
282.342
279.284
278.825
278.758
278.748
278.746
278.746
278.746
278.746
278.746
278.746
278.746
278.746
278.746
278.746
278.746
278.746
278.746
278.746
278.746
278.746
278.746
278.746
278.746
278.746
278.746
278.746
278.746
278.746
278.746
278.746
278.746
278.746
278.746
278.746
278.746
278.746
278.746
278.746
278.746
278.746
278.746
278.746
278.746
278.746
278.746
278.746
278.746
278.746
278.746
278.746
278.746
278.746
278.746
278.746
278.746
278.746
278.746
278.746
278.746
278.746
278.746
278.746
278.746
278.746
278.746
278.746
278.746
278.746
278.746
278.746
278.746
278.746
278.746
278.746
278.746
278.746
278.746
278.746
278.746
278.746
278.746
278.746
278.746
278.746
278.746
278.746
278.746
278.746
278.746
278.746
278.746
278.746
278.746
278.746
278.746
278.746
278.746
278.746
278.746
278.746
278.746
278.746
278.746
278.746
278.746
278.746
278.746
278.746
278.746
278.746
278.746
278.746
278.746
278.746
278.746
278.746
278.746
278.746
278.746
278.746
278.746
278.746
278.746
278.746
278.746
278.746
278.746
278.746
278.746
278.746
278.746
278.746
278.746
278.746
278.746
278.746
278.746
278.746
278.746
278.746
278.746
278.746
278.746
278.746
278.746
278.746
278.746
278.746
278.746
278.746
278.746
278.746
278.746
278.746
278.746
278.746
278.746
278.746
278.746
278.746
278.746
278.746
278.746
278.746
278.746
278.746
278.746
278.746
278.746
278.746
278.746
278.746
278.746
278.746
278.746
278.746
278.746
278.746
278.746
278.746
278.746
278.746
278.746
278.746
278.746
278.746
278.746
278.746
278.746
278.746
278.746
278.746
278.746
278.746
278.746
278.746
278.746
278.746
278.746
278.746
278.746
278.746
278.746
278.746
278.746
278.746
278.746
278.746
278.746
278.746
278.746
278.746
278.746
278.746
278.746
278.746
278.746
278.746
278.746
)
;

boundaryField
{
    sides
    {
        type            zeroGradient;
    }
    empty
    {
        type            empty;
    }
}


// ************************************************************************* //
