/*--------------------------------*- C++ -*----------------------------------*\
  =========                 |
  \\      /  F ield         | OpenFOAM: The Open Source CFD Toolbox
   \\    /   O peration     | Website:  https://openfoam.org
    \\  /    A nd           | Version:  13
     \\/     M anipulation  |
\*---------------------------------------------------------------------------*/
FoamFile
{
    format      ascii;
    class       volVectorField;
    location    "0.005";
    object      U;
}
// * * * * * * * * * * * * * * * * * * * * * * * * * * * * * * * * * * * * * //

dimensions      [0 1 -1 0 0 0 0];

internalField   nonuniform List<vector> 
1000
(
(-3.96774e-12 0 0)
(-4.1355e-12 0 0)
(-4.25657e-12 0 0)
(-3.47469e-12 0 0)
(-3.075e-12 0 0)
(-5.06179e-12 0 0)
(-5.36812e-12 0 0)
(-6.5497e-12 0 0)
(-5.49941e-12 0 0)
(-6.4257e-12 0 0)
(-5.09534e-12 0 0)
(-6.19814e-12 0 0)
(-5.65112e-12 0 0)
(-7.43952e-12 0 0)
(-6.03768e-12 0 0)
(-6.22148e-12 0 0)
(-5.41335e-12 0 0)
(-5.37834e-12 0 0)
(-3.29819e-12 0 0)
(-3.61473e-12 0 0)
(-1.82487e-12 0 0)
(-2.79201e-12 0 0)
(-3.61911e-12 0 0)
(-2.54402e-12 0 0)
(-2.75116e-12 0 0)
(-1.90072e-12 0 0)
(-2.56445e-12 0 0)
(-2.14725e-12 0 0)
(-2.51485e-12 0 0)
(-1.63378e-13 0 0)
(-6.30171e-13 0 0)
(-2.85911e-13 0 0)
(5.58693e-13 0 0)
(-4.81381e-14 0 0)
(-1.37558e-12 0 0)
(8.05219e-13 0 0)
(1.26472e-12 0 0)
(2.20706e-12 0 0)
(1.98825e-12 0 0)
(3.04874e-12 0 0)
(1.52437e-12 0 0)
(1.57835e-12 0 0)
(2.35439e-12 0 0)
(3.68621e-12 0 0)
(1.11447e-12 0 0)
(2.35439e-12 0 0)
(1.93428e-12 0 0)
(1.38433e-12 0 0)
(2.12975e-13 0 0)
(1.75048e-12 0 0)
(-7.76044e-13 0 0)
(-3.18003e-13 0 0)
(7.22071e-13 0 0)
(1.72568e-12 0 0)
(1.95762e-12 0 0)
(1.52437e-12 0 0)
(2.32376e-12 0 0)
(1.31286e-12 0 0)
(1.44122e-12 0 0)
(5.45565e-13 0 0)
(1.87447e-12 0 0)
(8.81073e-13 0 0)
(1.58856e-12 0 0)
(1.29973e-12 0 0)
(1.04591e-12 0 0)
(-3.13627e-13 0 0)
(7.76044e-13 0 0)
(-4.21573e-13 0 0)
(-7.08943e-13 0 0)
(-5.32436e-13 0 0)
(1.17282e-12 0 0)
(1.59585e-12 0 0)
(1.74172e-12 0 0)
(1.48207e-12 0 0)
(2.71178e-12 0 0)
(1.59731e-12 0 0)
(1.51562e-12 0 0)
(1.04737e-12 0 0)
(1.00215e-12 0 0)
(3.15669e-12 0 0)
(1.47915e-12 0 0)
(1.40038e-12 0 0)
(4.50747e-13 0 0)
(2.31355e-12 0 0)
(1.18449e-12 0 0)
(2.7993e-12 0 0)
(2.10057e-12 0 0)
(1.9795e-12 0 0)
(8.271e-13 0 0)
(3.40467e-12 0 0)
(2.46234e-12 0 0)
(3.89918e-12 0 0)
(2.85619e-12 0 0)
(3.79416e-12 0 0)
(1.26618e-12 0 0)
(3.56659e-12 0 0)
(2.55132e-12 0 0)
(3.79999e-12 0 0)
(2.87953e-12 0 0)
(2.86786e-12 0 0)
(2.1808e-12 0 0)
(3.15377e-12 0 0)
(3.38571e-12 0 0)
(3.9269e-12 0 0)
(3.64974e-12 0 0)
(3.45135e-12 0 0)
(1.89781e-12 0 0)
(2.03055e-12 0 0)
(1.06341e-12 0 0)
(1.64545e-12 0 0)
(2.93642e-12 0 0)
(2.97289e-12 0 0)
(2.13266e-12 0 0)
(1.06487e-12 0 0)
(1.16698e-14 0 0)
(9.58385e-13 0 0)
(-5.83492e-15 0 0)
(1.72568e-12 0 0)
(2.53819e-12 0 0)
(3.34633e-12 0 0)
(4.46225e-12 0 0)
(3.50533e-12 0 0)
(3.63661e-12 0 0)
(3.36821e-12 0 0)
(2.70448e-12 0 0)
(1.95616e-12 0 0)
(2.81243e-12 0 0)
(2.62571e-12 0 0)
(2.16475e-12 0 0)
(2.5907e-12 0 0)
(3.76644e-12 0 0)
(2.7322e-12 0 0)
(2.70886e-12 0 0)
(3.35508e-12 0 0)
(2.32376e-12 0 0)
(4.28866e-12 0 0)
(3.21212e-12 0 0)
(2.58195e-12 0 0)
(3.31277e-12 0 0)
(1.52291e-12 0 0)
(1.39163e-12 0 0)
(2.0641e-12 0 0)
(1.45873e-12 0 0)
(1.68046e-12 0 0)
(6.87062e-13 0 0)
(1.69359e-12 0 0)
(2.11662e-12 0 0)
(1.2195e-12 0 0)
(3.35508e-13 0 0)
(2.32667e-12 0 0)
(1.23117e-12 0 0)
(2.06994e-12 0 0)
(2.61988e-12 0 0)
(3.14794e-12 0 0)
(2.3894e-12 0 0)
(2.18664e-12 0 0)
(2.25957e-12 0 0)
(3.14648e-12 0 0)
(3.40905e-12 0 0)
(3.5841e-12 0 0)
(4.2697e-12 0 0)
(2.95101e-12 0 0)
(2.58049e-12 0 0)
(3.3332e-12 0 0)
(3.41197e-12 0 0)
(4.27262e-12 0 0)
(3.4849e-12 0 0)
(4.06548e-12 0 0)
(4.18947e-12 0 0)
(4.56582e-12 0 0)
(5.28935e-12 0 0)
(4.31055e-12 0 0)
(4.00567e-12 0 0)
(3.7431e-12 0 0)
(2.92038e-12 0 0)
(2.57903e-12 0 0)
(2.2479e-12 0 0)
(2.39086e-12 0 0)
(1.59439e-12 0 0)
(3.74894e-13 0 0)
(3.34049e-13 0 0)
(-7.61457e-13 0 0)
(-2.28875e-12 0 0)
(-1.64836e-12 0 0)
(-1.75923e-12 0 0)
(-2.93351e-12 0 0)
(-4.65481e-12 0 0)
(-2.18226e-12 0 0)
(-1.43539e-12 0 0)
(-1.02549e-12 0 0)
(5.76198e-13 0 0)
(-8.63568e-13 0 0)
(-4.77005e-13 0 0)
(9.29211e-13 0 0)
(7.49787e-13 0 0)
(6.8852e-13 0 0)
(1.98387e-13 0 0)
(3.96774e-13 0 0)
(1.06196e-12 0 0)
(-1.53167e-13 0 0)
(1.40622e-12 0 0)
(-2.29021e-13 0 0)
(2.12683e-12 0 0)
(1.54188e-12 0 0)
(7.77503e-13 0 0)
(2.47984e-13 0 0)
(-3.83646e-13 0 0)
(8.7232e-13 0 0)
(2.01305e-13 0 0)
(-5.07638e-13 0 0)
(1.3785e-12 0 0)
(2.74241e-13 0 0)
(5.60152e-13 0 0)
(-1.45873e-14 0 0)
(-1.31577e-12 0 0)
(1.63961e-12 0 0)
(1.6046e-13 0 0)
(1.10863e-12 0 0)
(-5.42647e-13 0 0)
(1.5871e-12 0 0)
(8.1543e-13 0 0)
(-9.55468e-13 0 0)
(2.8737e-13 0 0)
(4.41995e-13 0 0)
(-2.47984e-14 0 0)
(-5.2806e-13 0 0)
(1.03424e-12 0 0)
(9.27752e-13 0 0)
(8.67944e-13 0 0)
(3.06333e-13 0 0)
(-4.97427e-13 0 0)
(-1.30994e-12 0 0)
(-9.43798e-13 0 0)
(-1.37704e-12 0 0)
(-1.6046e-14 0 0)
(-2.46525e-13 0 0)
(1.75339e-12 0 0)
(1.43831e-12 0 0)
(9.93395e-13 0 0)
(-3.93857e-13 0 0)
(8.62109e-13 0 0)
(1.18157e-13 0 0)
(3.86563e-13 0 0)
(8.21265e-13 0 0)
(1.41059e-12 0 0)
(-6.71016e-13 0 0)
(1.26909e-13 0 0)
(-2.757e-13 0 0)
(4.27408e-13 0 0)
(6.79768e-13 0 0)
(1.25159e-12 0 0)
(1.12614e-12 0 0)
(1.95032e-12 0 0)
(7.9209e-13 0 0)
(4.31784e-13 0 0)
(-3.7927e-13 0 0)
(-1.08384e-12 0 0)
(-1.05029e-12 0 0)
(1.18449e-12 0 0)
(3.94295e-12 0 0)
(1.34261e-11 0 0)
(2.87793e-11 0 0)
(6.4187e-11 0 0)
(1.38795e-10 0 0)
(2.99251e-10 0 0)
(6.37366e-10 0 0)
(1.3433e-09 0 0)
(2.80338e-09 0 0)
(5.80386e-09 0 0)
(1.19185e-08 0 0)
(2.42811e-08 0 0)
(4.90655e-08 0 0)
(9.83409e-08 0 0)
(1.95476e-07 0 0)
(3.85307e-07 0 0)
(7.53033e-07 0 0)
(1.45901e-06 0 0)
(2.80208e-06 0 0)
(5.33351e-06 0 0)
(1.00598e-05 0 0)
(1.87992e-05 0 0)
(3.48007e-05 0 0)
(6.38053e-05 0 0)
(0.000115841 0 0)
(0.000208219 0 0)
(0.000370455 0 0)
(0.000652242 0 0)
(0.00113615 0 0)
(0.00195752 0 0)
(0.00333501 0 0)
(0.00561666 0 0)
(0.00934777 0 0)
(0.0153685 0 0)
(0.0249505 0 0)
(0.0399815 0 0)
(0.063206 0 0)
(0.0985224 0 0)
(0.151325 0 0)
(0.228853 0 0)
(0.340482 0 0)
(0.497799 0 0)
(0.714269 0 0)
(1.00406 0 0)
(1.37929 0 0)
(1.84551 0 0)
(2.40128 0 0)
(3.04352 0 0)
(3.76992 0 0)
(4.57725 0 0)
(5.46091 0 0)
(6.41535 0 0)
(7.43449 0 0)
(8.51212 0 0)
(9.64215 0 0)
(10.8188 0 0)
(12.037 0 0)
(13.2917 0 0)
(14.5789 0 0)
(15.8948 0 0)
(17.2362 0 0)
(18.6001 0 0)
(19.9843 0 0)
(21.3863 0 0)
(22.8046 0 0)
(24.2373 0 0)
(25.683 0 0)
(27.1406 0 0)
(28.6089 0 0)
(30.087 0 0)
(31.574 0 0)
(33.0692 0 0)
(34.572 0 0)
(36.0816 0 0)
(37.5977 0 0)
(39.1197 0 0)
(40.6472 0 0)
(42.1799 0 0)
(43.7174 0 0)
(45.2594 0 0)
(46.8056 0 0)
(48.3557 0 0)
(49.9096 0 0)
(51.467 0 0)
(53.0277 0 0)
(54.5915 0 0)
(56.1584 0 0)
(57.728 0 0)
(59.3003 0 0)
(60.8751 0 0)
(62.4524 0 0)
(64.032 0 0)
(65.6138 0 0)
(67.1977 0 0)
(68.7835 0 0)
(70.3713 0 0)
(71.9609 0 0)
(73.5523 0 0)
(75.1454 0 0)
(76.74 0 0)
(78.3362 0 0)
(79.9338 0 0)
(81.5329 0 0)
(83.1333 0 0)
(84.735 0 0)
(86.3379 0 0)
(87.942 0 0)
(89.5472 0 0)
(91.1535 0 0)
(92.7609 0 0)
(94.3692 0 0)
(95.9785 0 0)
(97.5887 0 0)
(99.1997 0 0)
(100.812 0 0)
(102.424 0 0)
(104.038 0 0)
(105.652 0 0)
(107.267 0 0)
(108.882 0 0)
(110.498 0 0)
(112.115 0 0)
(113.732 0 0)
(115.35 0 0)
(116.968 0 0)
(118.587 0 0)
(120.206 0 0)
(121.825 0 0)
(123.445 0 0)
(125.065 0 0)
(126.686 0 0)
(128.307 0 0)
(129.928 0 0)
(131.549 0 0)
(133.171 0 0)
(134.793 0 0)
(136.415 0 0)
(138.037 0 0)
(139.659 0 0)
(141.282 0 0)
(142.904 0 0)
(144.527 0 0)
(146.149 0 0)
(147.772 0 0)
(149.395 0 0)
(151.017 0 0)
(152.64 0 0)
(154.263 0 0)
(155.885 0 0)
(157.507 0 0)
(159.13 0 0)
(160.752 0 0)
(162.374 0 0)
(163.995 0 0)
(165.617 0 0)
(167.238 0 0)
(168.859 0 0)
(170.48 0 0)
(172.101 0 0)
(173.721 0 0)
(175.341 0 0)
(176.96 0 0)
(178.579 0 0)
(180.198 0 0)
(181.816 0 0)
(183.433 0 0)
(185.05 0 0)
(186.667 0 0)
(188.283 0 0)
(189.898 0 0)
(191.513 0 0)
(193.127 0 0)
(194.74 0 0)
(196.353 0 0)
(197.964 0 0)
(199.576 0 0)
(201.186 0 0)
(202.794 0 0)
(204.402 0 0)
(206.009 0 0)
(207.616 0 0)
(209.221 0 0)
(210.824 0 0)
(212.424 0 0)
(214.025 0 0)
(215.627 0 0)
(217.227 0 0)
(218.823 0 0)
(220.415 0 0)
(222.007 0 0)
(223.6 0 0)
(225.192 0 0)
(226.78 0 0)
(228.367 0 0)
(229.954 0 0)
(231.535 0 0)
(233.106 0 0)
(234.674 0 0)
(236.259 0 0)
(237.862 0 0)
(239.454 0 0)
(240.997 0 0)
(242.507 0 0)
(244.064 0 0)
(245.702 0 0)
(247.364 0 0)
(248.957 0 0)
(250.412 0 0)
(251.866 0 0)
(253.501 0 0)
(255.269 0 0)
(257.03 0 0)
(258.644 0 0)
(260.032 0 0)
(261.399 0 0)
(262.963 0 0)
(264.641 0 0)
(266.263 0 0)
(267.742 0 0)
(269.099 0 0)
(270.333 0 0)
(271.689 0 0)
(273.356 0 0)
(275.096 0 0)
(276.704 0 0)
(277.987 0 0)
(279.012 0 0)
(280.234 0 0)
(281.734 0 0)
(283.196 0 0)
(284.472 0 0)
(285.382 0 0)
(286.12 0 0)
(287.094 0 0)
(288.185 0 0)
(289.136 0 0)
(289.841 0 0)
(290.236 0 0)
(290.588 0 0)
(291.117 0 0)
(291.66 0 0)
(292.127 0 0)
(292.507 0 0)
(292.747 0 0)
(292.902 0 0)
(293.111 0 0)
(293.356 0 0)
(293.578 0 0)
(293.767 0 0)
(293.932 0 0)
(294.033 0 0)
(294.06 0 0)
(294.105 0 0)
(294.189 0 0)
(294.27 0 0)
(294.348 0 0)
(294.424 0 0)
(294.466 0 0)
(294.493 0 0)
(294.545 0 0)
(294.606 0 0)
(294.661 0 0)
(294.715 0 0)
(294.76 0 0)
(294.777 0 0)
(294.784 0 0)
(294.801 0 0)
(294.822 0 0)
(294.836 0 0)
(294.841 0 0)
(294.847 0 0)
(294.842 0 0)
(294.823 0 0)
(294.8 0 0)
(294.774 0 0)
(294.744 0 0)
(294.723 0 0)
(294.703 0 0)
(294.668 0 0)
(294.626 0 0)
(294.588 0 0)
(294.552 0 0)
(294.507 0 0)
(294.475 0 0)
(294.454 0 0)
(294.42 0 0)
(294.373 0 0)
(294.327 0 0)
(294.292 0 0)
(294.26 0 0)
(294.219 0 0)
(294.185 0 0)
(294.162 0 0)
(294.139 0 0)
(294.11 0 0)
(294.069 0 0)
(294.022 0 0)
(294.004 0 0)
(294.006 0 0)
(293.993 0 0)
(293.96 0 0)
(293.923 0 0)
(293.903 0 0)
(293.9 0 0)
(293.896 0 0)
(293.878 0 0)
(293.854 0 0)
(293.835 0 0)
(293.827 0 0)
(293.822 0 0)
(293.808 0 0)
(293.788 0 0)
(293.776 0 0)
(293.776 0 0)
(293.767 0 0)
(293.744 0 0)
(293.726 0 0)
(293.728 0 0)
(293.734 0 0)
(293.725 0 0)
(293.702 0 0)
(293.685 0 0)
(293.688 0 0)
(293.697 0 0)
(293.689 0 0)
(293.669 0 0)
(293.659 0 0)
(293.662 0 0)
(293.668 0 0)
(293.661 0 0)
(293.644 0 0)
(293.633 0 0)
(293.636 0 0)
(293.645 0 0)
(293.639 0 0)
(293.621 0 0)
(293.61 0 0)
(293.616 0 0)
(293.623 0 0)
(293.614 0 0)
(293.597 0 0)
(293.589 0 0)
(293.597 0 0)
(293.602 0 0)
(293.589 0 0)
(293.57 0 0)
(293.566 0 0)
(293.577 0 0)
(293.58 0 0)
(293.566 0 0)
(293.549 0 0)
(293.543 0 0)
(293.551 0 0)
(293.559 0 0)
(293.547 0 0)
(293.526 0 0)
(293.521 0 0)
(293.529 0 0)
(293.534 0 0)
(293.523 0 0)
(293.507 0 0)
(293.501 0 0)
(293.511 0 0)
(293.52 0 0)
(293.509 0 0)
(293.489 0 0)
(293.488 0 0)
(293.504 0 0)
(293.51 0 0)
(293.497 0 0)
(293.482 0 0)
(293.485 0 0)
(293.505 0 0)
(293.524 0 0)
(293.524 0 0)
(293.52 0 0)
(293.543 0 0)
(293.588 0 0)
(293.629 0 0)
(293.657 0 0)
(293.684 0 0)
(293.727 0 0)
(293.786 0 0)
(293.837 0 0)
(293.851 0 0)
(293.836 0 0)
(293.815 0 0)
(293.781 0 0)
(293.698 0 0)
(293.55 0 0)
(293.371 0 0)
(293.217 0 0)
(293.143 0 0)
(293.144 0 0)
(293.167 0 0)
(293.198 0 0)
(293.261 0 0)
(293.34 0 0)
(293.389 0 0)
(293.387 0 0)
(293.365 0 0)
(293.371 0 0)
(293.401 0 0)
(293.419 0 0)
(293.401 0 0)
(293.372 0 0)
(293.374 0 0)
(293.403 0 0)
(293.422 0 0)
(293.4 0 0)
(293.365 0 0)
(293.365 0 0)
(293.395 0 0)
(293.411 0 0)
(293.393 0 0)
(293.366 0 0)
(293.366 0 0)
(293.389 0 0)
(293.404 0 0)
(293.389 0 0)
(293.367 0 0)
(293.371 0 0)
(293.392 0 0)
(293.402 0 0)
(293.391 0 0)
(293.376 0 0)
(293.38 0 0)
(293.397 0 0)
(293.406 0 0)
(293.397 0 0)
(293.385 0 0)
(293.385 0 0)
(293.397 0 0)
(293.406 0 0)
(293.399 0 0)
(293.388 0 0)
(293.389 0 0)
(293.401 0 0)
(293.407 0 0)
(293.402 0 0)
(293.393 0 0)
(293.394 0 0)
(293.406 0 0)
(293.414 0 0)
(293.409 0 0)
(293.397 0 0)
(293.394 0 0)
(293.406 0 0)
(293.419 0 0)
(293.413 0 0)
(293.395 0 0)
(293.391 0 0)
(293.404 0 0)
(293.416 0 0)
(293.409 0 0)
(293.39 0 0)
(293.384 0 0)
(293.397 0 0)
(293.406 0 0)
(293.395 0 0)
(293.374 0 0)
(293.368 0 0)
(293.382 0 0)
(293.39 0 0)
(293.369 0 0)
(293.341 0 0)
(293.338 0 0)
(293.357 0 0)
(293.359 0 0)
(293.327 0 0)
(293.29 0 0)
(293.289 0 0)
(293.31 0 0)
(293.305 0 0)
(293.263 0 0)
(293.222 0 0)
(293.211 0 0)
(293.221 0 0)
(293.219 0 0)
(293.175 0 0)
(293.118 0 0)
(293.089 0 0)
(293.083 0 0)
(293.073 0 0)
(293.024 0 0)
(292.955 0 0)
(292.903 0 0)
(292.869 0 0)
(292.838 0 0)
(292.784 0 0)
(292.692 0 0)
(292.599 0 0)
(292.525 0 0)
(292.453 0 0)
(292.372 0 0)
(292.243 0 0)
(292.081 0 0)
(291.937 0 0)
(291.809 0 0)
(291.683 0 0)
(291.503 0 0)
(291.234 0 0)
(290.957 0 0)
(290.714 0 0)
(290.477 0 0)
(290.196 0 0)
(289.74 0 0)
(289.137 0 0)
(288.511 0 0)
(287.813 0 0)
(286.95 0 0)
(285.727 0 0)
(283.797 0 0)
(281.13 0 0)
(277.722 0 0)
(272.866 0 0)
(265.196 0 0)
(252.179 0 0)
(227.071 0 0)
(167.431 0 0)
(66.2975 0 0)
(11.4459 0 0)
(1.7881 0 0)
(0.263169 0 0)
(0.0386268 0 0)
(0.00566402 0 0)
(0.00083016 0 0)
(0.000121678 0 0)
(1.78323e-05 0 0)
(2.61319e-06 0 0)
(3.82937e-07 0 0)
(5.61152e-08 0 0)
(8.22435e-09 0 0)
(1.20609e-09 0 0)
(1.77407e-10 0 0)
(2.61317e-11 0 0)
(4.91009e-12 0 0)
(-2.25228e-12 0 0)
(-2.71178e-12 0 0)
(-2.11808e-12 0 0)
(-1.6542e-12 0 0)
(-1.56084e-12 0 0)
(-1.6046e-14 0 0)
(-1.77674e-12 0 0)
(1.52875e-12 0 0)
(-3.28944e-12 0 0)
(1.838e-13 0 0)
(-2.09911e-12 0 0)
(-2.32522e-12 0 0)
(-1.50833e-12 0 0)
(-1.64399e-12 0 0)
(-5.47024e-13 0 0)
(-3.15524e-12 0 0)
(-2.65052e-12 0 0)
(-4.17635e-12 0 0)
(-7.16237e-13 0 0)
(-2.20414e-12 0 0)
(-2.33397e-13 0 0)
(-2.13267e-12 0 0)
(-1.86718e-13 0 0)
(-1.64107e-12 0 0)
(-6.0975e-13 0 0)
(-1.91094e-12 0 0)
(-1.78549e-12 0 0)
(-2.79493e-12 0 0)
(-2.68844e-12 0 0)
(-2.24936e-12 0 0)
(-2.6476e-12 0 0)
(-3.82479e-12 0 0)
(-3.62932e-12 0 0)
(-5.00637e-12 0 0)
(-2.2727e-12 0 0)
(-2.86787e-12 0 0)
(-1.29681e-12 0 0)
(-2.77305e-12 0 0)
(-1.28077e-12 0 0)
(-2.2975e-12 0 0)
(-9.61304e-13 0 0)
(1.10134e-12 0 0)
(1.02257e-12 0 0)
(3.19316e-12 0 0)
(1.25013e-12 0 0)
(1.55355e-12 0 0)
(1.14802e-12 0 0)
(3.22088e-12 0 0)
(5.01804e-13 0 0)
(1.65128e-12 0 0)
(-3.99255e-12 0 0)
(-2.96414e-12 0 0)
(-3.15086e-13 0 0)
(-2.50318e-12 0 0)
(-3.11147e-12 0 0)
(-1.46019e-12 0 0)
(-2.01888e-12 0 0)
(-1.09697e-12 0 0)
(-2.35148e-12 0 0)
(-2.04368e-12 0 0)
(-2.57174e-12 0 0)
(1.10864e-12 0 0)
(-2.38357e-12 0 0)
(-2.71032e-12 0 0)
(-3.83355e-12 0 0)
(-3.65558e-12 0 0)
(-2.62863e-12 0 0)
(-1.5871e-12 0 0)
(-1.4777e-12 0 0)
(-1.91094e-12 0 0)
(-6.76851e-13 0 0)
(-2.64468e-12 0 0)
(-2.19539e-12 0 0)
(-3.71977e-12 0 0)
(-2.91017e-12 0 0)
(-3.959e-12 0 0)
(-1.4281e-12 0 0)
(-1.85405e-12 0 0)
(5.04721e-13 0 0)
(1.92844e-12 0 0)
(2.39524e-12 0 0)
(1.78986e-12 0 0)
(2.62134e-12 0 0)
(1.84967e-12 0 0)
(2.51339e-12 0 0)
(1.29098e-12 0 0)
(2.72637e-12 0 0)
(-1.23992e-13 0 0)
(-1.54188e-12 0 0)
(-1.49958e-12 0 0)
(-1.72714e-12 0 0)
(-1.79278e-12 0 0)
(-1.07071e-12 0 0)
(1.56084e-13 0 0)
(7.87715e-14 0 0)
(1.19178e-12 0 0)
(2.57904e-12 0 0)
(4.58188e-12 0 0)
(4.5279e-12 0 0)
(4.9203e-12 0 0)
(5.87723e-12 0 0)
(5.44253e-12 0 0)
(5.00199e-12 0 0)
(4.49581e-12 0 0)
(4.76422e-12 0 0)
(4.79047e-12 0 0)
(7.31262e-12 0 0)
(6.26379e-12 0 0)
(7.72982e-12 0 0)
(5.50525e-12 0 0)
(4.78902e-12 0 0)
(3.06334e-12 0 0)
(4.10487e-12 0 0)
(2.25958e-12 0 0)
(2.46088e-12 0 0)
(8.47523e-13 0 0)
(1.9299e-12 0 0)
(2.10495e-12 0 0)
(1.87885e-12 0 0)
(4.54103e-12 0 0)
(3.84376e-12 0 0)
(3.45136e-12 0 0)
(2.76576e-12 0 0)
(2.47839e-12 0 0)
(3.78687e-12 0 0)
(1.68484e-12 0 0)
(3.28069e-12 0 0)
(1.85551e-12 0 0)
(1.4529e-12 0 0)
(2.28e-12 0 0)
(1.4777e-12 0 0)
(1.07654e-12 0 0)
(1.74173e-12 0 0)
(1.10572e-12 0 0)
(1.56376e-12 0 0)
(2.74971e-12 0 0)
(2.42733e-12 0 0)
(3.12169e-12 0 0)
(3.86272e-12 0 0)
(3.05313e-12 0 0)
(4.62418e-12 0 0)
(4.719e-12 0 0)
(5.50671e-12 0 0)
(4.28138e-12 0 0)
(6.17189e-12 0 0)
(5.72698e-12 0 0)
(5.10848e-12 0 0)
(4.65627e-12 0 0)
(3.26318e-12 0 0)
(4.49143e-12 0 0)
(3.88023e-12 0 0)
(3.23984e-12 0 0)
(2.45796e-12 0 0)
(4.27992e-12 0 0)
(4.17635e-12 0 0)
(3.0648e-12 0 0)
(1.94741e-12 0 0)
(1.50687e-12 0 0)
(1.30848e-12 0 0)
(2.10787e-12 0 0)
(2.17497e-12 0 0)
(1.43831e-12 0 0)
(3.22963e-12 0 0)
(3.77374e-12 0 0)
(4.19094e-12 0 0)
(2.88537e-12 0 0)
(3.7008e-12 0 0)
(3.67309e-12 0 0)
(4.60959e-12 0 0)
(5.28936e-12 0 0)
(5.26894e-12 0 0)
(5.59715e-12 0 0)
(3.39884e-12 0 0)
(5.46149e-12 0 0)
(4.02756e-12 0 0)
(3.35217e-12 0 0)
(3.67746e-12 0 0)
(3.84376e-12 0 0)
(4.05819e-12 0 0)
(3.63662e-12 0 0)
(4.66065e-12 0 0)
(4.12821e-12 0 0)
(4.36161e-12 0 0)
(5.32583e-12 0 0)
(5.43815e-12 0 0)
(6.40091e-12 0 0)
(6.22878e-12 0 0)
(6.07562e-12 0 0)
(6.11646e-12 0 0)
(6.2317e-12 0 0)
(6.54241e-12 0 0)
(4.77297e-12 0 0)
(6.06249e-12 0 0)
(6.27984e-12 0 0)
(8.07408e-12 0 0)
(5.94141e-12 0 0)
(6.49427e-12 0 0)
(5.92391e-12 0 0)
(6.65036e-12 0 0)
(6.92168e-12 0 0)
(7.39869e-12 0 0)
(7.85819e-12 0 0)
(8.45627e-12 0 0)
(7.7765e-12 0 0)
)
;

boundaryField
{
    sides
    {
        type            zeroGradient;
    }
    empty
    {
        type            empty;
    }
}


// ************************************************************************* //
