/*--------------------------------*- C++ -*----------------------------------*\
  =========                 |
  \\      /  F ield         | OpenFOAM: The Open Source CFD Toolbox
   \\    /   O peration     | Website:  https://openfoam.org
    \\  /    A nd           | Version:  13
     \\/     M anipulation  |
\*---------------------------------------------------------------------------*/
FoamFile
{
    format      ascii;
    class       volScalarField;
    location    "7";
    object      Ma;
}
// * * * * * * * * * * * * * * * * * * * * * * * * * * * * * * * * * * * * * //

dimensions      [];

internalField   nonuniform List<scalar> 
5250
(
3
2.99996
2.9999
2.99971
2.99933
2.99818
2.99584
2.98907
2.97411
2.93434
2.83872
2.59772
2.06002
1.12167
0.468473
0.3037
0.332394
0.33629
0.304007
0.25089
0.200778
0.159739
0.119173
0.0743405
0.0408504
3
2.99996
2.9999
2.99971
2.99934
2.9982
2.99589
2.98922
2.97445
2.93522
2.84085
2.60286
2.07043
1.13607
0.476737
0.304185
0.3339
0.338608
0.306632
0.254353
0.205497
0.165879
0.127501
0.0878057
0.0638167
3
2.99997
2.9999
2.99972
2.99936
2.99826
2.99599
2.98955
2.9751
2.93713
2.84523
2.61383
2.09301
1.1686
0.4958
0.306853
0.338923
0.345707
0.314799
0.264686
0.218737
0.18251
0.148995
0.117598
0.101688
3
2.99997
2.99991
2.99973
2.9994
2.9983
2.99626
2.98981
2.97656
2.93934
2.85269
2.63003
2.12825
1.22041
0.525223
0.311398
0.347347
0.357493
0.328286
0.281268
0.239054
0.207098
0.179028
0.154506
0.143082
3
2.99997
2.9999
2.99978
2.99936
2.99858
2.99611
2.99113
2.9768
2.94477
2.85978
2.65381
2.17558
1.29293
0.564932
0.318714
0.359526
0.373924
0.346688
0.303332
0.265053
0.237469
0.214493
0.195411
0.186973
3
2.99997
2.99992
2.99977
2.99946
2.99856
2.99671
2.9912
2.97983
2.94725
2.87339
2.67971
2.23652
1.38946
0.61569
0.331438
0.376828
0.39566
0.370434
0.330789
0.29659
0.273312
0.255395
0.24137
0.236105
3
2.99998
2.99993
2.9998
2.9995
2.99875
2.99688
2.99247
2.98086
2.95411
2.88401
2.71366
2.30708
1.51053
0.678404
0.354808
0.402297
0.424319
0.40064
0.364578
0.33402
0.31512
0.302368
0.294197
0.293901
3
2.99998
2.99994
2.99982
2.99956
2.99885
2.99736
2.99297
2.98393
2.95783
2.89987
2.74601
2.38771
1.6566
0.754204
0.394914
0.440167
0.461597
0.438841
0.406028
0.378594
0.363807
0.356942
0.356441
0.366274
3
2.99998
2.99994
2.99984
2.99961
2.99901
2.99756
2.99406
2.98501
2.96402
2.9094
2.7772
2.45371
1.7806
0.82863
0.431418
0.474844
0.494328
0.477921
0.451049
0.428864
0.419386
0.419845
0.432501
0.464405
3
2.99999
2.99995
2.99986
2.99967
2.99909
2.99791
2.99453
2.98705
2.9673
2.92025
2.80058
2.51037
1.88622
0.923728
0.486457
0.499829
0.514694
0.512298
0.494933
0.481564
0.47945
0.493064
0.532541
0.631832
3
2.99999
2.99996
2.99988
2.99969
2.99922
2.99812
2.99518
2.98868
2.97071
2.93028
2.82309
2.56599
1.99499
1.05203
0.559143
0.516001
0.532683
0.541209
0.535372
0.532538
0.541823
0.575224
0.653021
0.811882
3
2.99999
2.99996
2.9999
2.99972
2.99936
2.99828
2.99602
2.98975
2.97535
2.93831
2.84768
2.6211
2.11012
1.20867
0.645399
0.532339
0.550513
0.567229
0.572316
0.579928
0.602148
0.652283
0.749426
0.909688
3
2.99999
2.99997
2.99991
2.99978
2.99944
2.99857
2.99661
2.99123
2.97947
2.9471
2.87236
2.67835
2.23528
1.39915
0.747879
0.557757
0.574498
0.594837
0.608035
0.624421
0.656828
0.714989
0.80994
0.943509
3
3
2.99998
2.99993
2.99981
2.99955
2.99882
2.99719
2.99296
2.98275
2.95759
2.89491
2.73932
2.36926
1.63034
0.868981
0.604022
0.612402
0.629509
0.64671
0.66731
0.703515
0.762031
0.847429
0.958927
3.00001
3
2.99998
2.99995
2.99985
2.99964
2.99905
2.9978
2.99417
2.98675
2.96518
2.91814
2.79246
2.4988
1.87402
1.00593
0.667225
0.658036
0.671091
0.689305
0.709969
0.744873
0.799389
0.874615
0.970624
3.00001
3
2.99999
2.99996
2.99988
2.99972
2.99921
2.99827
2.99524
2.9893
2.97188
2.93361
2.83186
2.58932
2.0495
1.16391
0.741237
0.69396
0.707934
0.726447
0.749068
0.782
0.831681
0.897873
0.981059
3.00001
3
2.99999
2.99997
2.99991
2.99976
2.99941
2.99852
2.99644
2.99093
2.97856
2.94544
2.86774
2.66911
2.21839
1.3906
0.851298
0.726113
0.737088
0.755902
0.781915
0.814641
0.860062
0.918901
0.991024
3.00001
3
3
2.99998
2.99993
2.99983
2.99951
2.99893
2.99705
2.99344
2.98256
2.95939
2.89649
2.74737
2.38774
1.67091
0.988482
0.773562
0.769368
0.784468
0.812037
0.844943
0.88629
0.938541
1.00156
3.00001
3
3
2.99998
2.99995
2.99986
2.99965
2.99916
2.99784
2.99502
2.98695
2.96996
2.92272
2.81451
2.54372
1.97028
1.1567
0.841604
0.809436
0.820481
0.844571
0.87549
0.912214
0.957973
1.01304
3.00001
3.00001
3
2.99999
2.99996
2.9999
2.99975
2.99934
2.99846
2.99596
2.99081
2.97581
2.94377
2.85672
2.65195
2.18221
1.36818
0.930405
0.845206
0.853415
0.874046
0.903184
0.936987
0.977607
1.02575
3.00001
3.00001
3
3
2.99997
2.99993
2.99981
2.99953
2.99882
2.99712
2.99299
2.98246
2.95794
2.89468
2.74201
2.37867
1.66311
1.06574
0.892568
0.886158
0.900098
0.927144
0.960977
0.99773
1.04004
3.00001
3.00001
3
3
2.99998
2.99995
2.99986
2.99968
2.99912
2.99806
2.99471
2.98823
2.96913
2.92772
2.81822
2.56337
2.00826
1.24794
0.96314
0.924342
0.931931
0.954489
0.985569
1.01882
1.05581
3.00001
3.00001
3.00001
3
2.99999
2.99997
2.99991
2.99976
2.99939
2.99857
2.99625
2.99152
2.97764
2.94838
2.86848
2.68217
2.24983
1.48529
1.05752
0.96199
0.963229
0.980762
1.00894
1.03998
1.0731
3.00001
3.00001
3.00001
3
3
2.99998
2.99994
2.99982
2.99961
2.99892
2.99757
2.99364
2.9852
2.96257
2.91005
2.77669
2.46495
1.82396
1.20742
1.01617
0.997249
1.00806
1.03143
1.06098
1.09153
3.00001
3.00001
3.00001
3
3
2.99999
2.99996
2.99989
2.9997
2.99933
2.99816
2.99601
2.98917
2.97568
2.93718
2.85069
2.63239
2.15411
1.41663
1.09558
1.03489
1.03825
1.05571
1.08183
1.11069
3.00001
3.00001
3.00001
3.00001
3
2.99999
2.99997
2.99993
2.9998
2.99955
2.99876
2.99722
2.99274
2.98314
2.95743
2.89783
2.74712
2.39984
1.72266
1.2224
1.08119
1.06904
1.07892
1.10147
1.12983
3.00001
3.00001
3.00001
3.00001
3
3
2.99998
2.99996
2.99987
2.9997
2.99918
2.99818
2.99519
2.98904
2.97203
2.93395
2.83602
2.6074
2.10177
1.41665
1.15325
1.10608
1.1079
1.1241
1.14826
3.00001
3.00001
3.00001
3.00001
3.00001
3
2.99999
2.99997
2.99992
2.99979
2.9995
2.99869
2.99706
2.99218
2.98244
2.95456
2.89309
2.73427
2.37523
1.70001
1.26524
1.14777
1.13656
1.14475
1.16462
3.00001
3.00001
3.00001
3.00001
3.00001
3
3
2.99999
2.99995
2.99988
2.99965
2.99924
2.99795
2.99541
2.98814
2.97238
2.93124
2.83486
2.60175
2.0962
1.45194
1.21277
1.1708
1.17075
1.18497
3.00001
3.00001
3.00001
3.00001
3.00001
3.00001
3
2.99999
2.99997
2.99992
2.99978
2.99949
2.99872
2.99692
2.99254
2.98165
2.95614
2.89181
2.73854
2.38102
1.72513
1.31665
1.20891
1.19703
1.20401
3.00001
3.00001
3.00001
3.00001
3.00001
3.00001
3
3
2.99998
2.99995
2.99987
2.99969
2.99917
2.99818
2.9951
2.98924
2.97178
2.93522
2.83783
2.61669
2.12523
1.50516
1.2726
1.23037
1.22865
3.00001
3.00001
3.00001
3.00001
3.00001
3.00001
3.00001
3
2.99999
2.99997
2.99993
2.99979
2.99951
2.99878
2.99706
2.99293
2.98251
2.95863
2.89734
2.75396
2.4155
1.78889
1.37911
1.26782
1.25318
3.00001
3.00001
3.00001
3.00001
3.00001
3.00001
3.00001
3
3
2.99999
2.99995
2.99989
2.99968
2.9993
2.99813
2.99581
2.98926
2.97504
2.93814
2.85216
2.64394
2.18595
1.57822
1.33659
1.28789
3.00001
3.00001
3.00001
3.00001
3.00001
3.00001
3.00001
3.00001
3
2.99999
2.99998
2.99993
2.99982
2.99956
2.99887
2.99743
2.99332
2.985
2.96125
2.91046
2.77746
2.47833
1.8934
1.45736
1.32723
3.00001
3.00001
3.00001
3.00001
3.00001
3.00001
3.00001
3.00001
3
3
2.99999
2.99996
2.99989
2.99973
2.99936
2.99837
2.99627
2.99041
2.97826
2.94474
2.87075
2.6852
2.27469
1.67579
1.40629
3.00001
3.00001
3.00001
3.00001
3.00001
3.00001
3.00001
3.00001
3.00001
3
3
2.99998
2.99994
2.99985
2.99959
2.99911
2.99762
2.99472
2.98645
2.96869
2.92253
2.81569
2.56063
2.04217
1.55433
3.00001
3.00001
3.00001
3.00001
3.00001
3.00001
3.00001
3.00001
3.00001
3.00001
3
2.99999
2.99997
2.99991
2.99977
2.99945
2.99862
2.99685
2.99189
2.98176
2.95328
2.89201
2.73445
2.38514
1.79877
3.00001
3.00001
3.00001
3.00001
3.00001
3.00001
3.00001
3.00001
3.00001
3.00001
3
3
2.99998
2.99995
2.99987
2.99967
2.99922
2.99804
2.99555
2.98859
2.97424
2.93485
2.84833
2.63461
2.18286
3.00001
3.00001
3.00001
3.00001
3.00001
3.00001
3.00001
3.00001
3.00001
3.00001
3.00001
3
2.99999
2.99997
2.99992
2.99981
2.99949
2.99888
2.99698
2.99344
2.98269
2.96099
2.90184
2.769
2.45543
3.00001
3.00001
3.00001
3.00001
3.00001
3.00001
3.00001
3.00001
3.00001
3.00001
3.00001
3
3
2.99998
2.99995
2.99986
2.99966
2.99915
2.99789
2.995
2.98725
2.97016
2.9243
2.81767
2.5541
3.00001
3.00001
3.00001
3.00001
3.00001
3.00001
3.00001
3.00001
3.00001
3.00001
3.00001
3
3
2.99999
2.99996
2.99988
2.99972
2.99925
2.99831
2.99536
2.9896
2.97204
2.93417
2.83035
2.58249
3.00001
3.00001
3.00001
3.00001
3.00001
3.00001
3.00001
3.00001
3.00001
3.00001
3.00001
3.00001
3
2.99999
2.99996
2.9999
2.99974
2.99931
2.9984
2.99566
2.99005
2.97331
2.93674
2.83599
2.59245
3.00001
3.00001
3.00001
3.00001
3.00001
3.00001
3.00001
3.00001
3.00001
3.00001
3.00001
3.00001
3
2.99999
2.99997
2.9999
2.99975
2.99933
2.99844
2.99577
2.9903
2.97382
2.93793
2.8384
2.59716
3.00001
3.00001
3.00001
3.00001
3.00001
3.00001
3.00001
3.00001
3.00001
3.00001
3.00001
3.00001
3
2.99999
2.99997
2.9999
2.99977
2.99933
2.99847
2.99584
2.99024
2.97443
2.93773
2.8401
2.59838
3.00001
3.00001
3.00001
3.00001
3.00001
3.00001
3.00001
3.00001
3.00001
3.00001
3.00001
3.00001
3
2.99999
2.99997
2.9999
2.99977
2.99933
2.99852
2.99584
2.99049
2.97449
2.93866
2.84119
2.60185
3.00001
3.00001
3.00001
3.00001
3.00001
3.00001
3.00001
3.00001
3.00001
3.00001
3.00001
3.00001
3
2.99999
2.99997
2.99991
2.99974
2.99941
2.99839
2.9962
2.99002
2.97574
2.93788
2.84429
2.60434
3.00001
3.00001
3.00001
3.00001
3.00001
3.00001
3.00001
3.00001
3.00001
3.00001
3.00001
3.00001
3
2.99999
2.99997
2.99992
2.99975
2.99943
2.99837
2.99635
2.98995
2.97636
2.93805
2.84625
2.60717
3.00001
3.00001
3.00001
3.00001
3.00001
3.00001
3.00001
3.00001
3.00001
3.00001
3.00001
3.00001
3
2.99999
2.99997
2.99991
2.99976
2.99941
2.99847
2.99618
2.99049
2.97576
2.9398
2.84611
2.61075
3.00001
3.00001
3.00001
3.00001
3.00001
3.00001
3.00001
3.00001
3.00001
3.00001
3.00001
3.00001
3
2.99999
2.99997
2.99991
2.99978
2.99937
2.99858
2.99605
2.99083
2.97554
2.9407
2.84633
2.61282
3.00001
3.00001
3.00001
3.00001
3.00001
3.00001
3.00001
3.00001
3.00001
3.00001
3.00001
3.00001
3
2.99999
2.99997
2.99992
2.99976
2.99944
2.9984
2.99646
2.99004
2.97705
2.9388
2.849
2.61216
1.01531
0.869963
0.418905
0.283847
0.23865
0.371091
0.41391
0.438927
0.469553
0.509126
0.547186
0.580545
0.612617
0.645715
0.679134
0.710109
0.737897
0.763706
0.789559
0.808727
0.817437
0.820167
0.815347
0.797578
0.764633
0.720455
0.669236
0.61582
0.562535
0.511009
0.461469
0.414317
0.370179
0.328441
0.289166
0.251783
0.215882
0.180485
0.146669
0.114165
0.0830929
0.0533571
0.0271564
0.0194022
0.0423468
0.0672422
0.0930076
0.117589
0.140893
0.162883
0.18518
0.207762
0.229803
0.251062
0.271683
0.291709
0.311319
0.33046
0.349249
0.367635
0.385694
0.403409
0.420827
0.437962
0.454831
0.471454
0.487833
0.503999
0.519951
0.535717
0.551284
0.566689
0.581902
0.596975
0.61187
0.626644
0.641247
0.655733
0.670057
0.684255
0.698316
0.712219
0.726026
0.739622
0.753167
0.766458
0.779709
0.792718
0.805619
0.818335
0.83081
0.843123
0.855061
0.86671
0.877834
0.888296
0.897865
0.90603
0.912301
0.916748
1.00136
0.899117
0.674161
0.415977
0.33467
0.20055
0.0811846
0.104749
0.187348
0.259258
0.308114
0.342856
0.375555
0.412108
0.450435
0.486496
0.5181
0.546781
0.574654
0.597849
0.60863
0.61004
0.602399
0.580414
0.543782
0.494988
0.441093
0.386512
0.3336
0.283645
0.23645
0.192292
0.152106
0.115141
0.082177
0.055231
0.0422234
0.0524348
0.0743112
0.0995848
0.125508
0.15093
0.175742
0.199185
0.221724
0.24416
0.266368
0.288128
0.308884
0.328669
0.348515
0.368711
0.388483
0.407546
0.425983
0.444011
0.461622
0.478943
0.495874
0.51255
0.528868
0.544975
0.560758
0.576363
0.591677
0.606836
0.621738
0.636508
0.65105
0.665474
0.679705
0.693816
0.707771
0.721589
0.735295
0.748832
0.762308
0.775568
0.788835
0.80181
0.814882
0.827562
0.840438
0.852825
0.865479
0.877596
0.889977
0.901844
0.9139
0.925492
0.937169
0.948374
0.959577
0.970162
0.980634
0.990169
0.999324
1.00682
1.01282
1.01665
1.01242
0.990529
0.898452
0.780562
0.680523
0.568811
0.456674
0.350405
0.259
0.177467
0.1067
0.0615002
0.100511
0.15029
0.195955
0.236361
0.271177
0.300581
0.327624
0.352675
0.365882
0.364212
0.350897
0.328473
0.290654
0.241222
0.193579
0.149446
0.113531
0.0910057
0.0860091
0.0982121
0.119199
0.144235
0.170597
0.196761
0.222162
0.246314
0.269862
0.293062
0.315777
0.337793
0.359136
0.379542
0.399318
0.4186
0.437636
0.45628
0.47419
0.491182
0.508066
0.525354
0.542583
0.559146
0.575202
0.590842
0.606216
0.621282
0.636164
0.650733
0.665174
0.679273
0.693309
0.706986
0.720679
0.733993
0.747408
0.760396
0.773568
0.786256
0.799213
0.81163
0.824398
0.836577
0.849173
0.861143
0.873574
0.885353
0.897617
0.909206
0.921296
0.932689
0.944592
0.955801
0.967483
0.978563
0.989958
1.00095
1.01202
1.02288
1.03358
1.04419
1.05449
1.06471
1.07446
1.08391
1.09242
1.10004
1.10561
1.10967
1.03624
1.05809
1.03272
0.974289
0.906223
0.827013
0.741481
0.656427
0.576844
0.500943
0.42556
0.353654
0.288037
0.230377
0.176811
0.128355
0.0856018
0.0549682
0.0546609
0.0737068
0.0982571
0.103173
0.0752766
0.0666715
0.0826821
0.12281
0.156161
0.191206
0.224524
0.254929
0.282314
0.307675
0.331916
0.355403
0.378245
0.400147
0.42127
0.441372
0.460908
0.479924
0.498533
0.516569
0.534109
0.550979
0.567437
0.583442
0.599316
0.614832
0.62997
0.64415
0.658174
0.672402
0.687138
0.701238
0.715091
0.728348
0.74165
0.754487
0.767481
0.77998
0.792677
0.804864
0.817301
0.829231
0.841435
0.853141
0.865125
0.876643
0.888425
0.899794
0.911382
0.922628
0.934025
0.945166
0.956374
0.967414
0.978436
0.989368
1.00021
1.01102
1.02167
1.03236
1.04278
1.05336
1.06354
1.074
1.08393
1.09427
1.10398
1.11413
1.12367
1.13365
1.14306
1.15263
1.16158
1.17026
1.17818
1.18511
1.19048
1.19382
1.05127
1.09706
1.10564
1.08564
1.04816
0.999296
0.941103
0.879102
0.817765
0.75647
0.694673
0.632097
0.5734
0.519283
0.467697
0.418031
0.369842
0.323947
0.281413
0.245295
0.217296
0.207401
0.226791
0.26141
0.308138
0.355608
0.396438
0.430505
0.459033
0.482991
0.503734
0.522468
0.539972
0.556906
0.573322
0.589331
0.604825
0.619842
0.634471
0.648848
0.662936
0.67673
0.69018
0.703266
0.716059
0.728586
0.741039
0.753345
0.76545
0.776875
0.788041
0.799306
0.811244
0.823059
0.834648
0.8458
0.856895
0.867742
0.878627
0.889328
0.900071
0.910668
0.921289
0.931801
0.942303
0.952741
0.963138
0.973516
0.983829
0.994149
1.0044
1.01466
1.02488
1.03508
1.0453
1.05542
1.06565
1.07567
1.08588
1.09579
1.10596
1.11575
1.12584
1.13553
1.1455
1.15509
1.16494
1.1745
1.18433
1.19388
1.20363
1.21295
1.22242
1.23134
1.24033
1.24856
1.25655
1.26333
1.26887
1.27221
1.05948
1.11542
1.14525
1.15003
1.13769
1.1121
1.07731
1.03617
0.992333
0.947283
0.900371
0.853228
0.805737
0.759616
0.714259
0.66979
0.62511
0.581375
0.540446
0.505039
0.479119
0.469721
0.480101
0.507623
0.545771
0.588284
0.627115
0.657929
0.679931
0.695757
0.707963
0.718439
0.728362
0.738117
0.748049
0.757844
0.767685
0.777217
0.786747
0.796049
0.805477
0.814759
0.824131
0.833315
0.842576
0.85169
0.860984
0.870227
0.879616
0.888513
0.897183
0.905795
0.915189
0.924828
0.934517
0.943835
0.953206
0.962327
0.971626
0.98073
0.99005
0.99916
1.00851
1.01763
1.02701
1.03616
1.04557
1.05474
1.06416
1.07337
1.0828
1.09204
1.10148
1.11075
1.12019
1.12947
1.13888
1.14814
1.15749
1.16673
1.17598
1.1852
1.19433
1.20354
1.21255
1.22189
1.23087
1.24027
1.24908
1.25844
1.26708
1.27632
1.28474
1.29371
1.30176
1.31017
1.31746
1.3246
1.32986
1.33362
1.06397
1.12381
1.16473
1.18695
1.1924
1.18556
1.16871
1.1452
1.11699
1.08642
1.05378
1.01964
0.984412
0.948268
0.911645
0.873494
0.833973
0.792486
0.752062
0.715731
0.688218
0.67243
0.675028
0.699812
0.739342
0.783204
0.822129
0.854016
0.875008
0.885274
0.888399
0.889275
0.889671
0.89128
0.893925
0.897498
0.901614
0.906089
0.910872
0.915869
0.92121
0.926694
0.932502
0.938416
0.944656
0.950982
0.957655
0.964406
0.971573
0.97849
0.985226
0.991853
0.999174
1.00704
1.01523
1.02324
1.0313
1.03925
1.04732
1.05538
1.06353
1.07174
1.07996
1.08832
1.09661
1.10511
1.11348
1.1221
1.13055
1.13926
1.14778
1.15656
1.16519
1.17404
1.18279
1.1917
1.20054
1.2095
1.21838
1.22736
1.23622
1.24524
1.25411
1.26324
1.2721
1.2812
1.28996
1.29897
1.30764
1.3165
1.32508
1.33371
1.34214
1.35044
1.35857
1.36632
1.37377
1.38036
1.38593
1.38917
1.06768
1.1271
1.17382
1.20601
1.22472
1.23138
1.22892
1.21919
1.20465
1.18637
1.16554
1.1427
1.11759
1.09144
1.06281
1.03155
0.995942
0.9563
0.917096
0.879944
0.845044
0.819748
0.819355
0.844515
0.884493
0.930429
0.97205
1.00411
1.02692
1.03897
1.03921
1.0326
1.024
1.01702
1.01243
1.01036
1.00989
1.01067
1.01212
1.01406
1.01653
1.01931
1.02257
1.02614
1.03015
1.03446
1.03918
1.04419
1.04965
1.0552
1.06059
1.06588
1.07153
1.07786
1.0847
1.0916
1.09851
1.10548
1.11246
1.11959
1.12674
1.13407
1.14142
1.14892
1.15645
1.16409
1.17181
1.17958
1.18749
1.1954
1.20349
1.21154
1.21978
1.22796
1.23634
1.24463
1.25309
1.26146
1.26997
1.27841
1.28703
1.29552
1.30414
1.31262
1.32119
1.32969
1.33821
1.34671
1.35515
1.36365
1.37199
1.38043
1.38864
1.3969
1.40487
1.41275
1.42014
1.42706
1.43276
1.43644
1.07247
1.12914
1.17764
1.21561
1.2426
1.25932
1.26746
1.26847
1.26444
1.25685
1.24554
1.23225
1.21615
1.19754
1.17615
1.14873
1.11543
1.07818
1.03952
0.995494
0.946896
0.9183
0.922957
0.949567
0.988944
1.03606
1.08187
1.11556
1.13952
1.15511
1.16126
1.15759
1.14626
1.13249
1.12034
1.11127
1.10508
1.10136
1.0993
1.09839
1.09823
1.09862
1.09959
1.10092
1.10283
1.10503
1.10779
1.1109
1.11462
1.11863
1.12278
1.12671
1.13087
1.13563
1.14115
1.14693
1.15295
1.15902
1.16526
1.17152
1.17798
1.18447
1.19121
1.19797
1.20498
1.212
1.21925
1.22649
1.23393
1.24138
1.24901
1.25664
1.26447
1.27227
1.28029
1.28823
1.29639
1.30447
1.3128
1.32099
1.3293
1.33756
1.34583
1.35418
1.36238
1.37082
1.37894
1.3874
1.39545
1.40386
1.41184
1.42014
1.42803
1.43614
1.44386
1.45162
1.45889
1.4658
1.47159
1.47531
1.07868
1.13136
1.17949
1.21972
1.25194
1.27527
1.29119
1.30049
1.30456
1.30476
1.30168
1.29567
1.28683
1.27427
1.25661
1.23104
1.19927
1.16435
1.12033
1.06143
1.00537
0.984568
0.994344
1.02108
1.06194
1.11194
1.15945
1.19578
1.22015
1.23655
1.24693
1.24978
1.24537
1.23312
1.21642
1.20035
1.18671
1.17668
1.16956
1.16487
1.16178
1.15986
1.15884
1.15833
1.15849
1.15914
1.16031
1.16206
1.16436
1.16717
1.17034
1.17341
1.17661
1.18016
1.18452
1.18941
1.19463
1.19999
1.20553
1.21121
1.21702
1.22301
1.2291
1.23542
1.24181
1.24845
1.25513
1.26204
1.26901
1.27617
1.28343
1.29082
1.29836
1.30598
1.31372
1.32156
1.32949
1.33751
1.34548
1.35362
1.36161
1.36985
1.37787
1.38618
1.39422
1.40256
1.41059
1.41894
1.42696
1.43527
1.44324
1.45148
1.45938
1.46747
1.4752
1.48302
1.49034
1.4974
1.50333
1.50725
1.08701
1.13507
1.18113
1.22201
1.25634
1.28421
1.30507
1.3206
1.33069
1.3373
1.33997
1.33979
1.33588
1.3271
1.30956
1.28485
1.25549
1.21571
1.15882
1.08605
1.03559
1.02705
1.04168
1.07039
1.11442
1.16518
1.21087
1.24799
1.27519
1.29356
1.30566
1.31347
1.31576
1.31212
1.30144
1.28495
1.26676
1.25019
1.23674
1.22669
1.21967
1.21505
1.21207
1.21023
1.20911
1.20863
1.20865
1.20925
1.21039
1.21208
1.21431
1.2168
1.21924
1.22191
1.22517
1.22928
1.23381
1.23866
1.24362
1.24888
1.25421
1.25983
1.2655
1.27145
1.27747
1.28374
1.29011
1.29668
1.30339
1.31024
1.31728
1.3244
1.33173
1.33908
1.34665
1.35422
1.36192
1.36958
1.37736
1.38514
1.39301
1.4009
1.40884
1.41681
1.42478
1.43283
1.4408
1.44888
1.45683
1.46491
1.47281
1.48084
1.48868
1.49659
1.50429
1.51197
1.51931
1.52631
1.53237
1.53629
1.09741
1.1409
1.18377
1.22385
1.25893
1.28884
1.31317
1.33247
1.34713
1.35795
1.36526
1.36854
1.36743
1.35808
1.34039
1.31623
1.28362
1.23222
1.1551
1.08239
1.05281
1.0558
1.07316
1.10644
1.15236
1.20034
1.24276
1.27861
1.30741
1.32966
1.34515
1.35558
1.36276
1.36505
1.36265
1.35474
1.34032
1.32162
1.303
1.28656
1.27363
1.26422
1.25783
1.25359
1.25088
1.24913
1.24817
1.24771
1.24788
1.24858
1.24988
1.25169
1.25377
1.25587
1.25837
1.26154
1.26552
1.26981
1.27441
1.27917
1.28418
1.28934
1.29473
1.30028
1.30607
1.312
1.31816
1.32444
1.33098
1.33759
1.34448
1.35141
1.35862
1.36586
1.3733
1.3807
1.38825
1.39582
1.40345
1.4112
1.41889
1.4268
1.43453
1.44257
1.45035
1.45846
1.46627
1.47441
1.48224
1.49035
1.49817
1.50621
1.51398
1.52191
1.52954
1.53726
1.54456
1.55165
1.55777
1.56183
1.10972
1.14905
1.1884
1.22629
1.26114
1.29176
1.31784
1.33966
1.35716
1.37076
1.38071
1.38571
1.38346
1.37186
1.35341
1.32607
1.28237
1.20901
1.12363
1.07299
1.06341
1.07293
1.09581
1.13403
1.17925
1.2221
1.26016
1.29375
1.32256
1.34721
1.36695
1.38215
1.3924
1.39921
1.40244
1.40216
1.39708
1.38563
1.36874
1.34947
1.33141
1.31622
1.30461
1.29629
1.29069
1.28714
1.28495
1.2837
1.28312
1.28307
1.28363
1.28476
1.28635
1.28814
1.28998
1.2923
1.29533
1.29911
1.30319
1.30762
1.31221
1.31711
1.32214
1.32744
1.33287
1.33857
1.34441
1.35048
1.35672
1.36315
1.36976
1.37656
1.38351
1.39054
1.39766
1.40489
1.41217
1.4196
1.42703
1.43463
1.44219
1.44992
1.45759
1.46543
1.47318
1.4811
1.48889
1.49687
1.50466
1.51265
1.52042
1.52839
1.53608
1.54396
1.55152
1.5592
1.56646
1.57354
1.57968
1.58377
1.12421
1.15911
1.19509
1.23025
1.26353
1.29398
1.32071
1.34356
1.36297
1.37758
1.3883
1.39157
1.38521
1.37133
1.34934
1.31133
1.2456
1.15672
1.08892
1.06713
1.07104
1.08507
1.11399
1.15435
1.1952
1.23292
1.26709
1.29841
1.32671
1.35243
1.37485
1.39412
1.40958
1.42098
1.42809
1.43255
1.43379
1.4315
1.42377
1.4099
1.39188
1.37333
1.35624
1.34221
1.33175
1.32454
1.32003
1.3173
1.31583
1.31513
1.31507
1.31561
1.31669
1.31821
1.3198
1.32157
1.32378
1.32682
1.3305
1.33459
1.33895
1.34359
1.34845
1.35352
1.35881
1.36425
1.36994
1.37577
1.38188
1.3881
1.39463
1.40124
1.40805
1.4149
1.4219
1.42899
1.43617
1.44348
1.45081
1.45831
1.46577
1.47342
1.48097
1.48874
1.49638
1.50423
1.51192
1.5198
1.52751
1.53539
1.54308
1.55092
1.55854
1.56629
1.57378
1.58134
1.58853
1.59553
1.60166
1.60573
1.14036
1.17146
1.20365
1.2362
1.26728
1.2966
1.32311
1.34614
1.36562
1.38039
1.38862
1.38647
1.37568
1.35798
1.32537
1.26631
1.17813
1.10126
1.0686
1.06617
1.07489
1.09639
1.12985
1.16736
1.20281
1.23588
1.26689
1.29624
1.32401
1.35011
1.37422
1.39605
1.41514
1.43127
1.44395
1.45263
1.45777
1.46093
1.46113
1.45709
1.44737
1.43188
1.41361
1.39536
1.3794
1.36669
1.3577
1.35176
1.34828
1.34642
1.34571
1.34575
1.34634
1.34747
1.34884
1.35029
1.35184
1.354
1.35693
1.36057
1.36455
1.36887
1.37343
1.37823
1.38324
1.38847
1.39389
1.39952
1.40538
1.41145
1.41774
1.42413
1.43068
1.43734
1.44413
1.45104
1.45804
1.46518
1.47236
1.4797
1.48703
1.49454
1.50199
1.50963
1.51718
1.52492
1.53251
1.54031
1.54792
1.55574
1.56333
1.57112
1.57864
1.58634
1.59373
1.60123
1.60833
1.61526
1.62132
1.62539
1.15703
1.18483
1.21356
1.24319
1.27221
1.29986
1.32537
1.34762
1.36571
1.37827
1.37965
1.37174
1.35676
1.32836
1.27516
1.18964
1.10769
1.0668
1.05905
1.06483
1.08085
1.10872
1.14196
1.17415
1.20464
1.23392
1.26254
1.2905
1.31777
1.34396
1.36895
1.39225
1.41373
1.43302
1.44981
1.46381
1.4744
1.48108
1.48554
1.48789
1.48724
1.48145
1.46952
1.45308
1.43494
1.41764
1.40296
1.3918
1.38411
1.37947
1.37701
1.3761
1.37611
1.3768
1.37791
1.37927
1.38058
1.38215
1.3843
1.38732
1.39092
1.39491
1.39919
1.40375
1.40854
1.41353
1.41876
1.42416
1.42986
1.43571
1.4418
1.44795
1.45433
1.46078
1.46742
1.47416
1.48102
1.48802
1.49506
1.5023
1.50949
1.5169
1.52421
1.53175
1.53914
1.54676
1.5542
1.56185
1.56931
1.57696
1.5844
1.592
1.59936
1.60688
1.61409
1.62141
1.62832
1.63507
1.64099
1.64495
1.17351
1.19909
1.2251
1.25181
1.2787
1.30425
1.32809
1.34834
1.36323
1.3683
1.36273
1.34936
1.32409
1.27536
1.19349
1.10944
1.06291
1.05138
1.05494
1.06668
1.08972
1.11932
1.14836
1.17602
1.20294
1.22977
1.25668
1.28352
1.31018
1.33615
1.36154
1.38561
1.40865
1.43
1.44969
1.46734
1.4825
1.49489
1.50365
1.50935
1.51371
1.51528
1.51337
1.50561
1.4922
1.47515
1.45738
1.44094
1.42763
1.41793
1.4118
1.40833
1.40692
1.40669
1.40737
1.40854
1.40973
1.411
1.41252
1.41476
1.41773
1.42124
1.42512
1.42933
1.43384
1.43858
1.4436
1.44879
1.45431
1.45992
1.46578
1.47172
1.47789
1.48415
1.49058
1.49715
1.5038
1.51065
1.51749
1.52457
1.53159
1.53885
1.54599
1.55338
1.56062
1.56807
1.57537
1.58285
1.59018
1.59765
1.60496
1.6124
1.61962
1.62697
1.63403
1.64115
1.64789
1.65442
1.66013
1.66397
1.18998
1.214
1.23785
1.26204
1.28629
1.3096
1.33037
1.3471
1.35473
1.35111
1.33872
1.31558
1.27041
1.19204
1.10762
1.05755
1.04328
1.04538
1.0541
1.07342
1.10007
1.1264
1.15122
1.17559
1.20001
1.22519
1.25074
1.27668
1.30264
1.32841
1.35375
1.3784
1.40222
1.42499
1.4465
1.46667
1.48493
1.50136
1.51513
1.52585
1.53357
1.53911
1.54294
1.5438
1.54047
1.53103
1.51615
1.49873
1.4812
1.46582
1.45382
1.44558
1.4406
1.43829
1.43763
1.43826
1.43933
1.44051
1.44172
1.44338
1.44571
1.4487
1.45214
1.45596
1.46014
1.46458
1.46935
1.47435
1.47964
1.48501
1.49065
1.49635
1.50228
1.5083
1.51451
1.52086
1.52731
1.53397
1.54064
1.54754
1.55439
1.56148
1.56848
1.57569
1.58279
1.59006
1.59721
1.60449
1.61164
1.6189
1.62601
1.63323
1.64024
1.64735
1.65417
1.66104
1.66749
1.67374
1.67911
1.68276
1.20655
1.22942
1.25171
1.27364
1.29542
1.31547
1.33214
1.34112
1.33861
1.32662
1.30481
1.26228
1.18712
1.10344
1.05127
1.03511
1.03625
1.04341
1.06069
1.08514
1.10885
1.13118
1.15278
1.17491
1.19776
1.22162
1.24611
1.27128
1.29657
1.32203
1.34712
1.37199
1.39617
1.41984
1.44252
1.46427
1.48463
1.50359
1.52069
1.53577
1.5482
1.55768
1.56508
1.57057
1.57351
1.57353
1.56848
1.5571
1.54122
1.52356
1.50658
1.49206
1.48132
1.47429
1.4706
1.46922
1.46958
1.47063
1.47169
1.47297
1.47472
1.47711
1.48
1.48332
1.48706
1.49111
1.49559
1.5003
1.50532
1.51044
1.51584
1.52131
1.52702
1.53285
1.53885
1.54502
1.55129
1.55775
1.56422
1.57092
1.57756
1.58442
1.59121
1.5982
1.6051
1.61217
1.61913
1.62622
1.63319
1.64027
1.64718
1.65417
1.66095
1.66779
1.67431
1.68086
1.68692
1.69276
1.69764
1.70099
1.22189
1.2451
1.26616
1.28609
1.30445
1.32026
1.32949
1.32721
1.31497
1.29364
1.25256
1.17939
1.09686
1.04417
1.02724
1.02782
1.03453
1.05129
1.0743
1.09618
1.11599
1.13516
1.15471
1.17537
1.19714
1.22002
1.24374
1.2681
1.29281
1.31773
1.34257
1.3674
1.39169
1.41581
1.43893
1.46165
1.48311
1.50383
1.52308
1.54107
1.55717
1.57119
1.5824
1.59135
1.59838
1.60342
1.60544
1.60428
1.59737
1.58416
1.56744
1.54938
1.53285
1.51944
1.50998
1.50437
1.50184
1.50147
1.50229
1.5033
1.50456
1.50641
1.50888
1.51173
1.515
1.51858
1.52267
1.52699
1.53172
1.53656
1.54173
1.54698
1.55248
1.55807
1.56385
1.56977
1.57581
1.58205
1.58831
1.59481
1.60125
1.60792
1.61449
1.62129
1.62796
1.63482
1.64156
1.64842
1.65517
1.66199
1.66867
1.67538
1.68188
1.68838
1.69454
1.70064
1.70617
1.71142
1.71556
1.71842
1.24048
1.25968
1.28086
1.29841
1.31304
1.32126
1.31843
1.30546
1.28369
1.24256
1.16987
1.08815
1.0361
1.01919
1.01985
1.02698
1.04396
1.06648
1.08703
1.10527
1.1223
1.13967
1.15803
1.17776
1.19871
1.2208
1.24377
1.26735
1.29146
1.31576
1.3403
1.36467
1.38901
1.41291
1.43649
1.45948
1.48185
1.5035
1.52421
1.54399
1.56244
1.5794
1.59459
1.60744
1.61774
1.62641
1.6331
1.63737
1.63841
1.63572
1.62667
1.61187
1.5943
1.5762
1.56026
1.54801
1.53985
1.53548
1.53406
1.53442
1.53528
1.53649
1.53838
1.54088
1.54376
1.54693
1.55057
1.55446
1.55877
1.56328
1.56812
1.5731
1.57832
1.58368
1.58921
1.59492
1.6007
1.60674
1.61275
1.61905
1.62526
1.63174
1.63811
1.64468
1.65117
1.65776
1.66431
1.67088
1.67741
1.68392
1.69034
1.6967
1.70287
1.70895
1.71466
1.72018
1.72503
1.72944
1.73253
1.73473
1.25876
1.27421
1.29321
1.30858
1.31693
1.31318
1.29889
1.27571
1.23329
1.15932
1.07755
1.02659
1.01045
1.01194
1.02071
1.03865
1.061
1.08097
1.098
1.11359
1.12909
1.14552
1.16321
1.18226
1.20258
1.2239
1.24617
1.26902
1.2925
1.3162
1.34028
1.36421
1.38832
1.41198
1.43565
1.45862
1.48151
1.50351
1.52527
1.54587
1.56594
1.58469
1.60242
1.61835
1.63272
1.64436
1.65439
1.6627
1.66859
1.67149
1.67169
1.6672
1.65595
1.63983
1.62142
1.60368
1.58841
1.57731
1.57053
1.5674
1.56693
1.56761
1.56864
1.57029
1.57282
1.57573
1.57906
1.58252
1.58641
1.59046
1.59493
1.59957
1.60451
1.60963
1.61491
1.62041
1.62596
1.63177
1.63755
1.64359
1.64957
1.65577
1.6619
1.66821
1.67446
1.68084
1.68715
1.69351
1.69979
1.70604
1.71215
1.71817
1.72391
1.72949
1.73453
1.73925
1.74302
1.74618
1.74797
1.74959
1.28256
1.28933
1.3026
1.31447
1.31151
1.29569
1.27057
1.22541
1.14813
1.06548
1.01626
1.00118
1.00365
1.01509
1.03514
1.05767
1.07726
1.09365
1.1082
1.12238
1.13726
1.15324
1.1706
1.18911
1.20889
1.2295
1.2511
1.2732
1.296
1.31904
1.3425
1.3659
1.38955
1.41283
1.43631
1.45916
1.48217
1.50434
1.5265
1.54771
1.56867
1.58853
1.60785
1.62576
1.64278
1.65779
1.67119
1.6821
1.69179
1.69939
1.70441
1.70607
1.70492
1.69831
1.68523
1.66783
1.6488
1.63113
1.61685
1.60703
1.60154
1.59964
1.59982
1.60048
1.60184
1.60425
1.60741
1.61073
1.61433
1.61803
1.62211
1.62637
1.63097
1.63573
1.64075
1.64591
1.65125
1.65675
1.66233
1.66813
1.67389
1.6799
1.6858
1.69192
1.69792
1.70402
1.71007
1.71608
1.72205
1.72789
1.73363
1.73912
1.74434
1.74918
1.75338
1.75691
1.75927
1.7611
1.76162
1.76248
1.30572
1.30398
1.30988
1.31011
1.29507
1.26727
1.21769
1.13586
1.05119
1.00392
0.990614
0.994341
1.00919
1.03251
1.05584
1.07531
1.0913
1.10501
1.11829
1.13184
1.14664
1.16247
1.17967
1.19786
1.21713
1.2372
1.25804
1.27957
1.30153
1.32409
1.34669
1.36981
1.39264
1.41587
1.43866
1.46165
1.48417
1.50666
1.52861
1.55038
1.57148
1.59224
1.6122
1.63159
1.64986
1.66735
1.68312
1.69762
1.7097
1.72034
1.72948
1.7362
1.73997
1.74045
1.73749
1.72841
1.71334
1.6947
1.6754
1.65814
1.64497
1.63649
1.63241
1.63147
1.63187
1.63291
1.63513
1.63812
1.64153
1.64507
1.64893
1.65294
1.65719
1.66173
1.66638
1.67142
1.67638
1.6818
1.687
1.69266
1.69809
1.70386
1.70951
1.71532
1.72113
1.72691
1.73274
1.73839
1.74407
1.74946
1.75474
1.7596
1.76406
1.76787
1.77071
1.77258
1.77351
1.77336
1.772
1.77206
1.33853
1.32151
1.31253
1.29603
1.26397
1.20642
1.11957
1.03454
0.990827
0.979999
0.985199
1.00366
1.03017
1.05455
1.07427
1.0899