/*--------------------------------*- C++ -*----------------------------------*\
  =========                 |
  \\      /  F ield         | OpenFOAM: The Open Source CFD Toolbox
   \\    /   O peration     | Website:  https://openfoam.org
    \\  /    A nd           | Version:  13
     \\/     M anipulation  |
\*---------------------------------------------------------------------------*/
FoamFile
{
    format      ascii;
    class       surfaceScalarField;
    location    "7";
    object      phi;
}
// * * * * * * * * * * * * * * * * * * * * * * * * * * * * * * * * * * * * * //

dimensions      [1 0 -1 0 0 0 0];

internalField   nonuniform List<scalar> 
10325
(
0.00840003
8.06329e-11
0.00840004
5.01419e-10
0.00840003
1.74379e-09
0.00839999
4.89504e-09
0.00840001
1.28956e-08
0.00839994
3.24237e-08
0.00839958
8.12312e-08
0.00840002
2.00881e-07
0.00839772
5.02772e-07
0.00839895
1.26649e-06
0.00839309
3.33486e-06
0.00838425
9.44369e-06
0.00834995
3.05034e-05
0.00823065
0.000117258
0.0076243
0.000592762
0.00698909
0.000636967
0.00637426
0.000615454
0.00573429
0.00063946
0.00506229
0.000671361
0.00434948
0.000712384
0.00358464
0.000764164
0.00276662
0.000817552
0.00189837
0.000867356
0.000978703
0.00091831
0.000977975
0.00840003
1.58751e-10
0.00840004
1.01614e-09
0.00840003
3.48954e-09
0.00839999
9.84097e-09
0.00840001
2.60795e-08
0.00839995
6.47903e-08
0.00839956
1.6656e-07
0.00840006
4.03549e-07
0.00839757
1.04315e-06
0.00839904
2.57766e-06
0.00839257
6.87655e-06
0.00838366
1.93441e-05
0.00834783
6.23113e-05
0.00822645
0.000236697
0.0076194
0.00118597
0.00697457
0.00128368
0.00636749
0.00122319
0.00573566
0.00127078
0.00506788
0.0013385
0.00434874
0.00143109
0.00357558
0.00153666
0.00274969
0.00164297
0.00187037
0.00174579
0.000946017
0.00184132
0.00192328
0.00840003
3.00534e-10
0.00840004
1.33343e-09
0.00840003
6.09214e-09
0.0084
1.31973e-08
0.00839999
4.4338e-08
0.0084
9.07495e-08
0.00839943
2.72041e-07
0.00840035
5.95059e-07
0.00839705
1.61648e-06
0.00839983
3.88587e-06
0.00839157
1.0437e-05
0.00838449
2.91439e-05
0.00834827
9.34583e-05
0.00823218
0.000351291
0.00765042
0.00175328
0.00699967
0.00193661
0.00639703
0.00182659
0.00577311
0.0018942
0.00511132
0.00199968
0.00439415
0.00214781
0.00361771
0.00231253
0.00278454
0.00247554
0.00189531
0.00263403
0.000956459
0.00277886
0.00287918
0.00840003
3.77903e-10
0.00840002
2.00729e-09
0.00840008
7.40103e-09
0.00839991
1.94381e-08
0.00840028
5.55468e-08
0.00839942
1.2116e-07
0.00840086
3.79407e-07
0.00839778
7.03527e-07
0.00840186
2.3857e-06
0.00839301
4.66041e-06
0.0083996
1.44796e-05
0.0083785
3.74579e-05
0.00835553
0.000123136
0.0082466
0.000453145
0.00772402
0.00226158
0.00706989
0.00259357
0.00646935
0.00242806
0.00585357
0.00250948
0.00519939
0.00265319
0.0044877
0.00285908
0.00371317
0.00308636
0.00287441
0.00331416
0.00196693
0.00354082
0.000999467
0.00374496
0.00387796
0.00840003
4.18043e-10
0.00840004
2.28543e-09
0.00839999
9.04478e-09
0.00840013
2.24122e-08
0.00839982
6.59214e-08
0.00840029
1.5947e-07
0.00839936
3.96765e-07
0.00840016
1.04547e-06
0.008398
2.40232e-06
0.00839948
6.60034e-06
0.00839137
1.62334e-05
0.00838911
4.6996e-05
0.00835935
0.000146108
0.00827206
0.000537951
0.00785877
0.00265864
0.0071975
0.00325807
0.00659158
0.00303523
0.00598058
0.00312004
0.00533753
0.00329562
0.00463366
0.00356252
0.0038634
0.00385594
0.00301809
0.00415885
0.00208811
0.00447014
0.00107254
0.00475914
0.00494971
0.00840003
3.29397e-10
0.00840001
3.23882e-09
0.00840009
8.03573e-09
0.00839988
3.17318e-08
0.00840039
6.18566e-08
0.00839912
2.04917e-07
0.00840212
4.07527e-07
0.00839533
1.24095e-06
0.00840881
2.65903e-06
0.00838394
7.48794e-06
0.00841392
1.83712e-05
0.0083739
5.25404e-05
0.00838126
0.000162768
0.00831497
0.000587639
0.00809751
0.00286167
0.0074223
0.00393723
0.00678999
0.00366905
0.00617412
0.00373555
0.00553759
0.00393172
0.00484568
0.00425397
0.00407719
0.00462384
0.00322628
0.00500933
0.00226689
0.00542857
0.00118734
0.00583753
0.00613631
0.00840003
5.82041e-10
0.00840004
2.47522e-09
0.00839999
1.15774e-08
0.00840011
2.40873e-08
0.00839979
8.40613e-08
0.00840062
1.66642e-07
0.00839848
5.22143e-07
0.00840359
1.07726e-06
0.00839253
3.15151e-06
0.00841149
7.13989e-06
0.00838397
1.97804e-05
0.00840969
5.30511e-05
0.00838412
0.000165275
0.00839401
0.000585242
0.00849723
0.00273919
0.00780314
0.00463473
0.0071026
0.00437123
0.00646665
0.00437128
0.00582943
0.00456841
0.00514292
0.00493993
0.00437917
0.00538704
0.00351745
0.00587056
0.00252979
0.00641532
0.00136706
0.00699897
0.00750256
0.00840003
3.23914e-10
0.00840002
3.006e-09
0.00840008
7.78528e-09
0.00839993
2.96363e-08
0.00840033
5.98597e-08
0.00839935
1.91898e-07
0.0084019
3.90181e-07
0.00839641
1.15566e-06
0.00840891
2.49986e-06
0.00838725
6.927e-06
0.0084218
1.672e-05
0.00839192
4.66624e-05
0.00844652
0.000138084
0.00854023
0.00047309
0.00918945
0.00207608
0.00846928
0.00535766
0.00758843
0.00525401
0.00690738
0.00505236
0.00625314
0.00522226
0.00555981
0.00563287
0.00479223
0.00615394
0.00392317
0.00673933
0.00290905
0.00742858
0.0016613
0.00824538
0.00916293
0.00840003
3.88858e-10
0.00840004
2.36845e-09
0.00840001
8.45294e-09
0.00840009
2.29013e-08
0.00839987
6.26031e-08
0.00840048
1.51901e-07
0.00839898
3.8711e-07
0.00840289
9.44473e-07
0.00839484
2.3317e-06
0.00841125
5.8439e-06
0.0083902
1.46562e-05
0.00842318
3.92467e-05
0.00842403
0.000114143
0.00852833
0.000379195
0.00898785
0.00160447
0.0086815
0.00565938
0.00788742
0.00604711
0.00732335
0.00561545
0.00667436
0.00587029
0.00603157
0.00627496
0.00529624
0.00688853
0.00447137
0.00756353
0.00350326
0.00839573
0.00216788
0.00957927
0.0113296
0.00840003
4.35685e-10
0.00840003
1.96259e-09
0.00840003
8.74759e-09
0.00840002
1.91826e-08
0.00840003
6.36874e-08
0.00840005
1.27981e-07
0.00839982
3.97171e-07
0.00840064
7.98731e-07
0.0083984
2.38416e-06
0.00840333
5.09297e-06
0.00839733
1.43488e-05
0.00840679
3.56744e-05
0.00841001
0.000105494
0.00844857
0.000342965
0.00865428
0.00139031
0.00848362
0.0058182
0.00824348
0.00628454
0.00762083
0.00623659
0.00705874
0.00643113
0.00650184
0.00683071
0.00588517
0.00750414
0.00519879
0.00824896
0.00430829
0.00928518
0.00303143
0.0108546
0.0143591
0.00840003
3.40632e-10
0.00840002
2.22656e-09
0.00840006
7.34302e-09
0.00839997
2.17464e-08
0.00840019
5.51423e-08
0.00839961
1.42226e-07
0.00840109
3.56275e-07
0.00839759
8.61931e-07
0.00840582
2.21111e-06
0.00838964
5.27405e-06
0.00841568
1.37312e-05
0.00838433
3.53996e-05
0.00841688
0.000101415
0.00841077
0.000326623
0.00854532
0.00126064
0.00852712
0.00582204
0.00817624
0.00663382
0.00777914
0.00663273
0.00739884
0.00681029
0.00696167
0.0072668
0.00655235
0.00791202
0.00606782
0.00873191
0.00561027
0.00974099
0.00553247
0.0109302
0.0114052
0.0084831
0.00840003
2.92717e-10
0.00840003
2.39472e-09
0.00840003
6.8599e-09
0.00840004
2.33996e-08
0.00840002
5.11259e-08
0.00839999
1.54107e-07
0.00840017
3.21704e-07
0.00839923
9.47292e-07
0.00840155
2.00227e-06
0.0083962
5.72644e-06
0.00840486
1.30657e-05
0.00839395
3.6239e-05
0.00840478
9.88849e-05
0.00840474
0.000317181
0.00849195
0.0011745
0.00868858
0.00561114
0.00833614
0.00698573
0.00796188
0.00700637
0.00765361
0.00711751
0.00735094
0.00756802
0.00706445
0.00819695
0.00682195
0.00897263
0.00672643
0.00983441
0.00709573
0.0105582
0.0104941
0.00800281
0.00840003
3.86671e-10
0.00840004
1.92364e-09
0.00840001
7.91009e-09
0.00840007
1.88264e-08
0.00839991
5.8516e-08
0.00840035
1.26573e-07
0.00839924
3.68638e-07
0.00840208
7.96062e-07
0.00839569
2.24792e-06
0.00840952
5.05015e-06
0.00838531
1.37885e-05
0.00841948
3.41763e-05
0.00838698
9.68725e-05
0.00842998
0.000298759
0.00851132
0.00107633
0.00911468
0.00499636
0.00872259
0.00737845
0.00828388
0.00744516
0.00797879
0.00742138
0.00775476
0.00779048
0.00757101
0.00837885
0.00750488
0.00903674
0.00767328
0.0096634
0.00813229
0.0100952
0.00995722
0.00866473
0.00840003
2.63381e-10
0.00840003
2.0808e-09
0.00840003
6.10319e-09
0.00840003
2.01482e-08
0.00840005
4.58695e-08
0.00839997
1.33081e-07
0.0084003
2.9314e-07
0.00839928
8.2202e-07
0.00840227
1.82935e-06
0.00839647
4.98781e-06
0.00840876
1.17288e-05
0.00839725
3.13886e-05
0.0084242
8.36174e-05
0.00845649
0.000253568
0.00866071
0.000875842
0.00991994
0.0037202
0.00935032
0.00794705
0.00883094
0.00796393
0.00844107
0.00781075
0.00821131
0.00801871
0.00811097
0.00847729
0.0081476
0.00899775
0.00835947
0.0094492
0.00875764
0.00969292
0.00951489
0.00919512
0.00840003
2.66822e-10
0.00840004
1.51869e-09
0.00840002
5.63649e-09
0.00840007
1.49157e-08
0.00839995
4.16139e-08
0.00840033
9.91212e-08
0.00839953
2.60817e-07
0.00840178
6.08323e-07
0.00839751
1.58349e-06
0.00840862
3.71609e-06
0.00839223
9.61679e-06
0.00842825
2.35626e-05
0.00841373
6.31732e-05
0.00851675
0.000180029
0.0087847
0.000588732
0.0101412
0.00236124
0.00993464
0.00814567
0.00954337
0.00835338
0.00898985
0.00836318
0.00871626
0.0082903
0.00862592
0.00856597
0.0086828
0.00893804
0.00888248
0.00924657
0.00921324
0.00935806
0.00915033
0.00957305
0.00840003
2.22689e-10
0.00840004
1.28011e-09
0.00840002
4.79868e-09
0.00840007
1.25233e-08
0.00839998
3.53361e-08
0.00840022
8.38615e-08
0.00839976
2.19108e-07
0.00840092
5.21443e-07
0.00839902
1.31285e-06
0.00840337
3.2139e-06
0.00839826
7.93169e-06
0.00841197
2.00555e-05
0.00840862
5.18871e-05
0.00845709
0.000146023
0.0085701
0.000464096
0.00915779
0.00177205
0.0100121
0.00727512
0.00976142
0.00860148
0.0094245
0.00869843
0.00916075
0.00855225
0.00907498
0.00864999
0.00913159
0.00887866
0.00930398
0.00907126
0.00956722
0.00909084
0.00886062
0.00985208
0.00840003
1.72277e-10
0.00840003
1.23585e-09
0.00840004
3.82726e-09
0.00840002
1.19772e-08
0.00840008
2.86776e-08
0.00839994
7.79899e-08
0.00840035
1.82613e-07
0.00839941
4.74838e-07
0.00840208
1.13111e-06
0.00839669
2.8511e-06
0.00840961
7.02709e-06
0.00839109
1.75959e-05
0.0084251
4.55837e-05
0.00841624
0.000125439
0.00851226
0.000388604
0.00886476
0.00140383
0.0100712
0.00605543
0.0099882
0.00868345
0.00975164
0.00893376
0.0095236
0.00877917
0.00945416
0.00871707
0.00950399
0.00882649
0.00964687
0.00892492
0.00985123
0.0088826
0.00863991
0.0100674
0.00840003
1.49421e-10
0.00840004
9.8755e-10
0.00840003
3.30699e-09
0.00840006
9.70109e-09
0.0084
2.45188e-08
0.00840016
6.46825e-08
0.00839987
1.53832e-07
0.00840062
3.99476e-07
0.00839944
9.42368e-07
0.00840224
2.45038e-06
0.008399
5.796e-06
0.00840863
1.51343e-05
0.00840506
3.7561e-05
0.00844082
0.000103057
0.00851185
0.000304427
0.00886845
0.00104895
0.0106893
0.00421698
0.0104301
0.00894035
0.0102829
0.00907941
0.00999904
0.00906201
0.0098413
0.00887381
0.00984333
0.00882153
0.0099452
0.00882017
0.0100978
0.00872635
0.00847783
0.0102554
0.00840003
1.33381e-10
0.00840003
7.1419e-10
0.00840003
2.80474e-09
0.00840004
6.98456e-09
0.00840001
2.0644e-08
0.00840012
4.65133e-08
0.0083999
1.27941e-07
0.00840068
2.88711e-07
0.00839917
7.62752e-07
0.00840408
1.76828e-06
0.00839604
4.54795e-06
0.0084189
1.09082e-05
0.00839753
2.79183e-05
0.00846707
7.20176e-05
0.00852953
0.000204626
0.00894263
0.000655036
0.0106338
0.00251217
0.0110444
0.00852143
0.0107947
0.00932668
0.0104754
0.00937935
0.0102459
0.00910187
0.0101803
0.00888456
0.0102274
0.0087698
0.0103257
0.00862431
0.00836631
0.0104333
0.00840003
9.58248e-11
0.00840003
6.1796e-10
0.00840004
2.07343e-09
0.00840003
6.0266e-09
0.00840006
1.53631e-08
0.00839999
3.94484e-08
0.00840023
9.69526e-08
0.00839975
2.38989e-07
0.00840129
5.91414e-07
0.00839846
1.43249e-06
0.00840685
3.57984e-06
0.0083941
8.67246e-06
0.00842495
2.20309e-05
0.0084073
5.59869e-05
0.00848981
0.000155003
0.00863731
0.000479439
0.0093917
0.00176572
0.0109936
0.00690099
0.0110149
0.00930179
0.0108286
0.00956283
0.0105849
0.00934434
0.0104951
0.00897152
0.010496
0.00876605
0.0105445
0.00857222
0.00830161
0.0106051
0.00840003
7.06774e-11
0.00840003
5.01907e-10
0.00840003
1.58368e-09
0.00840003
4.88867e-09
0.00840004
1.17833e-08
0.00840004
3.21744e-08
0.0084001
7.43358e-08
0.00839995
1.96521e-07
0.00840067
4.55394e-07
0.00839924
1.18424e-06
0.00840421
2.79178e-06
0.00839638
7.14994e-06
0.00841804
1.74786e-05
0.00840364
4.50814e-05
0.00846519
0.000120611
0.00855884
0.000359653
0.00909288
0.00124188
0.0112225
0.00475061
0.0112906
0.00922816
0.0112595
0.00959221
0.0110579
0.00954463
0.010839
0.00918827
0.0107653
0.00883708
0.0107646
0.00856947
0.00827805
0.0107843
0.00840003
5.57097e-11
0.00840003
3.57474e-10
0.00840003
1.22601e-09
0.00840004
3.49409e-09
0.00840002
9.07262e-09
0.00840008
2.30674e-08
0.00839999
5.63867e-08
0.00840031
1.41418e-07
0.00839985
3.38154e-07
0.00840145
8.52287e-07
0.0083996
2.02227e-06
0.0084064
5.12737e-06
0.00840302
1.22821e-05
0.00842961
3.14566e-05
0.00845104
8.05277e-05
0.00859986
0.000227577
0.00910801
0.00072189
0.0111787
0.00267406
0.0118283
0.00856771
0.0116932
0.00972465
0.0114436
0.00979195
0.0111867
0.00944307
0.0110512
0.00897041
0.0109967
0.00862132
0.00829745
0.0109738
0.00840003
4.47459e-11
0.00840003
2.56331e-10
0.00840003
9.59138e-10
0.00840004
2.49893e-09
0.00840003
7.04442e-09
0.00840006
1.66389e-08
0.0084
4.34947e-08
0.00840024
1.02822e-07
0.00839981
2.59148e-07
0.00840131
6.25676e-07
0.00839889
1.53553e-06
0.00840691
3.80795e-06
0.00839641
9.21219e-06
0.00842729
2.34191e-05
0.00841703
5.87639e-05
0.00851573
0.000161456
0.00871784
0.000490656
0.00962639
0.00177377
0.0116926
0.0064799
0.0118879
0.00952522
0.0118012
0.00987541
0.0115397
0.00970222
0.0113559
0.0091535
0.0112438
0.00873094
0.00835955
0.0111783
0.00840003
2.99006e-11
0.00840003
2.0179e-10
0.00840003
6.57056e-10
0.00840003
1.965e-09
0.00840004
4.9115e-09
0.00840002
1.27734e-08
0.00840009
3.11659e-08
0.00840002
7.68909e-08
0.00840024
1.90933e-07
0.00840019
4.54384e-07
0.00840059
1.16227e-06
0.00840201
2.70153e-06
0.00840249
7.04127e-06
0.00841218
1.65266e-05
0.0084234
4.34657e-05
0.00847502
0.000111721
0.00863524
0.000326126
0.00932274
0.00108462
0.0118532
0.00392742
0.0121998
0.00917258
0.0122018
0.00987246
0.0120159
0.0098872
0.0116727
0.00949585
0.0115156
0.00888681
0.00846631
0.0114064
0.00840003
2.26723e-11
0.00840003
1.39604e-10
0.00840003
4.8899e-10
0.00840004
1.36507e-09
0.00840003
3.60386e-09
0.00840005
8.95407e-09
0.00840002
2.24505e-08
0.00840014
5.43889e-08
0.00839998
1.34625e-07
0.00840061
3.26217e-07
0.00839987
8.01698e-07
0.00840296
1.9462e-06
0.0084003
4.79055e-06
0.00841397
1.17499e-05
0.00841306
2.92883e-05
0.00846959
7.49809e-05
0.00856689
0.000205975
0.00902491
0.000637891
0.0106655
0.00227614
0.0123403
0.0074828
0.012446
0.00976447
0.0123202
0.0100115
0.0119728
0.0098427
0.011802
0.00905562
0.00861342
0.0116527
0.00840003
1.60035e-11
0.00840003
1.00122e-10
0.00840003
3.48922e-10
0.00840003
9.77493e-10
0.00840003
2.57316e-09
0.00840005
6.45646e-09
0.00840003
1.59405e-08
0.0084001
3.93647e-08
0.00840002
9.56488e-08
0.00840031
2.36096e-07
0.00840025
5.70074e-07
0.00840094
1.41531e-06
0.00840227
3.41223e-06
0.00840462
8.51194e-06
0.00841419
2.08971e-05
0.00843467
5.3085e-05
0.00849814
0.000140755
0.00872048
0.00041447
0.00956538
0.00142593
0.0121389
0.00489097
0.0125756
0.00932215
0.0126365
0.00994916
0.0125501
0.00992813
0.012127
0.00947753
0.00883511
0.0119033
0.00840003
1.14575e-11
0.00840003
6.68592e-11
0.00840003
2.46822e-10
0.00840003
6.53517e-10
0.00840003
1.81527e-09
0.00840004
4.31123e-09
0.00840003
1.11918e-08
0.00840008
2.63445e-08
0.00840003
6.61361e-08
0.00840028
1.58585e-07
0.00840015
3.87487e-07
0.00840099
9.51773e-07
0.00840166
2.27131e-06
0.00840438
5.70739e-06
0.00841188
1.35819e-05
0.00842973
3.47099e-05
0.00848106
8.74398e-05
0.00865309
0.000243582
0.00931756
0.000759147
0.0115701
0.00262907
0.0128773
0.00800447
0.0129039
0.00991975
0.012795
0.0100343
0.012426
0.00984471
0.00906087
0.0121978
0.00840003
7.15731e-12
0.00840003
4.94148e-11
0.00840003
1.5879e-10
0.00840003
4.80762e-10
0.00840003
1.17546e-09
0.00840003
3.13027e-09
0.00840004
7.33346e-09
0.00840003
1.88268e-08
0.00840012
4.44054e-08
0.00839999
1.11005e-07
0.00840055
2.66894e-07
0.00839984
6.5252e-07
0.0084029
1.60548e-06
0.00839954
3.84851e-06
0.00841384
9.68485e-06
0.00840704
2.32922e-05
0.00845951
6.00475e-05
0.00851461
0.000157698
0.00882845
0.000468687
0.00982282
0.0016151
0.0125118
0.00529657
0.0129965
0.00942916
0.0130898
0.00993866
0.0129756
0.00995676
0.00947259
0.0125615
0.00840003
5.10463e-12
0.00840003
3.10621e-11
0.00840003
1.10328e-10
0.00840003
3.03429e-10
0.00840003
8.12194e-10
0.00840004
1.98555e-09
0.00840003
5.01875e-09
0.00840006
1.20161e-08
0.00840003
2.98054e-08
0.00840016
7.13985e-08
0.00840009
1.75341e-07
0.00840054
4.23803e-07
0.00840085
1.02656e-06
0.00840199
2.518e-06
0.00840646
6.04852e-06
0.00841176
1.50428e-05
0.00843927
3.68201e-05
0.00849655
9.50827e-05
0.00870717
0.000260822
0.00949737
0.000818365
0.012047
0.00274069
0.0132929
0.00816857
0.0132945
0.00993301
0.0132703
0.0099773
0.00982794
0.0129129
0.00840003
3.22549e-12
0.00840003
2.13693e-11
0.00840003
7.18392e-11
0.00840003
2.07858e-10
0.00840003
5.29302e-10
0.00840004
1.35881e-09
0.00840003
3.25756e-09
0.00840004
8.24431e-09
0.00840004
1.93113e-08
0.00840007
4.90951e-08
0.00840015
1.13875e-07
0.00840014
2.89824e-07
0.00840097
6.7465e-07
0.00840027
1.70694e-06
0.00840609
4.01814e-06
0.0084023
1.01064e-05
0.00843057
2.4457e-05
0.00843934
6.22026e-05
0.00856266
0.00016386
0.00886805
0.00048446
0.00996606
0.00165233
0.0128247
0.00528527
0.0133903
0.00935983
0.0135029
0.00986144
0.00995537
0.0133726
0.00840003
2.25062e-12
0.00840003
1.32339e-11
0.00840003
4.84355e-11
0.00840003
1.29264e-10
0.00840003
3.54441e-10
0.00840003
8.47858e-10
0.00840003
2.17489e-09
0.00840004
5.12455e-09
0.00840003
1.28032e-08
0.00840009
3.05364e-08
0.00840003
7.46139e-08
0.00840039
1.8096e-07
0.00840006
4.34084e-07
0.00840202
1.07002e-06
0.00840066
2.53477e-06
0.00841001
6.32764e-06
0.00840896
1.50161e-05
0.00844961
3.80852e-05
0.00849349
9.53634e-05
0.00873683
0.00026398
0.0095551
0.000816616
0.0121514
0.00268302
0.0135916
0.00790629
0.013622
0.00982657
0.0098761
0.0136972
0.00840003
1.3475e-12
0.00840003
9.01189e-12
0.00840003
2.95807e-11
0.00840003
8.76904e-11
0.00840003
2.19243e-10
0.00840003
5.65307e-10
0.00840004
1.36707e-09
0.00840003
3.36417e-09
0.00840004
8.207e-09
0.00840005
1.96233e-08
0.00840007
4.88674e-08
0.00840017
1.14295e-07
0.00840013
2.89228e-07
0.0084011
6.68681e-07
0.00840026
1.70807e-06
0.00840679
3.94192e-06
0.00840212
1.01077e-05
0.00843493
2.38418e-05
0.00843829
6.15865e-05
0.00857955
0.000159064
0.00888975
0.00046711
0.0100224
0.00156688
0.0129934
0.00490548
0.0137185
0.00909292
0.00974918
0.0138415
0.00840003
9.0483e-13
0.00840003
5.4996e-12
0.00840003
1.95926e-11
0.00840003
5.37441e-11
0.00840003
1.43393e-10
0.00840003
3.52155e-10
0.00840003
8.7506e-10
0.00840004
2.12779e-09
0.00840003
5.13522e-09
0.00840006
1.26262e-08
0.00840004
2.98779e-08
0.00840015
7.43409e-08
0.00840013
1.73999e-07
0.00840055
4.36573e-07
0.00840102
1.01325e-06
0.00840225
2.56318e-06
0.00840699
5.94933e-06
0.00841357
1.5084e-05
0.00844184
3.60892e-05
0.00850437
9.32232e-05
0.00872078
0.000250384
0.00951302
0.000770579
0.0119209
0.00249081
0.013758
0.00723774
0.00965994
0.013841
0.00840003
5.69179e-13
0.00840003
3.49587e-12
0.00840003
1.22168e-11
0.00840003
3.40591e-11
0.00840003
8.98256e-11
0.00840003
2.20231e-10
0.00840003
5.5752e-10
0.00840003
1.30576e-09
0.00840004
3.32269e-09
0.00840004
7.63178e-09
0.00840004
1.95368e-08
0.00840011
4.46421e-08
0.00840004
1.13944e-07
0.00840057
2.62533e-07
0.00840004
6.62315e-07
0.0084032
1.5477e-06
0.00840048
3.85882e-06
0.0084168
9.19587e-06
0.00841002
2.27965e-05
0.00847745
5.63898e-05
0.00853974
0.000147024
0.00892594
0.000419245
0.0100136
0.00137256
0.0130086
0.00422381
0.00866893
0.0139894
0.00840003
3.33746e-13
0.00840003
2.21045e-12
0.00840003
7.42403e-12
0.00840003
2.15331e-11
0.00840003
5.44758e-11
0.00840003
1.40339e-10
0.00840003
3.32671e-10
0.00840003
8.43606e-10
0.00840003
1.95781e-09
0.00840004
4.95036e-09
0.00840005
1.14635e-08
0.00840004
2.88616e-08
0.00840015
6.72125e-08
0.00840007
1.67356e-07
0.00840082
3.9536e-07
0.00840016
9.69527e-07
0.00840472
2.32969e-06
0.00840146
5.64073e-06
0.00842466
1.38242e-05
0.00842158
3.36405e-05
0.00851817
8.53423e-05
0.00867099
0.00022728
0.00938105
0.000683726
0.0113905
0.00219671
0.00625929
0.0137791
0.00840003
2.17968e-13
0.00840003
1.29668e-12
0.00840003
4.69634e-12
0.00840003
1.26496e-11
0.00840003
3.42959e-11
0.00840003
8.2484e-11
0.00840003
2.09304e-10
0.00840003
4.94741e-10
0.00840003
1.22336e-09
0.00840004
2.91986e-09
0.00840003
7.07382e-09
0.00840007
1.71369e-08
0.00840005
4.08088e-08
0.00840022
1.00312e-07
0.00840017
2.35865e-07
0.00840088
5.85412e-07
0.00840139
1.36429e-06
0.00840367
3.42073e-06
0.00840984
7.95542e-06
0.00842111
2.00932e-05
0.00846081
4.8235e-05
0.00855785
0.000125712
0.00889608
0.000345956
0.0099863
0.0010977
0.00330777
0.0129092
0.00840003
1.23732e-13
0.00840003
8.0931e-13
0.00840003
2.70711e-12
0.00840003
7.85683e-12
0.00840003
1.99754e-11
0.00840003
5.03945e-11
0.00840003
1.23554e-10
0.00840003
2.97289e-10
0.00840003
7.33366e-10
0.00840003
1.71655e-09
0.00840004
4.31036e-09
0.00840005
9.90119e-09
0.00840005
2.51257e-08
0.00840014
5.74031e-08
0.00840008
1.45532e-07
0.00840073
3.34789e-07
0.00840022
8.39805e-07
0.00840422
1.96038e-06
0.00840154
4.86127e-06
0.00842233
1.15787e-05
0.00841851
2.86373e-05
0.0085073
7.10666e-05
0.00861982
0.000187291
0.0092062
0.000548238
0.00176115
0.0107159
0.00840003
7.31376e-14
0.00840003
4.58344e-13
0.00840003
1.60296e-12
0.00840003
4.48241e-12
0.00840003
1.16598e-11
0.00840003
2.91868e-11
0.00840003
7.03731e-11
0.00840003
1.74343e-10
0.00840003
4.07866e-10
0.00840003
1.02001e-09
0.00840004
2.34256e-09
0.00840004
5.90392e-09
0.00840006
1.34872e-08
0.00840005
3.3957e-08
0.00840019
7.78331e-08
0.00840012
1.94294e-07
0.00840107
4.50869e-07
0.00840047
1.10747e-06
0.0084062
2.61521e-06
0.00840348
6.34014e-06
0.00843277
1.52898e-05
0.00843706
3.72567e-05
0.00856745
9.40789e-05
0.00881485
0.000254274
0.000781105
0.00980865
0.00840003
4.16434e-14
0.00840003
2.51711e-13
0.00840003
8.9563e-13
0.00840003
2.44067e-12
0.00840003
6.52394e-12
0.00840003
1.56396e-11
0.00840003
3.95716e-11
0.00840003
9.15965e-11
0.00840003
2.28284e-10
0.00840003
5.2594e-10
0.00840003
1.29658e-09
0.00840004
3.00505e-09
0.00840004
7.27298e-09
0.00840008
1.71315e-08
0.00840005
4.05926e-08
0.0084003
9.68866e-08
0.00840016
2.25056e-07
0.00840151
5.45081e-07
0.00840109
1.24294e-06
0.00840757
3.03931e-06
0.00840892
6.8808e-06
0.00843848
1.70067e-05
0.0084729
3.98163e-05
0.00863529
0.000103363
0.000288712
0.00908939
0.00840003
2.03742e-14
0.00840003
1.36112e-13
0.00840003
4.47344e-13
0.00840003
1.31971e-12
0.00840003
3.25218e-12
0.00840003
8.29875e-12
0.00840003
1.9679e-11
0.00840003
4.70829e-11
0.00840003
1.13788e-10
0.00840003
2.59727e-10
0.00840003
6.4489e-10
0.00840003
1.41372e-09
0.00840004
3.61328e-09
0.00840005
7.66454e-09
0.00840005
1.98517e-08
0.00840015
4.14419e-08
0.00840006
1.07246e-07
0.00840087
2.23429e-07
0.00839998
5.65946e-07
0.00840517
1.20083e-06
0.0084
2.93941e-06
0.00842542
6.44186e-06
0.00841642
1.54493e-05
0.0085074
3.63616e-05
9.45775e-05
0.0086404
0.00840003
9.981e-15
0.00840003
6.66986e-14
0.00840003
2.21348e-13
0.00840003
6.40794e-13
0.00840003
1.59459e-12
0.00840003
3.98569e-12
0.00840003
9.33206e-12
0.00840003
2.25823e-11
0.00840003
5.17201e-11
0.00840003
1.22692e-10
0.00840003
2.80718e-10
0.00840003
6.57766e-10
0.00840004
1.5031e-09
0.00840003
3.4602e-09
0.00840008
7.98061e-09
0.00839999
1.80036e-08
0.00840029
4.18256e-08
0.00839976
9.20015e-08
0.00840143
2.18237e-07
0.00839852
4.61603e-07
0.00840638
1.11604e-06
0.00839494
2.33383e-06
0.00841944
5.6471e-06
0.00840301
1.26963e-05
3.27833e-05
0.00845872
0.00840003
4.86332e-15
0.00840003
3.05799e-14
0.00840003
1.07687e-13
0.00840003
2.94144e-13
0.00840003
7.67501e-13
0.00840003
1.84435e-12
0.00840003
4.42255e-12
0.00840003
1.03499e-11
0.00840003
2.4038e-11
0.00840003
5.58465e-11
0.00840003
1.27846e-10
0.00840003
2.94249e-10
0.00840004
6.68656e-10
0.00840002
1.52461e-09
0.00840006
3.43777e-09
0.00839997
7.76556e-09
0.00840022
1.73496e-08
0.00839959
3.90897e-08
0.00840118
8.65395e-08
0.00839747
1.93584e-07
0.00840545
4.33802e-07
0.00838869
9.56052e-07
0.00841261
2.18377e-06
0.00837543
5.01229e-06
1.24302e-05
0.0084016
0.00840003
3.06854e-15
0.00840003
1.1468e-14
0.00840003
6.12587e-14
0.00840003
1.13658e-13
0.00840003
4.21668e-13
0.00840003
7.5968e-13
0.00840003
2.32878e-12
0.00840003
4.56771e-12
0.00840003
1.17182e-11
0.00840003
2.72852e-11
0.00840003
5.71221e-11
0.00840003
1.58107e-10
0.00840003
2.6598e-10
0.00840002
9.15251e-10
0.00840005
1.22804e-09
0.00839996
5.07361e-09
0.00840019
5.28966e-09
0.00839953
2.83808e-08
0.00840103
1.86374e-08
0.00839712
1.57972e-07
0.00840487
7.46268e-08
0.00838658
7.4192e-07
0.00840936
6.67364e-07
0.00836558
2.96186e-06
5.58403e-06
0.00837917
0.00840003
1.22073e-15
0.00840003
9.25223e-15
0.00840003
2.76509e-14
0.00840003
8.80957e-14
0.00840003
2.04726e-13
0.00840003
5.2375e-13
0.00840003
1.27219e-12
0.00840003
2.81101e-12
0.00840003
7.40725e-12
0.00840003
1.51224e-11
0.00840003
4.10244e-11
0.00840003
8.03814e-11
0.00840004
2.31995e-10
0.00840002
4.10793e-10
0.00840005
1.2964e-09
0.00839998
2.2361e-09
0.00840007
7.37925e-09
0.00839983
1.11978e-08
0.00839984
4.33205e-08
0.00839933
5.80304e-08
0.00839839
2.21129e-07
0.008396
3.61328e-07
0.00839226
1.04244e-06
0.00837666
2.40105e-06
6.42561e-06
0.00835626
0.00840003
1.33655e-16
0.00840003
9.76723e-15
0.00840003
9.91411e-15
0.00840003
9.59334e-14
0.00840003
7.02658e-14
0.00840003
6.18741e-13
0.00840003
3.24926e-13
0.00840003
3.73011e-12
0.00840003
1.8806e-12
0.00840003
2.09064e-11
0.00840003
1.49925e-11
0.00840003
1.11398e-10
0.00840004
1.30132e-10
0.00840002
5.43039e-10
0.00840005
1.03323e-09
0.00839996
2.44301e-09
0.00840013
7.90792e-09
0.00839967
1.05931e-08
0.00840031
5.57655e-08
0.00839834
3.95952e-08
0.00840017
3.56576e-07
0.0083927
1.96533e-07
0.00839567
1.69825e-06
0.00837088
1.78584e-06
7.98253e-06
0.00835769
0.00840003
9.00078e-16
0.00840003
4.1619e-15
0.00840003
1.80411e-14
0.00840003
4.18897e-14
0.00840003
1.26379e-13
0.00840003
2.98301e-13
0.00840003
7.47629e-13
0.00840003
1.99314e-12
0.00840003
4.36154e-12
0.00840003
1.25513e-11
0.00840003
2.59196e-11
0.00840003
7.95627e-11
0.00840003
1.47571e-10
0.00840004
4.96586e-10
0.00840001
8.71114e-10
0.00840004
3.00188e-09
0.00839997
4.64756e-09
0.00839988
1.81559e-08
0.00839993
2.53006e-08
0.00839861
9.57422e-08
0.00839979
1.51552e-07
0.00839321
5.01356e-07
0.0083938
9.30425e-07
0.00837488
2.68425e-06
6.63325e-06
0.00835241
0.00840003
4.48236e-16
0.00840003
3.49549e-15
0.00840003
1.0936e-14
0.00840003
3.34818e-14
0.00840003
9.52955e-14
0.00840003
1.98591e-13
0.00840003
7.29459e-13
0.00840003
1.10937e-12
0.00840003
5.04238e-12
0.00840003
6.43915e-12
0.00840003
3.23855e-11
0.00840003
3.89332e-11
0.00840003
2.07852e-10
0.00840004
2.2271e-10
0.0084
1.24599e-09
0.00840007
1.15098e-09
0.00839988
7.24576e-09
0.00840016
6.34003e-09
0.00839932
3.97602e-08
0.00839997
4.54774e-08
0.00839701
1.96715e-07
0.00839781
3.17442e-07
0.00838646
9.62701e-07
0.00838167
2.10096e-06
5.65807e-06
0.00834509
0.00840003
1.18913e-15
0.00840003
-1.48183e-16
0.00840003
1.78961e-14
0.00840003
-2.16594e-15
0.00840003
1.34708e-13
0.00840003
-5.1991e-15
0.00840003
8.69065e-13
0.00840003
-4.83483e-14
0.00840003
4.93758e-12
0.00840003
1.90354e-12
0.00840003
2.656e-11
0.00840003
2.73287e-11
0.00840003
1.2014e-10
0.00840003
2.79018e-10
0.00840003
5.50176e-10
0.0084
2.22162e-09
0.00840004
2.18901e-09
0.00839969
1.62943e-08
0.00840036
5.25459e-09
0.00839761
1.10515e-07
0.00840204
4.17682e-09
0.00838859
6.03638e-07
0.00840025
2.3511e-07
0.00836533
2.3765e-06
2.99537e-06
0.00835748
0.00840003
-4.97324e-16
0.00840003
3.49425e-15
0.00840003
-2.62756e-15
0.00840003
3.57718e-14
0.00840003
-2.52691e-14
0.00840003
2.79426e-13
0.00840003
-2.45126e-13
0.00840003
1.95714e-12
0.00840003
-1.75888e-12
0.00840003
1.24566e-11
0.00840003
-1.02738e-11
0.00840003
7.16126e-11
0.00840004
-5.35241e-11
0.00840002
3.88253e-10
0.00840005
-1.31622e-10
0.00839997
1.84761e-09
0.00840008
3.40659e-10
0.00839974
7.90243e-09
0.0084
1.29005e-08
0.00839877
2.13292e-08
0.00839889
1.20674e-07
0.00839393
7.38933e-08
0.00839235
6.07593e-07
0.00837108
6.11524e-07
2.627e-06
0.0083521
0.00840003
0.00840003
0.00840003
0.00840003
0.00840003
0.00840003
0.00840003
0.00840003
0.00840003
0.00840003
0.00840003
0.00840003
0.00840003
0.00840004
0.0084
0.00840008
0.00839985
0.00840026
0.008399
0.00840105
0.00839471
0.00840218
0.00837986
0.00838714
0.00833756
0.00413943
0.00433413
0.0020101
0.0021161
-8.64905e-06
0.00198907
-0.00141094
0.00140033
-0.00199857
0.000589095
-0.00244214
0.000443098
-0.00262379
0.000181082
-0.00271668
9.34959e-05
-0.00287291
0.000156739
-0.00304328
0.000170222
-0.00318722
0.000143681
-0.00330043
0.000112992
-0.00340288
0.0001026
-0.00350142
9.83946e-05
-0.00359288
9.11706e-05
-0.00367237
7.87865e-05
-0.00373177
5.8885e-05
-0.00376575
3.39716e-05
-0.00379096
2.20488e-05
-0.0038315
3.56208e-05
-0.00387259
3.5433e-05
-0.00390176
2.33476e-05
-0.00391815
6.92025e-06
-0.0039134
-1.73791e-05
-0.0038737
-5.49577e-05
-0.00378896
-0.000101572
-0.00366164
-0.000144008
-0.00350193
-0.000176353
-0.00331727
-0.000200212
-0.00311456
-0.000217451
-0.00289665
-0.000230982
-0.00267035
-0.00023911
-0.00243791
-0.000243266
-0.00220382
-0.000243142
-0.00196993
-0.000243143
-0.00173328
-0.000244815
-0.00149612
-0.000245482
-0.00125322
-0.000250808
-0.00101056
-0.000250335
-0.000770684
-0.000247252
-0.0005334
-0.000244296
-0.000296332
-0.000243571
-5.64475e-05
-0.000246011
0.00018498
-0.000248016
0.000413263
-0.000234866
0.00062919
-0.000222328
0.000837222
-0.000214506
0.00103673
-0.000205743
0.00122736
-0.000196951
0.00140998
-0.000188699
0.00158875
-0.000183855
0.0017639
-0.000180104
0.00193287
-0.00017362
0.00209515
-0.00016627
0.00225103
-0.000159156
0.00240037
-0.000151992
0.00254371
-0.000145252
0.00268125
-0.000138624
0.00281353
-0.000132362
0.00294044
-0.000126211
0.00306228
-0.000120346
0.00317905
-0.000114652
0.00329115
-0.000109218
0.00339869
-0.000103991
0.00350184
-9.89959e-05
0.00360066
-9.42085e-05
0.0036953
-8.96293e-05