/*--------------------------------*- C++ -*----------------------------------*\
  =========                 |
  \\      /  F ield         | OpenFOAM: The Open Source CFD Toolbox
   \\    /   O peration     | Website:  https://openfoam.org
    \\  /    A nd           | Version:  13
     \\/     M anipulation  |
\*---------------------------------------------------------------------------*/
FoamFile
{
    format      ascii;
    class       volScalarField;
    location    "7";
    object      rho;
}
// * * * * * * * * * * * * * * * * * * * * * * * * * * * * * * * * * * * * * //

dimensions      [1 -3 0 0 0 0 0];

internalField   nonuniform List<scalar> 
5250
(
1.40001
1.40002
1.40008
1.40016
1.40047
1.401
1.40287
1.40609
1.41689
1.43732
1.49362
1.60761
1.85831
2.43709
4.79045
5.80068
5.71651
5.65745
5.6766
5.75505
5.84183
5.89409
5.93607
5.96379
5.99053
1.40001
1.40002
1.40007
1.40016
1.40047
1.40098
1.40283
1.406
1.41667
1.43683
1.49247
1.60514
1.85321
2.42241
4.74428
5.80366
5.7167
5.65441
5.67397
5.75298
5.83984
5.89234
5.93515
5.96372
5.99146
1.40001
1.40002
1.40007
1.40016
1.40045
1.40096
1.40275
1.40585
1.41619
1.43586
1.49001
1.60006
1.84252
2.39181
4.6409
5.81119
5.71643
5.64492
5.66408
5.74212
5.8284
5.88023
5.92199
5.95153
5.97974
1.40001
1.40002
1.40007
1.40016
1.40042
1.40095
1.40257
1.4057
1.41533
1.43457
1.48601
1.59259
1.82597
2.34625
4.47774
5.82629
5.71744
5.62937
5.64738
5.72259
5.80647
5.85711
5.89851
5.92541
5.95501
1.40001
1.40002
1.40006
1.40016
1.40036
1.40098
1.40217
1.40596
1.41316
1.43463
1.47836
1.58481
1.80186
2.28821
4.25273
5.85061
5.72091
5.60915
5.62342
5.69727
5.77702
5.82562
5.86521
5.89116
5.92092
1.40001
1.40002
1.40005
1.40015
1.40034
1.40089
1.40207
1.40528
1.41259
1.43121
1.47338
1.57086
1.7751
2.21755
3.96344
5.88346
5.72839
5.58444
5.59529
5.66037
5.73934
5.7804
5.81873
5.84136
5.87275
1.40001
1.40002
1.40006
1.40012
1.40034
1.40072
1.40204
1.40442
1.41207
1.42703
1.46827
1.55366
1.7448
2.14013
3.61801
5.91871
5.74243
5.55991
5.56468
5.61828
5.69032
5.72609
5.75441
5.77403
5.80426
1.40001
1.40002
1.40004
1.40012
1.40027
1.40072
1.40166
1.40425
1.41007
1.42514
1.45911
1.5394
1.7087
2.06444
3.22725
5.92651
5.75421
5.53713
5.53216
5.56901
5.63096
5.65373
5.67174
5.67666
5.70338
1.40001
1.40002
1.40005
1.4001
1.40027
1.40057
1.40162
1.40348
1.40953
1.42129
1.45427
1.52276
1.67948
1.99702
2.93429
5.80507
5.71431
5.50545
5.49272
5.50769
5.55678
5.5638
5.5592
5.5416
5.54341
1.40001
1.40001
1.40004
1.40009
1.40024
1.40051
1.40145
1.40307
1.40857
1.41877
1.44882
1.50986
1.65265
1.94109
2.72222
5.50211
5.57372
5.48188
5.43547
5.43581
5.46089
5.44919
5.41694
5.34636
5.28525
1.40001
1.40002
1.40003
1.40009
1.40019
1.40051
1.40112
1.40304
1.40687
1.41791
1.44126
1.50036
1.62415
1.88998
2.53772
5.07436
5.48901
5.43928
5.36449
5.35626
5.34852
5.31668
5.22655
5.01214
4.39851
1.40001
1.40001
1.40003
1.40008
1.40016
1.40045
1.40095
1.40273
1.40576
1.41603
1.43526
1.48886
1.59697
1.83606
2.37219
4.57242
5.44147
5.40303
5.30007
5.26818
5.23797
5.17157
5.02547
4.72719
4.07141
1.40001
1.40001
1.40003
1.40006
1.40016
1.40034
1.40092
1.40205
1.40545
1.41249
1.43185
1.47345
1.57231
1.77634
2.22014
3.99496
5.42449
5.37939
5.25076
5.18185
5.13188
5.03544
4.84837
4.53475
4.0297
1.40001
1.40001
1.40002
1.40006
1.40011
1.40032
1.40067
1.4019
1.40404
1.41118
1.42465
1.46295
1.54121
1.71859
2.07693
3.35505
5.40222
5.36184
5.22628
5.10762
5.02889
4.91266
4.72077
4.43007
4.03763
1.40001
1.40001
1.40002
1.40004
1.40011
1.40023
1.4006
1.40138
1.40354
1.40838
1.42079
1.44932
1.51625
1.66009
1.95555
2.77188
5.25985
5.30891
5.21708
5.05303
4.94427
4.81602
4.62966
4.36699
4.04288
1.40001
1.40001
1.40002
1.40004
1.40008
1.4002
1.40046
1.40119
1.40271
1.40713
1.4162
1.44126
1.49407
1.61718
1.86794
2.47376
4.78772
5.21044
5.15477
5.00517
4.87411
4.73694
4.56151
4.3232
4.04109
1.40001
1.40001
1.40001
1.40003
1.40006
1.40017
1.40035
1.40097
1.40213
1.40572
1.41295
1.43317
1.47592
1.57792
1.78674
2.24453
4.0723
5.11544
5.08755
4.97415
4.81989
4.67287
4.504
4.28887
4.03619
1.40001
1.40001
1.40001
1.40002
1.40005
1.40012
1.40029
1.40074
1.40168
1.40444
1.40997
1.42599
1.45905
1.54103
1.70923
2.0568
3.29706
5.04724
5.04197
4.9661
4.79643
4.62696
4.45869
4.26154
4.03443
1.40001
1.40001
1.40001
1.40002
1.40004
1.40009
1.40024
1.40051
1.40136
1.40312
1.40796
1.41867
1.44597
1.50581
1.6406
1.90704
2.60772
4.81884
5.02773
4.95755
4.78929
4.59785
4.42622
4.24032
4.0333
1.40001
1.40001
1.40001
1.40002
1.40003
1.40008
1.40016
1.40043
1.40096
1.40249
1.40579
1.41461
1.43437
1.48257
1.58698
1.80823
2.29574
4.19553
4.9367
4.90056
4.78221
4.58312
4.40536
4.22656
4.03348
1.40001
1.40001
1.40001
1.40001
1.40002
1.40006
1.40012
1.40033
1.40068
1.40192
1.40411
1.41123
1.42491
1.46304
1.54118
1.71719
2.06282
3.35951
4.83749
4.83901
4.77133
4.59925
4.40072
4.22009
4.03761
1.40001
1.40001
1.40001
1.40001
1.40002
1.40004
1.40009
1.40022
1.40052
1.40132
1.40304
1.40789
1.41795
1.44516
1.5024
1.63396
1.88454
2.54499
4.57534
4.83146
4.77179
4.62228
4.40662
4.22226
4.04459
1.40001
1.40001
1.40001
1.40001
1.40002
1.40003
1.40007
1.40015
1.4004
1.4009
1.40231
1.40541
1.41345
1.43202
1.47614
1.5738
1.7778
2.21215
3.89556
4.75525
4.72894
4.63714
4.4321
4.23501
4.05843
1.40001
1.40001
1.40001
1.40001
1.40001
1.40002
1.40005
1.40011
1.40028
1.40062
1.4017
1.40361
1.40996
1.42159
1.45576
1.52346
1.68093
1.97455
2.97809
4.58488
4.6915
4.63194
4.47028
4.26308
4.0808
1.40001
1.40001
1.40001
1.40001
1.40001
1.40002
1.40004
1.40008
1.40019
1.40046
1.40106
1.40276
1.40621
1.41613
1.43654
1.48888
1.59804
1.81906
2.33515
4.13322
4.64856
4.61209
4.50402
4.30019
4.11077
1.40001
1.40001
1.40001
1.40001
1.40001
1.40001
1.40003
1.40006
1.40013
1.40033
1.40071
1.40194
1.40413
1.41132
1.42467
1.46279
1.53921
1.71125
2.03895
3.27405
4.51472
4.56454
4.51174
4.3591
4.14751
1.40001
1.40001
1.40001
1.40001
1.40001
1.40001
1.40002
1.40004
1.40009
1.40022
1.40048
1.40127
1.40275
1.40748
1.41619
1.44213
1.49298
1.61548
1.8346
2.40442
4.17769
4.54256
4.50535
4.40236
4.19991
1.40001
1.40001
1.40001
1.40001
1.40001
1.40001
1.40001
1.40003
1.40006
1.40015
1.40032
1.40082
1.40193
1.4047
1.41141
1.42716
1.46463
1.54793
1.72144
2.06665
3.37775
4.42886
4.46701
4.41812
4.28147
1.40001
1.40001
1.40001
1.40001
1.40001
1.40001
1.40001
1.40002
1.40004
1.4001
1.40021
1.40055
1.40117
1.40322
1.40678
1.41847
1.43998
1.49894
1.61455
1.83631
2.41155
4.12363
4.45065
4.42024
4.3349
1.40001
1.40001
1.40001
1.40001
1.40001
1.40001
1.40001
1.40002
1.40003
1.40007
1.40013
1.40036
1.40075
1.40208
1.40443
1.41196
1.42622
1.46588
1.54561
1.71981
2.05965
3.35829
4.33367
4.39052
4.34874
1.40001
1.40001
1.40001
1.40001
1.40001
1.40001
1.40001
1.40001
1.40002
1.40004
1.40009
1.40021
1.40051
1.40124
1.40289
1.40729
1.41664
1.44134
1.4932
1.61167
1.81946
2.37316
4.01422
4.3653
4.34383
1.40001
1.40001
1.40001
1.40001
1.40001
1.40001
1.40001
1.40001
1.40002
1.40003
1.40006
1.40013
1.40035
1.40072
1.40198
1.40425
1.41133
1.42503
1.4626
1.53848
1.70408
2.02151
3.21882
4.22047
4.31905
1.40001
1.40001
1.40001
1.40001
1.40001
1.40001
1.40001
1.40001
1.40001
1.40002
1.40004
1.40009
1.40019
1.4005
1.40108
1.40294
1.40622
1.41676
1.43636
1.48968
1.59475
1.79449
2.29335
3.84495
4.27824
1.40001
1.40001
1.40001
1.40001
1.40001
1.40001
1.40001
1.40001
1.40001
1.40001
1.40003
1.40005
1.40013
1.40028
1.40073
1.40165
1.40416
1.40971
1.42358
1.45524
1.52713
1.67493
1.95657
2.96062
4.08422
1.40001
1.40001
1.40001
1.40001
1.40001
1.40001
1.40001
1.40001
1.40001
1.40001
1.40002
1.40004
1.40007
1.40019
1.40041
1.40106
1.40238
1.40602
1.41387
1.43395
1.47747
1.5766
1.75566
2.18569
3.60757
1.40001
1.40001
1.40001
1.40001
1.40001
1.40001
1.40001
1.40001
1.40001
1.40001
1.40001
1.40002
1.40005
1.40011
1.40025
1.40064
1.40138
1.40372
1.40787
1.42107
1.44549
1.51085
1.63449
1.86864
2.60153
1.40001
1.40001
1.40001
1.40001
1.40001
1.40001
1.40001
1.40001
1.40001
1.40001
1.40001
1.40002
1.40003
1.40006
1.40016
1.40035
1.4009
1.40202
1.40509
1.41181
1.42859
1.4663
1.55092
1.71444
2.06308
1.40001
1.40001
1.40001
1.40001
1.40001
1.40001
1.40001
1.40001
1.40001
1.40001
1.40001
1.40001
1.40002
1.40004
1.40009
1.40023
1.40049
1.40127
1.40288
1.40719
1.41661
1.44017
1.49131
1.60403
1.80237
1.40001
1.40001
1.40001
1.40001
1.40001
1.40001
1.40001
1.40001
1.40001
1.40001
1.40001
1.40001
1.40002
1.40003
1.40006
1.40014
1.40032
1.40078
1.40181
1.40459
1.41032
1.4262
1.45872
1.53887
1.69593
1.40001
1.40001
1.40001
1.40001
1.40001
1.40001
1.40001
1.40001
1.40001
1.40001
1.40001
1.40001
1.40001
1.40002
1.40005
1.40009
1.40025
1.40053
1.40143
1.40315
1.40831
1.4189
1.44758
1.50875
1.65163
1.40001
1.40001
1.40001
1.40001
1.40001
1.40001
1.40001
1.40001
1.40001
1.40001
1.40001
1.40001
1.40001
1.40002
1.40004
1.40009
1.40019
1.40048
1.40115
1.40282
1.40709
1.41698
1.44225
1.49951
1.63187
1.40001
1.40001
1.40001
1.40001
1.40001
1.40001
1.40001
1.40001
1.40001
1.40001
1.40001
1.40001
1.40001
1.40002
1.40003
1.40008
1.40017
1.40045
1.40104
1.40272
1.4065
1.41647
1.43968
1.4959
1.62042
1.40001
1.40001
1.40001
1.40001
1.40001
1.40001
1.40001
1.40001
1.40001
1.40001
1.40001
1.40001
1.40001
1.40002
1.40003
1.40008
1.40016
1.40044
1.40101
1.40265
1.40632
1.41612
1.43882
1.49428
1.61679
1.40001
1.40001
1.40001
1.40001
1.40001
1.40001
1.40001
1.40001
1.40001
1.40001
1.40001
1.40001
1.40001
1.40002
1.40003
1.40007
1.40018
1.40039
1.4011
1.40239
1.40677
1.41504
1.43995
1.49181
1.61707
1.40001
1.40001
1.40001
1.40001
1.40001
1.40001
1.40001
1.40001
1.40001
1.40001
1.40001
1.40001
1.40001
1.40002
1.40003
1.40007
1.40017
1.4004
1.40106
1.40241
1.40659
1.41504
1.43941
1.49124
1.61546
1.40001
1.40001
1.40001
1.40001
1.40001
1.40001
1.40001
1.40001
1.40001
1.40001
1.40001
1.40001
1.40001
1.40002
1.40003
1.40007
1.40015
1.40044
1.40092
1.40271
1.40577
1.41642
1.43663
1.49366
1.61136
1.40001
1.40001
1.40001
1.40001
1.40001
1.40001
1.40001
1.40001
1.40001
1.40001
1.40001
1.40001
1.40001
1.40002
1.40003
1.40007
1.40016
1.40042
1.40094
1.40263
1.40581
1.41608
1.43666
1.49261
1.61069
1.40001
1.40001
1.40001
1.40001
1.40001
1.40001
1.40001
1.40001
1.40001
1.40001
1.40001
1.40001
1.40001
1.40002
1.40003
1.40007
1.40015
1.40043
1.4009
1.40264
1.40571
1.41605
1.43628
1.49238
1.60957
1.40001
1.40001
1.40001
1.40001
1.40001
1.40001
1.40001
1.40001
1.40001
1.40001
1.40001
1.40001
1.40001
1.40002
1.40003
1.40007
1.40017
1.40037
1.40103
1.40229
1.40643
1.41448
1.43856
1.48898
1.61198
1.40001
1.40001
1.40001
1.40001
1.40001
1.40001
1.40001
1.40001
1.40001
1.40001
1.40001
1.40001
1.40001
1.40001
1.40003
1.40007
1.40016
1.4004
1.40094
1.40252
1.40587
1.41553
1.43678
1.49092
1.60992
2.18877
1.60366
1.96342
2.01916
1.84049
1.81755
1.80189
1.78553
1.75397
1.72072
1.6923
1.66539
1.6365
1.60493
1.57512
1.54759
1.52397
1.49835
1.47416
1.46458
1.46152
1.46128
1.47276
1.5028
1.54704
1.60423
1.66588
1.72973
1.79176
1.85217
1.90866
1.96111
2.01119
2.05334
2.09356
2.13021
2.16308
2.19513
2.22414
2.25011
2.27301
2.29305
2.31012
2.32555
2.34047
2.35186
2.3612
2.36665
2.37244
2.3743
2.37666
2.37554
2.37341
2.3695
2.36543
2.35959
2.35327
2.34544
2.3374
2.32829
2.3187
2.30823
2.29722
2.28569
2.27368
2.26124
2.24826
2.23495
2.2212
2.20717
2.19269
2.17797
2.16275
2.14737
2.13153
2.11558
2.09919
2.0827
2.06585
2.04887
2.03172
2.01431
1.99703
1.97927
1.96192
1.94397
1.92654
1.90867
1.8911
1.87356
1.85593
1.83879
1.82148
1.8048
1.78838
1.77255
1.75781
1.744
1.73264
1.72462
2.69238
2.20567
2.2501
2.04252
1.88082
1.80182
1.78018
1.7512
1.69393
1.64639
1.61265
1.58368
1.55539
1.52186
1.4894
1.46053
1.43458
1.4126
1.39012
1.37823
1.37346
1.37217
1.38165
1.4089
1.45297
1.51199
1.57943
1.64868
1.71654
1.78204
1.84515
1.90276
1.95566
2.00517
2.05132
2.09353
2.13335
2.17058
2.20663
2.2378
2.26714
2.29104
2.31504
2.33663
2.35646
2.3742
2.38822
2.3997
2.409
2.41688
2.4229
2.42614
2.42748
2.42782
2.42663
2.42455
2.42074
2.41632
2.41031
2.40391
2.3961
2.38806
2.37871
2.3692
2.35854
2.34774
2.33595
2.32405
2.31128
2.29839
2.28481
2.27099
2.25667
2.24196
2.22696
2.21135
2.19575
2.17928
2.16321
2.14593
2.12956
2.11156
2.09499
2.07644
2.05965
2.04081
2.02372
2.00484
1.98742
1.96865
1.95108
1.9325
1.91514
1.89689
1.88026
1.86278
1.84777
1.8324
1.82047
1.81089
3.19443
2.65763
2.46674
2.29168
2.0995
1.9596
1.86411
1.786
1.70802
1.64556
1.60628
1.58009
1.54187
1.49306
1.4503
1.41269
1.38527
1.36263
1.34457
1.33121
1.32383
1.32122
1.32883
1.35302
1.39696
1.45709
1.5274
1.60295
1.6796
1.75283
1.82493
1.89257
1.95679
2.01522
2.07099
2.12067
2.16712
2.21032
2.25017
2.28608
2.31912
2.34837
2.37548
2.39908
2.42092
2.43899
2.45479
2.46735
2.4777
2.48676
2.49437
2.49879
2.50035
2.5008
2.50042
2.49848
2.49546
2.49079
2.48548
2.47857
2.47145
2.4625
2.4537
2.44295
2.43279
2.42054
2.40933
2.39573
2.38359
2.36876
2.35578
2.33984
2.32612
2.30925
2.29484
2.2772
2.26216
2.2439
2.22829
2.20953
2.19343
2.17427
2.15778
2.13842
2.12153
2.10234
2.08491
2.0662
2.04827
2.03004
2.01191
1.99415
1.97609
1.95897
1.94167
1.92566
1.90975
1.89585
1.88278
1.87461
3.45636
2.94929
2.66029
2.46195
2.29725
2.15471
2.04476
1.94433
1.84004
1.74459
1.66151
1.61072
1.5624
1.50668
1.45369
1.41246
1.38247
1.36129
1.34294
1.32518
1.30782
1.29749
1.30145
1.32843
1.37468
1.4435
1.52558
1.61446
1.70347
1.78774
1.86785
1.94365
2.014
2.0784
2.13873
2.19349
2.24547
2.29299
2.33761
2.37775
2.41448
2.44715
2.47712
2.50339
2.5276
2.54795
2.56617
2.5802
2.59243
2.60186
2.61091
2.61583
2.6183
2.61771
2.61756
2.61441
2.61197
2.60625
2.60147
2.59328
2.58634
2.57611
2.56743
2.55556
2.54532
2.53204
2.52033
2.50586
2.49281
2.47737
2.46305
2.4468
2.43125
2.41427
2.39754
2.37989
2.3621
2.34384
2.32514
2.30639
2.28691
2.2678
2.24763
2.22831
2.20756
2.18822
2.16699
2.14771
2.12628
2.10697
2.08576
2.06673
2.04625
2.02737
2.00786
1.98957
1.97181
1.95523
1.94061
1.92934
3.59354
3.16113
2.84377
2.62979
2.46281
2.32488
2.20527
2.10211
2.00137
1.90274
1.81336
1.72538
1.64631
1.57876
1.51666
1.46199
1.41798
1.38654
1.36158
1.34167
1.32714
1.32415
1.33366
1.36342
1.41826
1.49036
1.57341
1.66213
1.75181
1.83914
1.92278
2.00244
2.0766
2.14607
2.21018
2.27001
2.32523
2.37647
2.4236
2.46678
2.50553
2.54026
2.57109
2.5983
2.62226
2.64262
2.66011
2.67392
2.68499
2.69369
2.70171
2.70668
2.70886
2.70703
2.7048
2.70066
2.69618
2.68963
2.68256
2.67368
2.66442
2.65375
2.64273
2.63063
2.61805
2.60471
2.59076
2.57635
2.56125
2.54585
2.52979
2.51347
2.49666
2.47947
2.4621
2.44404
2.42623
2.40735
2.3892
2.36964
2.3512
2.33116
2.31243
2.29212
2.27311
2.25273
2.23344
2.21308
2.19385
2.17373
2.15456
2.13441
2.11547
2.09555
2.07709
2.05786
2.04045
2.02298
2.00786
1.99551
3.68061
3.31071
3.00979
2.78167
2.60959
2.46777
2.34978
2.24275
2.14371
2.04874
1.95783
1.87441
1.79045
1.71145
1.63685
1.57174
1.51389
1.46666
1.43058
1.4065
1.39435
1.395
1.40741
1.44061
1.49716
1.56606
1.64561
1.7282
1.81749
1.90894
1.99936
2.0856
2.16621
2.23959
2.30726
2.36837
2.42502
2.47578
2.52247
2.56341
2.60072
2.63302
2.66223
2.6871
2.70946
2.72782
2.74392
2.75608
2.76597
2.77275
2.77926
2.78318
2.78532
2.78226
2.77859
2.77291
2.76732
2.75957
2.75178
2.74177
2.73188
2.71987
2.70828
2.69468
2.68172
2.66685
2.65269
2.63674
2.62147
2.60459
2.58831
2.5706
2.55339
2.53492
2.51682
2.49761
2.47867
2.45878
2.43906
2.41869
2.3983
2.37769
2.35671
2.336
2.31454
2.29422
2.27251
2.25253
2.23056
2.2109
2.18895
2.16958
2.14794
2.12899
2.10807
2.08985
2.07029
2.05368
2.03681
2.02476
3.73604
3.42159
3.14121
2.91717
2.73773
2.59395
2.47297
2.3681
2.26993
2.17735
2.08869
2.00385
1.92393
1.84611
1.77254
1.70397
1.64587
1.59603
1.56097
1.53702
1.52636
1.52957
1.55415
1.59391
1.64305
1.70111
1.76437
1.83535
1.90275
1.98371
2.07103
2.15993
2.24241
2.31809
2.38471
2.44386
2.49667
2.54447
2.58811
2.6273
2.66281
2.69368
2.72125
2.74473
2.76576
2.78316
2.7984
2.80988
2.81943
2.82517
2.83099
2.83492
2.83778
2.83594
2.83208
2.82634
2.82033
2.81291
2.80488
2.79551
2.78518
2.77391
2.76147
2.74864
2.73446
2.72038
2.70482
2.68967
2.67294
2.65675
2.63903
2.62184
2.60338
2.58529
2.56626
2.54743
2.52789
2.50849
2.48848
2.46865
2.44818
2.42813
2.40733
2.38739
2.36628
2.34609
2.32471
2.30428
2.28272
2.262
2.24049
2.21952
2.19829
2.17729
2.15662
2.13601
2.11637
2.09705
2.07965
2.06438
3.77396
3.50111
3.2461
3.02788
2.84977
2.7022
2.5798
2.47399
2.37869
2.28786
2.20142
2.11986
2.04101
1.96807
1.89714
1.83364
1.77958
1.73808
1.7131
1.69355
1.69074
1.71226
1.75523
1.78849
1.82248
1.85897
1.8932
1.93102
1.9789
2.02761
2.092
2.17566
2.26197
2.34577
2.42002
2.4852
2.54137
2.59138
2.63611
2.67617
2.71275
2.74504
2.77398
2.79903
2.82113
2.8399
2.85602
2.86895
2.87944
2.88643
2.89225
2.89684
2.90004
2.90012
2.89633
2.89076
2.88394
2.87621
2.86723
2.85754
2.84649
2.8348
2.82176
2.80814
2.79342
2.7781
2.76211
2.74541
2.72848
2.71067
2.69292
2.67418
2.6556
2.63605
2.61669
2.59643
2.57642
2.55558
2.53502
2.51378
2.49303
2.47164
2.45061
2.42901
2.40766
2.38594
2.3643
2.34263
2.32081
2.29933
2.2775
2.25627
2.23466
2.21377
2.19264
2.17233
2.1521
2.13307
2.11491
2.09952
3.80324
3.5619
3.32913
3.12183
2.94557
2.79751
2.67339
2.56612
2.4707
2.38406
2.29919
2.22088
2.14515
2.07393
2.0098
1.95116
1.90994
1.8827
1.86419
1.85927
1.88328
1.94235
1.98497
2.00159
2.0234
2.03554
2.03028
2.03621
2.06008
2.08983
2.13297
2.18916
2.26508
2.35464
2.44088
2.51825
2.58428
2.64048
2.68843
2.73011
2.76682
2.79921
2.82829
2.85317
2.87528
2.89336
2.90895
2.92104
2.93097
2.93748
2.94203
2.94532
2.94772
2.94794
2.9445
2.93861
2.93165
2.92325
2.91413
2.90357
2.89241
2.87979
2.86678
2.85235
2.83771
2.82177
2.80569
2.78849
2.77114
2.75287
2.73446
2.71523
2.69598
2.67586
2.65594
2.63507
2.61462
2.59327
2.57257
2.55111
2.52998
2.50846
2.48678
2.46525
2.44302
2.42152
2.39886
2.37736
2.35447
2.33294
2.31008
2.28853
2.26594
2.24452
2.22247
2.2015
2.1804
2.16057
2.1416
2.12499
3.82502
3.60771
3.3961
3.19874
3.0281
2.88001
2.75508
2.64714
2.55161
2.46526
2.38424
2.3079
2.23631
2.16948
2.11001
2.06549
2.03969
2.02262
2.01688
2.03838
2.12444
2.19809
2.22051
2.23244
2.23466
2.21194
2.17113
2.145
2.14321
2.15966
2.1842
2.22116
2.26891
2.33055
2.41106
2.49452
2.57185
2.63994
2.69619
2.74277
2.78125
2.81398
2.84261
2.86703
2.88872
2.90746
2.92333
2.93641
2.94675
2.95419
2.95877
2.96161
2.96398
2.96468
2.96312
2.95774
2.95074
2.94221
2.93271
2.92214
2.91053
2.89809
2.88447
2.87029
2.85487
2.83915
2.82227
2.80523
2.78726
2.76908
2.75027
2.73107
2.71152
2.69145
2.67116
2.65052
2.62974
2.60902
2.58783
2.56702
2.54538
2.52444
2.5024
2.48127
2.45894
2.43762
2.4151
2.39365
2.37107
2.34956
2.32703
2.30555
2.28321
2.26191
2.23996
2.21908
2.19787
2.17797
2.15867
2.14156
3.8456
3.64573
3.4504
3.26566
3.09836
2.95369
2.82677
2.71922
2.62281
2.53828
2.45861
2.38552
2.31782
2.25765
2.2065
2.18482
2.16823
2.16218
2.18622
2.26972
2.39751
2.45631
2.46328
2.46293
2.44041
2.37347
2.31169
2.26678
2.24084
2.23712
2.24905
2.26804
2.29854
2.33451
2.38457
2.451
2.53044
2.60915
2.67987
2.73958
2.78832
2.82796
2.86019
2.88727
2.91007
2.92994
2.9469
2.96114
2.97259
2.98125
2.98704
2.98983
2.99195
2.99327
2.99292
2.98952
2.9828
2.97486
2.96526
2.95506
2.94331
2.93111
2.9174
2.90329
2.88784
2.87198
2.85513
2.83781
2.81987
2.80132
2.78241
2.76275
2.74291
2.72226
2.70169
2.68055
2.65953
2.638
2.61658
2.59476
2.57299
2.55095
2.52886
2.50669
2.48432
2.4621
2.4395
2.41728
2.39455
2.37236
2.34965
2.32754
2.30502
2.2831
2.26095
2.23945
2.21799
2.1974
2.17779
2.1597
3.86541
3.67982
3.49606
3.32292
3.16156
3.01851
2.89245
2.7831
2.68689
2.60181
2.52522
2.4546
2.39247
2.33958
2.31464
2.298
2.29673
2.31717
2.39262
2.56338
2.68265
2.69776
2.69807
2.67939
2.61554
2.5272
2.45211
2.39541
2.35482
2.33089
2.32041
2.32878
2.34045
2.35847
2.38874
2.42484
2.47548
2.54549
2.62018
2.69203
2.75563
2.80792
2.84948
2.88193
2.90791
2.9289
2.94678
2.96139
2.9737
2.98342
2.99065
2.99492
2.99727
2.99888
2.99984
2.99862
2.99376
2.98635
2.97765
2.96733
2.95608
2.94353
2.93023
2.91586
2.90089
2.88494
2.86855
2.85119
2.83356
2.81491
2.79617
2.77634
2.7566
2.73602
2.7157
2.69469
2.67377
2.65245
2.63092
2.60942
2.58734
2.56576
2.54328
2.52164
2.4989
2.47716
2.45429
2.43246
2.40957
2.38766
2.36485
2.34294
2.32031
2.29854
2.27623
2.25482
2.23313
2.21251
2.19263
2.1742
3.88536
3.71247
3.5388
3.3728
3.21886
3.0785
2.95312
2.84353
2.74667
2.66118
2.5867
2.52059
2.46484
2.43489
2.42187
2.41893
2.44112
2.50793
2.69026
2.86927
2.92867
2.92778
2.91152
2.86081
2.76181
2.66819
2.58879
2.52576
2.47514
2.43807
2.41083
2.39616
2.39041
2.3985
2.40944
2.42878
2.4548
2.4916
2.54793
2.61703
2.68989
2.75689
2.8142
2.86011
2.89544
2.92259
2.9436
2.96039
2.97401
2.98483
2.99348
2.99976
3.00326
3.00519
3.00613
3.00622
3.00363
2.99757
2.98905
2.97941
2.96811
2.95603
2.94255
2.92851
2.91333
2.89766
2.88105
2.8639
2.84596
2.8274
2.80816
2.78835
2.76815
2.74761
2.72673
2.70569
2.68426
2.66285
2.64098
2.6193
2.5971
2.57522
2.55281
2.53078
2.50822
2.48612
2.46345
2.44135
2.41861
2.39658
2.37386
2.35194
2.32934
2.30761
2.28528
2.26389
2.24214
2.22144
2.20145
2.18265
3.90919
3.74204
3.57852
3.41933
3.27017
3.13395
3.01016
2.89967
2.8042
2.71764
2.64629
2.58496
2.54812
2.53789
2.53638
2.55656
2.62367
2.79459
3.01877
3.13798
3.13821
3.12734
3.09052
2.99744
2.89279
2.80015
2.72087
2.6547
2.5977
2.55065
2.51096
2.4805
2.45821
2.44467
2.4425
2.44993
2.45999
2.47801
2.50416
2.54519
2.60702
2.67473
2.74302
2.80496
2.8564
2.89635
2.92666
2.9489
2.96569
2.97844
2.98844
2.99627
3.00174
3.00485
3.0064
3.00731
3.00668
3.00357
2.99662
2.9878
2.9774
2.96584
2.95316
2.93947
2.92498
2.90948
2.8934
2.87625
2.85868
2.84
2.82104
2.80125
2.78136
2.76083
2.74018
2.71913
2.69783
2.6764
2.65457
2.63289
2.61064
2.58876
2.56623
2.54422
2.52152
2.49941
2.47664
2.45447
2.43169
2.40949
2.38677
2.36463
2.34204
2.3201
2.29776
2.27618
2.2544
2.23349
2.21346
2.19431
3.93757
3.77532
3.61755
3.46666
3.32127
3.18781
3.06601
2.95606
2.86023
2.77734
2.70849
2.66115
2.65112
2.64996
2.66928
2.73325
2.89229
3.1446
3.30723
3.32861
3.32221
3.29395
3.2181
3.11142
3.01192
2.92482
2.84814
2.78005
2.71887
2.66413
2.61552
2.57353
2.5381
2.51002
2.49021
2.47723
2.48001
2.48593
2.49583
2.51397
2.54374
2.58954
2.65232
2.71963
2.78494
2.84178
2.88796
2.92243
2.94766
2.96559
2.97885
2.98861
2.99565
3.00059
3.00254
3.00382
3.00388
3.00279
2.99858
2.99103
2.98127
2.97022
2.95785
2.94452
2.93019
2.91497
2.89891
2.88195
2.86422
2.84563
2.82659
2.80689
2.78689
2.76637
2.74558
2.72448
2.70306
2.68155
2.65965
2.63788
2.61563
2.59369
2.57121
2.54918
2.52656
2.50449
2.4818
2.45975
2.43704
2.41505
2.3924
2.37053
2.34801
2.32634
2.3041
2.28275
2.26109
2.24034
2.22041
2.20124
3.97016
3.81067
3.65729
3.51156
3.37142
3.24035
3.12068
3.0122
2.91727
2.84067
2.77813
2.76807
2.76415
2.78124
2.842
2.99013
3.25874
3.45319
3.5052
3.49959
3.47499
3.41255
3.31131
3.21259
3.1237
3.04313
2.96939
2.90063
2.83653
2.77632
2.72104
2.67026
2.62527
2.58609
2.55344
2.52778
2.51072
2.50191
2.50699
2.51147
2.52145
2.54028
2.57451
2.62708
2.69022
2.75676
2.81874
2.8712
2.91184
2.94175
2.96252
2.97689
2.98648
2.99315
2.9969
2.99848
2.99932
2.99948
2.99797
2.99336
2.98516
2.97517
2.96371
2.95099
2.93716
2.92221
2.90641
2.88949
2.87193
2.8534
2.83457
2.8149
2.79508
2.77456
2.75389
2.73279
2.71143
2.68997
2.66809
2.64641
2.62413
2.60227
2.57972
2.55772
2.53501
2.51291
2.49012
2.46797
2.44519
2.42307
2.40036
2.37836
2.35581
2.33404
2.3118
2.29043
2.2688
2.24809
2.22827
2.20912
4.01312
3.85322
3.70274
3.55914
3.42345
3.29422
3.17717
3.07171
2.9822
2.91019
2.88598
2.88131
2.89747
2.95377
3.09311
3.36979
3.5868
3.66254
3.65866
3.63966
3.58916
3.49247
3.39677
3.31043
3.2313
3.15681
3.08528
3.01579
2.94913
2.8846
2.82453
2.76736
2.71578
2.6684
2.62687
2.59108
2.56133
2.53897
2.52438
2.52106
2.52367
2.5277
2.53884
2.56029
2.6015
2.65771
2.72238
2.7873
2.84649
2.89472
2.93107
2.95588
2.97241
2.98246
2.98856
2.99158
2.99257
2.99319
2.9927
2.9907
2.98476
2.97629
2.96593
2.95402
2.94075
2.92616
2.91062
2.89381
2.87647
2.85811
2.83948
2.81996
2.80024
2.77985
2.75919
2.73818
2.71674
2.69533
2.67333
2.65167
2.62931
2.60746
2.58488
2.56287
2.54016
2.51802
2.4953
2.47311
2.45044
2.42831
2.40575
2.3838
2.36145
2.33981
2.3178
2.29662
2.27528
2.25484
2.23534
2.21655
4.07315
3.90129
3.75069
3.60911
3.47511
3.34966
3.23437
3.13583
3.05408
3.01603
3.00936
3.02257
3.07348
3.20329
3.48295
3.71686
3.8104
3.80778
3.79187
3.74956
3.65879
3.5676
3.4839
3.40817
3.33532
3.26497
3.19416
3.12428
3.05544
2.9887
2.92478
2.86404
2.80721
2.75452
2.70616
2.66301
2.6242
2.59163
2.56459
2.54464
2.53576
2.53104
2.53425
2.53896
2.55209
2.57864
2.62555
2.68467
2.75058
2.8145
2.86979
2.91322
2.94388
2.96413
2.97574
2.98227
2.98432
2.98529
2.98536
2.9846
2.98164
2.9752
2.96655
2.95594
2.9437
2.92974
2.91461
2.89809
2.88106
2.8629
2.84447
2.82506
2.8054
2.78503
2.76435
2.74335
2.7219
2.70049
2.67851
2.65683
2.63453
2.61267
2.5902
2.56817
2.5456
2.52343
2.5008
2.47857
2.45595
2.43378
2.41127
2.38933
2.36706
2.34553
2.3237
2.30279
2.28175
2.26179
2.24269
2.22471
4.14391
3.95915
3.80322
3.66166
3.53092
3.4086
3.30039
3.20932
3.15765
3.14842
3.15811
3.20416
3.32635
3.60656
3.84922
3.95525
3.95322
3.93892
3.90091
3.81393
3.72586
3.64723
3.57497
3.50701
3.43835
3.36919
3.2982
3.22796
3.15763
3.08958
3.02291
2.95976
2.89914
2.84282
2.78966
2.74084
2.69557
2.65505
2.61882
2.58823
2.5641
2.54729
2.54234
2.53572
2.53917
2.54604
2.56161
2.59379
2.64657
2.70861
2.77458
2.83609
2.88757
2.92555
2.95124
2.9662
2.97395
2.97598
2.97653
2.97641
2.97485
2.97037
2.96324
2.95408
2.94313
2.93017
2.91582
2.89983
2.88318
2.86528
2.84705
2.82784
2.80838
2.78821
2.76772
2.74687
2.72557
2.70425
2.68232
2.66064
2.63831
2.61638
2.59386
2.57179
2.54923
2.52709
2.50455
2.48241
2.45995
2.43793
2.41562
2.39384
2.3718
2.3505
2.32896
2.30844
2.28786
2.26862
2.25014
2.23357
4.23322
4.03196
3.861
3.71709
3.5871
3.47227
3.37439
3.31098
3.29867
3.30496
3.34724
3.46357
3.74455
3.99184
4.10597
4.10316
4.08832
4.04977
3.96219
3.8763
3.80095
3.7342
3.66999
3.60557
3.53863
3.46974
3.39934
3.3285
3.25778
3.18838
3.12033
3.05547
2.99212
2.93307
2.87534
2.8223
2.77129
2.72509
2.68194
2.64388
2.61033
2.58263
2.56059
2.54879
2.54086
2.53764
2.5413
2.55062
2.56961
2.60835
2.66399
2.72876
2.79437
2.85308
2.8999
2.93289
2.95298
2.96301
2.96536
2.96589
2.96533
2.96307
2.95742
2.94947
2.93984
2.92807
2.91488
2.89978
2.88386
2.86645
2.84865
2.82971
2.81047
2.79043
2.77003
2.74923
2.72797
2.70672
2.68488
2.66332
2.64109
2.61929
2.59682
2.57487
2.55234
2.5303
2.50783
2.48578
2.46346
2.44153
2.41945
2.39786
2.37615
2.35517
2.33409
2.31415
2.29425
2.27612
2.25855
2.24432
4.27498
4.11284
3.93183
3.77914
3.6537
3.547
3.47422
3.45914
3.46257
3.50248
3.61746
3.90222
4.15295
4.2675
4.26326
4.24538
4.20008
4.10889
4.02178
3.94874
3.88482
3.82542
3.76499
3.70225
3.6362
3.56778
3.49769
3.4265
3.35577
3.28526
3.21683
3.14948
3.08493
3.02209
2.96224
2.90502
2.85069
2.79971
2.75173
2.70772
2.66731
2.63124
2.60019
2.57454
2.55646
2.54631
2.53676
2.53566
2.53999
2.55151
2.57448
2.62233
2.67988
2.74543
2.80976
2.86498
2.90635
2.93332
2.9478
2.95244
2.95277
2.95209
2.94931
2.94253
2.93385
2.92314
2.91109
2.89716
2.88214
2.86548
2.8481
2.82951
2.8104
2.79056
2.77023
2.74965
2.72848
2.70745
2.68569
2.66437
2.64227
2.62069
2.59845
2.57661
2.55435
2.53234
2.51017
2.48814
2.46614
2.44432
2.42261
2.40125
2.38005
2.35954
2.33926
2.32021
2.30158
2.28522
2.26928
2.25891
4.28529
4.19264
4.00764
3.85164
3.72896
3.64634
3.62797
3.62851
3.66906
3.78817
4.0826
4.33566
4.44488
4.44018
4.41607
4.3561
4.25895
4.1685
4.0937
4.03149
3.97431
3.91762
3.85841
3.79602
3.7307
3.66245
3.59297
3.52187
3.45133
3.38044
3.31143
3.2427
3.17683
3.11154
3.04987
2.98907
2.93235
2.87689
2.82596
2.77642
2.73143
2.68888
2.65106
2.61655
2.58825
2.5642
2.55012
2.53791
2.52868
2.53179
2.53753
2.55086
2.57784
2.63008
2.6911
2.75769
2.81946
2.87015
2.90599
2.92695
2.9361
2.9365
2.9358
2.93255
2.9254
2.91544
2.90434
2.89118
2.87716
2.8613
2.84472
2.82668
2.808
2.78852
2.76845
2.74818
2.72723
2.70647
2.68497
2.66379
2.64194
2.62041
2.59839
2.5767
2.55467
2.53298
2.51111
2.4895
2.4679
2.44657
2.42536
2.40463
2.38408
2.36447
2.34518
2.32758
2.3107
2.29695
2.28417
2.27692
4.26666
4.22225
4.10832
3.94563
3.82988
3.8076
3.80562
3.84801
3.97604
4.28995
4.54991
4.64765
4.63939
4.60574
4.52445
4.41638
4.32041
4.24306
4.17973
4.12353
4.06918
4.01243
3.9531
3.88979
3.82454
3.75596
3.68686
3.61571
3.54521
3.47394
3.40419
3.33434
3.267
3.19981
3.13624
3.07294
3.01402
2.9555
2.9014
2.84826
2.79939
2.75207
2.70915
2.66838
2.63273
2.60005
2.57333
2.55293
2.53815
2.52609
2.51912
2.52205
2.53016
2.54682
2.5814
2.63519
2.69879
2.76434
2.82295
2.86847
2.89798
2.91354
2.9154
2.91475
2.91203
2.90544
2.8949
2.88224
2.86887
2.85402
2.8383
2.82101
2.80298
2.78384
2.76425
2.74404
2.72355
2.70286
2.6818
2.66091
2.63944
2.61841
2.59673
2.57551
2.55384
2.53244
2.51096
2.48961
2.4685
2.44752
2.42703
2.40693
2.38751
2.36908
2.35168
2.3363
2.32279
2.31308
2.3029
2.30031
4.25364
4.23336
4.18163
4.05196
4.00697
3.99847
4.04041
4.18191
4.52293
4.78888
4.87159
4.85853
4.81297
4.70676
4.585
4.48036
4.39861
4.33148
4.27426
4.21862
4.16413
4.10593
4.04587
3.98198
3.91615
3.84787
3.77819
3.7078
3.63636
3.56594
3.49437
3.42529
3.35524
3.28854
3.22168
3.15824
3.09559
3.03613
2.97804
2.92314
2.86987
2.81988
2.77187
2.72733
2.68504
2.64713
2.61163
2.58196
2.55578
2.53872
2.52192
2.50949
2.50545
2.50876
2.51838
2.53819
2.58106
2.63634
2.70127
2.76512
2.81933
2.85847
2.88143
2.88935
2.88889
2.88654
2.88116
2.86956
2.857
2.84261
2.82755
2.81124
2.79403
2.77609
2.75698
2.7379
2.71746
2.69773
2.6766
2.65641
2.63505
2.6144
2.59314
2.5722
2.55118
2.53015
2.50944
2.48857
2.46832
2.44804
2.42863
2.40964
2.39183
2.37532
2.36057
2.34907
2.33996
2.33272
2.32948
2.33139
4.18137
4.25426
4.23542
4.21198
4.20504
4.25675
4.42811
4.79562
5.06691
5.12685
5.10645
5.0439
4.90211
4.76464
4.65077
4.56161
4.49174
4.4315
4.37574
4.31974
4.2627
4.20255
4.14032
4.07504
4.00807
3.93936
3.86932
3.79902
3.72749
3.6567
3.58492
3.51474
3.44393
3.37579
3.30716
3.24237
3.17693
3.11622
3.05469
2.99832
2.9412
2.8892
2.83702
2.78931
2.74267
2.69976
2.65888
2.62228
2.58794
2.55938
2.53534
2.51717
2.4999
2.48729
2.48805
2.49247
2.50287
2.52443
2.5728
2.63107