/*--------------------------------*- C++ -*----------------------------------*\
  =========                 |
  \\      /  F ield         | OpenFOAM: The Open Source CFD Toolbox
   \\    /   O peration     | Website:  https://openfoam.org
    \\  /    A nd           | Version:  13
     \\/     M anipulation  |
\*---------------------------------------------------------------------------*/
FoamFile
{
    format      ascii;
    class       volScalarField;
    location    "7";
    object      T;
}
// * * * * * * * * * * * * * * * * * * * * * * * * * * * * * * * * * * * * * //

dimensions      [0 0 0 1 0 0 0];

internalField   nonuniform List<scalar> 
5250
(
1.00001
1.00002
1.00005
1.00013
1.00028
1.0008
1.00176
1.00475
1.01109
1.02877
1.07194
1.19187
1.51456
2.2365
2.6847
2.75117
2.7412
2.73974
2.75089
2.76685
2.77905
2.78753
2.79312
2.79975
2.80241
1.00001
1.00002
1.00004
1.00013
1.00028
1.00079
1.00174
1.00468
1.01094
1.02837
1.07096
1.18916
1.50756
2.22493
2.68072
2.75102
2.74066
2.73891
2.75002
2.76589
2.77799
2.78642
2.79198
2.79854
2.80106
1.00001
1.00002
1.00004
1.00013
1.00027
1.00076
1.0017
1.00453
1.01068
1.0275
1.06896
1.18338
1.49247
2.19868
2.67132
2.75015
2.73885
2.73631
2.74726
2.76306
2.77482
2.78309
2.789
2.79495
2.79724
1
1.00002
1.00004
1.00012
1.00025
1.00076
1.00156
1.00447
1.00995
1.02666
1.06532
1.17514
1.46899
2.15679
2.65619
2.74864
2.73575
2.7319
2.74243
2.75816
2.77005
2.77788
2.78326
2.78996
2.79177
1
1.00001
1.00005
1.0001
1.00029
1.0006
1.0017
1.00375
1.01012
1.02384
1.06262
1.16229
1.43869
2.09752
2.63477
2.74618
2.73119
2.72548
2.73632
2.75042
2.76292
2.77019
2.7752
2.78157
2.78374
1
1.00002
1.00004
1.0001
1.00023
1.00063
1.00138
1.00387
1.00851
1.02324
1.05568
1.14983
1.39941
2.01949
2.60542
2.74181
2.72445
2.71679
2.72715
2.74201
2.75286
2.76126
2.76455
2.7708
2.77243
1
1.00001
1.00003
1.00009
1.00022
1.00054
1.00135
1.0032
1.00834
1.01975
1.05148
1.1321
1.35658
1.9216
2.56681
2.73323
2.71391
2.70422
2.71435
2.72923
2.74023
2.74715
2.75091
2.75469
2.75572
1
1.00001
1.00003
1.00008
1.00019
1.0005
1.00111
1.00309
1.00677
1.01856
1.04365
1.11687
1.30793
1.80725
2.51645
2.71764
2.69776
2.68754
2.6981
2.71259
2.72335
2.73014
2.73121
2.73345
2.73009
1
1.00001
1.00003
1.00007
1.00017
1.00043
1.00106
1.00253
1.00651
1.01545
1.03995
1.10105
1.27059
1.71318
2.46298
2.70138
2.68105
2.67144
2.67942
2.69272
2.70193
2.70663
2.70599
2.70112
2.68746
1
1.00001
1.00002
1.00007
1.00014
1.0004
1.00089
1.00237
1.00554
1.01419
1.03483
1.09018
1.23866
1.63632
2.392
2.67555
2.6689
2.6612
2.66242
2.67162
2.67777
2.67887
2.67201
2.6516
2.59649
1
1.00001
1.00002
1.00005
1.00013
1.00034
1.0008
1.0021
1.00479
1.01283
1.03016
1.07977
1.20822
1.55947
2.29216
2.63728
2.66057
2.65177
2.64705
2.65032
2.65156
2.64651
2.62788
2.58208
2.47638
1
1.00001
1.00002
1.00004
1.00013
1.00027
1.00075
1.00169
1.00443
1.0106
1.02692
1.06788
1.17951
1.48119
2.16658
2.58658
2.6519
2.64217
2.63294
2.63024
2.62584
2.61297
2.58271
2.51838
2.40511
1
1.00001
1.00002
1.00004
1.0001
1.00024
1.00062
1.00144
1.00383
1.00871
1.02325
1.05621
1.15046
1.40021
2.01197
2.52031
2.63782
2.62828
2.61676
2.60934
2.59964
2.57954
2.54216
2.47803
2.37739
1
1
1.00001
1.00003
1.00009
1.00019
1.00051
1.0012
1.00302
1.00744
1.01835
1.04634
1.11964
1.31921
1.82749
2.43464
2.61183
2.60679
2.59625
2.58595
2.57332
2.55082
2.51061
2.45121
2.36726
1
1
1.00001
1.00003
1.00007
1.00016
1.00042
1.00092
1.00256
1.00557
1.01531
1.03547
1.09442
1.24471
1.64501
2.32935
2.57303
2.57889
2.57074
2.55885
2.54503
2.52285
2.4848
2.4317
2.35871
1
1
1.00001
1.00002
1.00006
1.00012
1.00035
1.00072
1.0021
1.0045
1.01231
1.0287
1.07566
1.19581
1.52205
2.2031
2.5247
2.55624
2.54696
2.53584
2.51912
2.49773
2.46133
2.41417
2.35079
1
1
1.00001
1.00002
1.00004
1.0001
1.00026
1.00064
1.00151
1.00395
1.00913
1.02393
1.05842
1.15505
1.41092
2.01881
2.44772
2.53485
2.52692
2.51545
2.49676
2.47488
2.44143
2.39808
2.34358
1
1
1.00001
1.00001
1.00004
1.00007
1.00022
1.00045
1.0013
1.00275
1.00763
1.01739
1.04589
1.11539
1.30864
1.79615
2.34403
2.50343
2.50573
2.4957
2.47542
2.45271
2.42233
2.38298
2.33469
1
1
1
1.00001
1.00002
1.00006
1.00015
1.00036
1.00094
1.0021
1.00572
1.01275
1.03418
1.08299
1.22104
1.57602
2.20962
2.4545
2.47781
2.47008
2.45248
2.43041
2.40325
2.36879
2.32588
1
1
1
1.00001
1.00002
1.00005
1.00011
1.00029
1.00065
1.00177
1.00386
1.01063
1.02413
1.0642
1.16307
1.43466
2.03675
2.38894
2.45209
2.44613
2.43094
2.40933
2.38425
2.35366
2.31645
1
1
1
1.00001
1.00001
1.00003
1.00009
1.0002
1.00051
1.00124
1.00299
1.00762
1.0181
1.0466
1.11813
1.31389
1.80221
2.28347
2.41788
2.42249
2.41178
2.39181
2.36545
2.33764
2.30492
1
1
1
1
1.00001
1.00002
1.00007
1.00014
1.00039
1.00081
1.00233
1.00495
1.01353
1.03128
1.08213
1.20959
1.55019
2.13555
2.36377
2.3938
2.38808
2.37109
2.34731
2.32095
2.2928
1
1
1
1
1.00001
1.00002
1.00004
1.0001
1.00027
1.0006
1.00165
1.00356
1.00983
1.02211
1.05879
1.14766
1.39199
1.94242
2.29026
2.36496
2.36404
2.35053
2.32895
2.30418
2.27843
1
1
1
1
1
1.00001
1.00003
1.00008
1.00017
1.00048
1.00103
1.00277
1.00631
1.01629
1.03934
1.10171
1.26391
1.68105
2.16974
2.32342
2.3381
2.32966
2.31163
2.2881
2.26362
1
1
1
1
1
1.00001
1.00002
1.00005
1.00014
1.00028
1.00081
1.00166
1.00477
1.01029
1.0277
1.06614
1.17407
1.45228
1.99844
2.26019
2.30849
2.30583
2.2918
2.27161
2.24815
1
1
1
1
1
1.00001
1.00002
1.00003
1.00009
1.00019
1.00055
1.00117
1.00316
1.00719
1.01857
1.04481
1.11609
1.30111
1.75703
2.15751
2.27208
2.28186
2.27396
2.25606
2.23333
1
1
1
1
1
1
1.00001
1.00002
1.00006
1.00013
1.00036
1.00076
1.0021
1.00465
1.01218
1.02864
1.07364
1.18635
1.4869
1.99855
2.21359
2.2519
2.25049
2.23765
2.21813
1
1
1
1
1
1
1.00001
1.00002
1.00004
1.0001
1.00021
1.00058
1.00123
1.00344
1.0074
1.01999
1.04675
1.12262
1.31527
1.77444
2.12279
2.2186
2.22789
2.22135
2.20531
1
1
1
1
1
1
1
1.00001
1.00003
1.00005
1.00016
1.00032
1.0009
1.00194
1.00515
1.01184
1.03015
1.07375
1.18984
1.49021
1.97035
2.1655
2.19976
2.20003
2.18832
1
1
1
1
1
1
1
1.00001
1.00002
1.00004
1.0001
1.00022
1.00055
1.00132
1.00319
1.00796
1.01892
1.04788
1.11988
1.31253
1.75485
2.08111
2.16924
2.17914
2.17347
1
1
1
1
1
1
1
1
1.00001
1.00002
1.00006
1.00013
1.00037
1.00076
1.00216
1.00451
1.0124
1.02791
1.07301
1.1813
1.47153
1.92749
2.1169
2.15162
2.15319
1
1
1
1
1
1
1
1
1.00001
1.00002
1.00003
1.00009
1.00021
1.00053
1.00127
1.00301
1.0076
1.01778
1.04548
1.11218
1.29266
1.70681
2.03046
2.12137
2.1337
1
1
1
1
1
1
1
1
1
1.00001
1.00002
1.00005
1.00014
1.0003
1.00082
1.00177
1.00466
1.0107
1.02708
1.06571
1.16789
1.43164
1.86971
2.06492
2.10477
1
1
1
1
1
1
1
1
1
1.00001
1.00001
1.00003
1.00008
1.00019
1.00049
1.00108
1.00293
1.00632
1.01706
1.03886
1.10173
1.25603
1.63078
1.96731
2.07305
1
1
1
1
1
1
1
1
1
1
1.00001
1.00002
1.00005
1.00012
1.00028
1.00071
1.00157
1.0042
1.0092
1.02435
1.05689
1.14708
1.37614
1.79328
2.00896
1
1
1
1
1
1
1
1
1
1
1.00001
1.00001
1.00003
1.00006
1.00018
1.00037
1.00104
1.00223
1.00589
1.01343
1.03406
1.08274
1.21178
1.52631
1.88952
1
1
1
1
1
1
1
1
1
1
1
1.00001
1.00002
1.00004
1.0001
1.00024
1.0006
1.00133
1.00356
1.0077
1.02059
1.04715
1.12274
1.30928
1.70107
1
1
1
1
1
1
1
1
1
1
1
1
1.00001
1.00002
1.00006
1.00014
1.00033
1.00086
1.00188
1.005
1.01093
1.02879
1.0672
1.17311
1.43395
1
1
1
1
1
1
1
1
1
1
1
1
1.00001
1.00001
1.00004
1.00008
1.00023
1.00047
1.00134
1.00275
1.00761
1.01667
1.04363
1.10498
1.27055
1
1
1
1
1
1
1
1
1
1
1
1
1
1.00001
1.00002
1.00006
1.00015
1.00037
1.00092
1.00213
1.00558
1.01277
1.03352
1.08194
1.21638
1
1
1
1
1
1
1
1
1
1
1
1
1
1.00001
1.00002
1.00005
1.00012
1.00033
1.00071
1.00206
1.00438
1.01235
1.02852
1.07685
1.20064
1
1
1
1
1
1
1
1
1
1
1
1
1
1.00001
1.00002
1.00005
1.00011
1.00031
1.00068
1.00192
1.00419
1.01179
1.02736
1.07419
1.19515
1
1
1
1
1
1
1
1
1
1
1
1
1
1.00001
1.00002
1.00005
1.00011
1.0003
1.00066
1.00187
1.00408
1.01157
1.02683
1.07307
1.19266
1
1
1
1
1
1
1
1
1
1
1
1
1
1.00001
1.00002
1.00005
1.0001
1.0003
1.00065
1.00182
1.00416
1.01119
1.02711
1.07206
1.19225
1
1
1
1
1
1
1
1
1
1
1
1
1
1.00001
1.00002
1.00005
1.0001
1.0003
1.00062
1.00184
1.00402
1.01122
1.02662
1.07166
1.19034
1
1
1
1
1
1
1
1
1
1
1
1
1
1.00001
1.00002
1.00004
1.00012
1.00025
1.00071
1.00162
1.00434
1.01047
1.0273
1.06979
1.18952
1
1
1
1
1
1
1
1
1
1
1
1
1
1.00001
1.00002
1.00004
1.00012
1.00024
1.00073
1.00154
1.00442
1.01012
1.02737
1.06874
1.18825
1
1
1
1
1
1
1
1
1
1
1
1
1
1.00001
1.00002
1.00004
1.00011
1.00026
1.00066
1.00166
1.00408
1.01059
1.02628
1.06922
1.18603
1
1
1
1
1
1
1
1
1
1
1
1
1
1.00001
1.00001
1.00005
1.00009
1.00028
1.0006
1.00175
1.0039
1.01074
1.02578
1.0693
1.18484
1
1
1
1
1
1
1
1
1
1
1
1
1
1.00001
1.00002
1.00004
1.00011
1.00023
1.00071
1.00148
1.00442
1.00976
1.02714
1.06741
1.18587
2.32542
2.43486
2.65781
2.89892
2.93414
2.89422
2.87758
2.86874
2.85582
2.83703
2.81694
2.79936
2.78099
2.76234
2.74119
2.7224
2.70356
2.68756
2.66999
2.65709
2.65117
2.64946
2.65433
2.66568
2.68927
2.7174
2.75041
2.78123
2.81044
2.83452
2.85628
2.87476
2.88692
2.90166
2.91109
2.91882
2.92605
2.92952
2.93196
2.93273
2.93248
2.93158
2.92997
2.92843
2.92427
2.92007
2.91425
2.91015
2.90282
2.89872
2.89113
2.8844
2.87688
2.86999
2.86185
2.85448
2.84632
2.83877
2.83035
2.82223
2.81377
2.80555
2.7972
2.78877
2.78027
2.77167
2.76314
2.75446
2.74579
2.73697
2.7282
2.71926
2.71049
2.70147
2.69262
2.68348
2.67452
2.66532
2.65625
2.64704
2.63778
2.62863
2.61912
2.6101
2.60042
2.59149
2.58185
2.5728
2.56345
2.5542
2.54528
2.53603
2.52748
2.51871
2.51051
2.5028
2.49549
2.48975
2.48475
2.48198
2.33674
2.41991
2.5486
2.78732
2.86962
2.91759
2.94674
2.95802
2.96253
2.95703
2.94329
2.93664
2.92367
2.91162
2.89651
2.87991
2.86636
2.85052
2.83712
2.82295
2.81639
2.81552
2.82011
2.83092
2.84898
2.86981
2.88949
2.90795
2.92448
2.93723
2.94598
2.95442
2.9607
2.96308
2.96254
2.96125
2.95809
2.95482
2.94835
2.94244
2.93403
2.9285
2.91885
2.90938
2.89929
2.88789
2.87713
2.86619
2.85507
2.84449
2.83364
2.82206
2.81036
2.79864
2.78752
2.77607
2.76526
2.75389
2.74322
2.73201
2.7215
2.71044
2.7001
2.68923
2.67901
2.66833
2.65822
2.64768
2.6376
2.62717
2.61704
2.60672
2.59653
2.58636
2.57609
2.56614
2.55579
2.5461
2.53561
2.52624
2.51555
2.50655
2.49566
2.48699
2.47609
2.46759
2.45696
2.4485
2.43834
2.42994
2.42028
2.41215
2.40293
2.39543
2.38671
2.38027
2.37251
2.36788
2.3627
2.36114
2.32765
2.34757
2.42001
2.49824
2.59359
2.69608
2.79603
2.86756
2.92328
2.95201
2.95601
2.94891
2.94941
2.9631
2.96595
2.96502
2.95376
2.9447
2.93461
2.92181
2.91567
2.91513
2.91829
2.92723
2.93798
2.95354
2.96645
2.9702
2.96889
2.96642
2.96185
2.95567
2.94616
2.93698
2.92459
2.91484
2.90448
2.89433
2.88379
2.87325
2.86171
2.85089
2.83892
2.82813
2.81636
2.80561
2.79392
2.78278
2.77122
2.76027
2.74894
2.73752
2.72563
2.71405
2.70245
2.69135
2.68008
2.66936
2.65819
2.64776
2.63664
2.62667
2.61578
2.60629
2.5955
2.58636
2.57553
2.56672
2.55585
2.54738
2.53646
2.52827
2.51726
2.50924
2.49814
2.49018
2.47902
2.47103
2.45983
2.45182
2.4406
2.43258
2.42139
2.41327
2.40228
2.39381
2.38331
2.37427
2.36439
2.35495
2.34559
2.33606
2.32717
2.31779
2.30939
2.30059
2.29324
2.28588
2.28102
2.27653
2.30635
2.29361
2.31453
2.36052
2.41389
2.48175
2.55635
2.63308
2.70997
2.78147
2.85082
2.87877
2.89837
2.92573
2.95079
2.95899
2.95438
2.94359
2.93411
2.93279
2.93996
2.94831
2.96053
2.96357
2.96175
2.95528
2.94455
2.92528
2.90555
2.88926
2.87435
2.85924
2.84458
2.83102
2.81641
2.80358
2.78942
2.77668
2.76319
2.75053
2.73751
2.72523
2.71246
2.70065
2.68812
2.67666
2.66424
2.65321
2.64113
2.631
2.61984
2.61003
2.59818
2.58809
2.57675
2.56743
2.55624
2.5471
2.53591
2.52705
2.51606
2.5075
2.49667
2.48827
2.47764
2.4694
2.45906
2.4509
2.44087
2.43272
2.42302
2.4148
2.40547
2.39716
2.38821
2.37982
2.37123
2.36279
2.3545
2.34601
2.33802
2.32948
2.32185
2.31323
2.30602
2.29728
2.29049
2.28168
2.27518
2.26647
2.26007
2.25159
2.24506
2.23718
2.23068
2.22382
2.21778
2.21258
2.20832
2.20619
2.29641
2.25907
2.25595
2.27229
2.3036
2.34255
2.39236
2.44597
2.5002
2.55749
2.61628
2.68602
2.74416
2.78602
2.82368
2.85641
2.87938
2.88844
2.8931
2.89807
2.90542
2.90687
2.90165
2.89093
2.87503
2.85311
2.83145
2.81192
2.79375
2.77702
2.76155
2.74618
2.73188
2.71716
2.70316
2.68897
2.67536
2.66198
2.64899
2.63607
2.62376
2.61189
2.60058
2.58983
2.57936
2.56953
2.55952
2.55017
2.54058
2.53202
2.52309
2.51488
2.50539
2.49676
2.48762
2.4795
2.47074
2.4628
2.45422
2.4463
2.4378
2.42977
2.42131
2.41315
2.4048
2.39656
2.38833
2.38002
2.37186
2.36351
2.35536
2.34702
2.33874
2.33044
2.32192
2.3137
2.30492
2.29683
2.28777
2.27981
2.27057
2.26267
2.25338
2.24547
2.23623
2.22829
2.21918
2.21116
2.20207
2.19403
2.18506
2.17729
2.1686
2.1613
2.15306
2.14645
2.13917
2.13382
2.12881
2.1263
2.28969
2.24575
2.22145
2.2203
2.23077
2.25272
2.28098
2.31656
2.35434
2.39321
2.43584
2.47902
2.52823
2.57524
2.62239
2.66445
2.70744
2.74543
2.77558
2.79622
2.80875
2.81073
2.80393
2.78584
2.76063
2.72857
2.69725
2.66883
2.64621
2.62714
2.61121
2.59734
2.58448
2.5733
2.56204
2.55224
2.54205
2.53346
2.52467
2.51743
2.50962
2.50282
2.4954
2.48885
2.48163
2.47521
2.468
2.46156
2.45435
2.44814
2.44148
2.43556
2.42828
2.42158
2.414
2.40741
2.39993
2.3934
2.38587
2.37927
2.37162
2.36496
2.35717
2.35042
2.34247
2.33558
2.32753
2.32054
2.31247
2.30536
2.29729
2.29007
2.28202
2.27471
2.26671
2.25936
2.25146
2.24411
2.23635
2.22896
2.22141
2.21389
2.2066
2.19887
2.19187
2.18378
2.177
2.16857
2.16205
2.15342
2.14705
2.13834
2.13208
2.12356
2.11744
2.10938
2.10368
2.09667
2.09245
2.08822
2.28647
2.23889
2.20653
2.18839
2.18587
2.19186
2.20644
2.22588
2.25075
2.27681
2.3051
2.33519
2.36675
2.40159
2.43747
2.47643
2.51453
2.55647
2.59228
2.62591
2.64832
2.65982
2.65677
2.63657
2.60173
2.56031
2.52405
2.49098
2.46941
2.45574
2.45087
2.44755
2.44699
2.4453
2.44407
2.44237
2.44044
2.43808
2.43517
2.43223
2.42864
2.42543
2.42156
2.41797
2.41345
2.40921
2.40404
2.3994
2.39373
2.38883
2.38341
2.3785
2.37237
2.36628
2.35941
2.35308
2.34621
2.33968
2.33273
2.32593
2.31899
2.31196
2.3051
2.29783
2.29102
2.28351
2.27667
2.26898
2.26212
2.25435
2.24744
2.23967
2.23259
2.22481
2.21748
2.20962
2.20208
2.19413
2.18647
2.17843
2.17078
2.16261
2.15502
2.14669
2.13922
2.13088
2.12358
2.11541
2.10824
2.10037
2.09328
2.08585
2.07885
2.07195
2.06514
2.05891
2.05264
2.04751
2.04281
2.0405
2.28358
2.23661
2.1993
2.17371
2.15868
2.15452
2.15686
2.16536
2.17755
2.19371
2.21181
2.23098
2.25357
2.27573
2.30265
2.33128
2.36483
2.40206
2.4376
2.47321
2.50217
2.52576
2.52448
2.50355
2.46882
2.42807
2.39192
2.36298
2.3433
2.33249
2.33295
2.33904
2.34773
2.3542
2.35932
2.36165
2.36292
2.36243
2.36132
2.35981
2.35743
2.35509
2.35211
2.34909
2.34539
2.34154
2.3371
2.33258
2.32746
2.3225
2.31754
2.31282
2.3077
2.30221
2.29632
2.29042
2.28457
2.27859
2.27272
2.26651
2.26049
2.2541
2.24797
2.24154
2.23529
2.22888
2.22242
2.21601
2.20928
2.2028
2.19584
2.18925
2.18215
2.17545
2.16824
2.16144
2.15414
2.14726
2.13991
2.13298
2.12555
2.11858
2.11119
2.1042
2.09689
2.08983
2.08263
2.07543
2.06836
2.06103
2.05407
2.0467
2.03984
2.03259
2.0259
2.01898
2.01277
2.00667
2.00188
1.99844
2.27921
2.2344
2.196
2.16557
2.14391
2.13098
2.12469
2.12476
2.12858
2.13449
2.14532
2.15607
2.17023
2.18659
2.20419
2.22944
2.25791
2.29224
2.32597
2.36466
2.40762
2.4331
2.42913
2.40813
2.37379
2.33624
2.29579
2.26753
2.24638
2.23394
2.22847
2.23149
2.24096
2.25235
2.2628
2.27044
2.27594
2.27907
2.28077
2.28136
2.28131
2.28088
2.2798
2.27884
2.27701
2.2755
2.27316
2.27086
2.26763
2.26446
2.26085
2.25775
2.2543
2.25053
2.24595
2.24123
2.23606
2.23098
2.22555
2.22035
2.21475
2.20942
2.20357
2.19801
2.19189
2.1861
2.17982
2.17384
2.16747
2.16134
2.15488
2.14862
2.14197
2.13562
2.12876
2.12232
2.11527
2.10872
2.10153
2.09482
2.08773
2.08084
2.07396
2.06683
2.06018
2.05284
2.04641
2.03898
2.03271
2.02534
2.01915
2.01196
2.0058
1.99885
1.99275
1.98615
1.98033
1.97445
1.96976
1.96647
2.2747
2.23292
2.19404
2.16264
2.13614
2.11792
2.10504
2.09793
2.0953
2.09552
2.09857
2.10402
2.11149
2.12258
2.13771
2.15905
2.18773
2.21679
2.25564
2.30604
2.35495
2.37472
2.36703
2.34505
2.31286
2.27013
2.22975
2.19859
2.17819
2.16516
2.15653
2.15497
2.1589
2.16956
2.18474
2.19877
2.21127
2.22001
2.2267
2.23109
2.23429
2.23638
2.23743
2.2384
2.23838
2.238
2.23716
2.23573
2.23376
2.23147
2.22877
2.22637
2.22365
2.22082
2.21711
2.21317
2.20876
2.20433
2.19963
2.19484
2.18997
2.18486
2.17981
2.17438
2.16914
2.16342
2.15794
2.152
2.14623
2.14012
2.13401
2.12775
2.12134
2.11491
2.1083
2.10166
2.09493
2.08803
2.08136
2.07422
2.0676
2.06026
2.05367
2.04623
2.03965
2.03219
2.02562
2.01817
2.01164
2.00425
1.99775
1.99046
1.98402
1.9769
1.97059
1.96374
1.95776
1.95156
1.94671
1.94307
2.26774
2.22999
2.1927
2.16003
2.13299
2.11013
2.094
2.08098
2.07362
2.06793
2.06677
2.06714
2.07067
2.07833
2.09359
2.11479
2.13954
2.17481
2.222
2.28493
2.3302
2.33815
2.32652
2.30368
2.26796
2.22526
2.18607
2.15437
2.13177
2.11645
2.10732
2.10063
2.09933
2.10252
2.11155
2.12599
2.14145
2.1557
2.16738
2.17618
2.18238
2.18631
2.18884
2.19024
2.19118
2.19141
2.19134
2.19075
2.18975
2.1883
2.18655
2.18453
2.18261
2.1804
2.17774
2.17424
2.17057
2.16641
2.16237
2.15778
2.15339
2.14847
2.1438
2.13862
2.13365
2.12827
2.12296
2.11738
2.11169
2.10592
2.09992
2.09399
2.08775
2.0817
2.0753
2.06912
2.06267
2.05644
2.04995
2.04361
2.03706
2.03057
2.02399
2.01736
2.01079
2.00405
1.99753
1.99071
1.98427
1.97743
1.97104
1.96427
1.95793
1.95128
1.94505
1.93861
1.93266
1.92678
1.92185
1.91845
2.25942
2.22513
2.19098
2.15818
2.13051
2.10645
2.08715
2.07164
2.06008
2.05144
2.04557
2.04369
2.04485
2.05305
2.06804
2.08993
2.11654
2.16166
2.22698
2.28892
2.31645
2.31432
2.30023
2.27359
2.23537
2.19488
2.15886
2.12823
2.10442
2.08605
2.07308
2.065
2.0591
2.0579
2.0601
2.06717
2.07937
2.09581
2.11204
2.12649
2.1378
2.14616
2.15174
2.15557
2.15796
2.15965
2.16047
2.16114
2.16107
2.1606
2.15961
2.15828
2.15649
2.15477
2.15249
2.14981
2.14633
2.14278
2.13882
2.13491
2.13065
2.1264
2.1218
2.11716
2.11217
2.10716
2.10178
2.09647
2.09074
2.08518
2.07914
2.07337
2.06707
2.06107
2.05463
2.04849
2.04206
2.03573
2.02937
2.0228
2.01651
2.00969
2.00344
1.99644
1.99019
1.98309
1.97683
1.96973
1.96344
1.95641
1.95012
1.94321
1.93697
1.9302
1.92408
1.91752
1.91167
1.90563
1.90072
1.89712
2.24979
2.2179
2.1869
2.15649
2.12819
2.10369
2.08306
2.06543
2.05162
2.04102
2.03269
2.0293
2.03138
2.04145
2.05766
2.08154
2.1183
2.18064
2.255
2.29977
2.30806
2.30046
2.28216
2.24978
2.21206
2.1757
2.14388
2.11542
2.09181
2.07108
2.0552
2.04246
2.03465
2.02901
2.02704
2.02744
2.03198
2.042
2.05646
2.07311
2.08846
2.10153
2.1114
2.11858
2.12357
2.12671
2.12871
2.12989
2.13048
2.13076
2.13037
2.12951
2.12828
2.12675
2.12535
2.12335
2.12099
2.11784
2.11465
2.11095
2.1073
2.10319
2.09913
2.09464
2.09015
2.08527
2.08036
2.07516
2.06987
2.06439
2.05881
2.05311
2.04731
2.04146
2.03558
2.02958
2.02363
2.01743
2.01138
2.00501
1.99886
1.99235
1.9861
1.97946
1.97313
1.96639
1.96004
1.95322
1.94689
1.94004
1.93376
1.92693
1.92074
1.914
1.90795
1.90141
1.89562
1.8896
1.88469
1.88108
2.23806
2.21038
2.18129
2.15342
2.12668
2.10189
2.08061
2.06265
2.04651
2.03591
2.02679
2.02501
2.03054
2.04241
2.06136
2.0943
2.14905
2.22584
2.28547
2.3047
2.30187
2.29081
2.26744
2.23235
2.19786
2.16622
2.13794
2.11159
2.08836
2.06676
2.04854
2.03247
2.02004
2.01058
2.00543
2.0017
2.0015
2.00358
2.01045
2.02208
2.0375
2.05327
2.0679
2.07999
2.08905
2.09544
2.09931
2.1018
2.10316
2.10398
2.1042
2.10379
2.10296
2.10163
2.10032
2.09881
2.09704
2.09451
2.09156
2.08817
2.08457
2.08065
2.07652
2.0722
2.06762
2.06298
2.05801
2.05308
2.04775
2.04251
2.03685
2.03133
2.02551
2.01981
2.01389
2.00799
2.00201
1.99589
1.98986
1.98355
1.97749
1.97102
1.96491
1.95832
1.95216
1.94549
1.93928
1.9326
1.92637
1.91973
1.91353
1.90696
1.90085
1.89437
1.8884
1.8821
1.87639
1.87055
1.86569
1.86217
2.22462
2.1998
2.17423
2.1476
2.12326
2.09954
2.07824
2.06016
2.04446
2.03279
2.02692
2.02911
2.0388
2.05394
2.08208
2.13163
2.20795
2.27422
2.3033
2.30494
2.29784
2.28046
2.25271
2.22115
2.19162
2.16396
2.13814
2.11364
2.09053
2.06879
2.04882
2.03073
2.01522
2.00202
1.99201
1.98497
1.98121
1.97886
1.97894
1.98244
1.99059
2.00404
2.01946
2.03528
2.049
2.06018
2.06795
2.07329
2.07635
2.07811
2.07873
2.07871
2.07825
2.0773
2.07631
2.07515
2.07411
2.07241
2.07019
2.06727
2.06414
2.06058
2.05683
2.05278
2.04854
2.0441
2.03947
2.0347
2.02971
2.02461
2.01928
2.01395
2.00844
2.00292
1.99726
1.99153
1.98575
1.97981
1.97394
1.9678
1.96183
1.95551
1.94946
1.94299
1.93687
1.9303
1.92414
1.91749
1.91134
1.90467
1.89855
1.89192
1.88589
1.87935
1.87345
1.86711
1.86148
1.85564
1.85083
1.8473
2.21145
2.18912
2.16662
2.14238
2.11919
2.09707
2.07642
2.05898
2.04472
2.03452
2.03457
2.04134
2.05498
2.07949
2.12403
2.19774
2.26841
2.3038
2.31043
2.30585
2.29337
2.27002
2.24224
2.21551
2.19024
2.16601
2.14201
2.11851
2.09548
2.07367
2.05281
2.03375
2.01615
2.00051
1.98702
1.9757
1.96709
1.96208
1.95827
1.95692
1.95761
1.96262
1.97285
1.98696
2.00242
2.01719
2.02986
2.03956
2.04638
2.0504
2.05258
2.05332
2.05334
2.05275
2.05198
2.05088
2.04994
2.0487
2.04702
2.04459
2.04173
2.03846
2.03489
2.03106
2.02698
2.02278
2.01831
2.01379
2.00892
2.00407
1.99889
1.99381
1.9884
1.98308
1.9775
1.97191
1.96622
1.96036
1.95458
1.94847
1.94262
1.93634
1.93045
1.92406
1.91812
1.91169
1.90573
1.89929
1.89333
1.88692
1.881
1.87464
1.86881
1.86253
1.85685
1.85075
1.84532
1.8397
1.83506
1.83165
2.19805
2.1769
2.15644
2.13527
2.11333
2.09329
2.07385
2.0578
2.04645
2.0434
2.04845
2.06088
2.08243
2.12398
2.19404
2.26625
2.30646
2.31645
2.31375
2.30442
2.28564
2.26127
2.23709
2.21401
2.19158
2.16909
2.14641
2.12395
2.10153
2.08019
2.05896
2.03949
2.02039
2.00313
1.987
1.97261
1.96038
1.95028
1.94328
1.93914
1.9355
1.9349
1.93662
1.94344
1.95465
1.96922
1.98428
1.99843
2.00971
2.01805
2.02317
2.02625
2.02741
2.02781
2.02732
2.02644
2.02565
2.0247
2.02363
2.02187
2.01961
2.01679
2.01363
2.01014
2.00635
2.00241
1.99816
1.99386
1.98916
1.98454
1.97955
1.97466
1.96944
1.96426
1.95888
1.95341
1.94793
1.94218
1.93662
1.93063
1.92497
1.91882
1.91308
1.90685
1.90105
1.89481
1.88896
1.88273
1.87686
1.87064
1.86481
1.85862
1.85287
1.84675
1.84116
1.83522
1.82992
1.82447
1.81998
1.81668
2.18529
2.16558
2.14614
2.12689
2.10751
2.08884
2.07262
2.05892
2.05368
2.05713
2.0687
2.08839
2.12757
2.19458
2.26689
2.30988
2.32272
2.32135
2.3147
2.29973
2.27747
2.25525
2.23492
2.21453
2.19436
2.17293
2.15164
2.12993
2.10839
2.08704
2.06608
2.0458
2.02617
2.00743
1.98981
1.9731
1.95835
1.94478
1.93387
1.92513
1.91923
1.91515
1.91211
1.91199
1.91482
1.92271
1.9354
1.95007
1.96482
1.97784
1.98806
1.99507
1.99947
2.00142
2.00226
2.00181
2.00113
2.00026
1.99945
1.99813
1.99627
1.99384
1.99101
1.98787
1.98436
1.98072
1.97669
1.97261
1.96812
1.96373
1.95894
1.95428
1.94931
1.94436
1.93923
1.93396
1.92868
1.92311
1.91769
1.91187
1.90631
1.90033
1.89466
1.88861
1.88289
1.87685
1.87112
1.86511
1.85942
1.85346
1.84783
1.8419
1.83636
1.83049
1.82512
1.81941
1.81436
1.80914
1.80494
1.80177
2.17125
2.15306
2.13474
2.11726
2.09945
2.08367
2.07051
2.06415
2.06667
2.07789
2.09641
2.13346
2.19717
2.26861
2.31409
2.32897
2.32852
2.3233
2.31005
2.28927
2.26994
2.25147
2.23385
2.2151
2.19611
2.17608
2.15599
2.13491
2.11414
2.09286
2.07231
2.05155
2.03167
2.01184
1.99311
1.975
1.95838
1.94291
1.92929
1.91719
1.9074
1.89987
1.89408
1.89003
1.88794
1.88812
1.89239
1.90197
1.91509
1.92993
1.94411
1.9565
1.96565
1.97184
1.97501
1.9764
1.97617
1.9754
1.97469
1.9737
1.97235
1.97048
1.96819
1.9655
1.96239
1.95912
1.95538
1.9516
1.94738
1.94324
1.93869
1.93423
1.92943
1.92464
1.91964
1.9145
1.90934
1.90391
1.89864
1.89303
1.88768
1.88195
1.87651
1.8707
1.86517
1.85933
1.85377
1.84793
1.84237
1.83658
1.8311
1.82537
1.82003
1.81441
1.80931
1.80389
1.79918
1.7943
1.79051
1.78757
2.15906
2.14019
2.12363
2.10733
2.09289
2.08001
2.07306
2.07544
2.08687
2.10488
2.1405
2.20242
2.27272
2.31887
2.3343
2.33459
2.32961
2.31626
2.29768
2.27985
2.26395
2.24814
2.23204
2.21478
2.1968
2.17782
2.15819
2.13799
2.11756
2.09685
2.07632
2.05538
2.03539
2.01493
1.99617
1.97714
1.95994
1.94287
1.92754
1.91292
1.90004
1.88885
1.88003
1.87296
1.86761
1.86353
1.86237
1.86342
1.86908
1.88044
1.89406
1.90929
1.92317
1.93454
1.9426
1.94739
1.94961
1.9502
1.94964
1.94888
1.94791
1.94645
1.94449
1.94224
1.93957
1.93675
1.93336
1.92995
1.92598
1.92208
1.9177
1.91344
1.90882
1.90424
1.89946
1.89456
1.88963
1.88441
1.87932
1.87386
1.86868
1.86309
1.85786
1.85221
1.84691
1.84125
1.83591
1.83031
1.82496
1.81943
1.81414
1.8087
1.80359
1.79828
1.79349
1.78847
1.7842
1.77984
1.77665
1.77415
2.14345
2.12834
2.11065
2.0973
2.0852
2.07956
2.08229
2.09415
2.1124
2.14796
2.20934
2.27883
2.32396
2.33951
2.34013
2.33505
2.32163
2.30326
2.2868
2.27198
2.25833
2.24402
2.22901
2.21268
2.19546
2.17723
2.15825
2.13886
2.11881
2.09878
2.07821
2.05805
2.03762
2.01792
1.99834
1.97945
1.96115
1.94344
1.9267
1.91061
1.89579
1.88223
1.87009
1.85988
1.85186
1.84503
1.83997
1.83656
1.83617
1.8384
1.84569
1.85803
1.8727
1.88791
1.9013
1.91159
1.91861
1.92243
1.9238
1.92355
1.92293
1.92193
1.92041
1.91843
1.91612
1.91367
1.91072
1.90768
1.90411
1.90054
1.89652
1.89251
1.8882
1.88383
1.87932
1.87458
1.8699
1.86483
1.85999
1.85466
1.84969
1.84423
1.83913
1.83369
1.8285
1.82314
1.81792
1.81265
1.80745
1.80226
1.79717
1.79209
1.78723
1.78233
1.77785
1.77334
1.76955
1.76588
1.76348
1.76151
2.12915
2.11657
2.10133
2.0887
2.08261
2.08608
2.09914
2.11883
2.15505
2.21734
2.28666
2.33117
2.34585
2.34523
2.33905
2.3253
2.30708
2.29106
2.27765
2.2651
2.25272
2.23931
2.22491
2.20931
2.19254
2.1751
2.15661
2.13788
2.11824
2.09869
2.07839
2.05865
2.03831
2.01897
1.99912
1.98057
1.96149
1.94384
1.92576
1.90939
1.89295
1.87809
1.86371
1.85127
1.83962
1.83073
1.82267
1.81645
1.81176
1.80977
1.80997
1.81376
1.82321
1.83612
1.85148
1.86598
1.8789
1.88829
1.89405
1.89678
1.89726
1.89677
1.8959
1.89471
1.89266
1.89045
1.8877
1.88509
1.8819
1.87881
1.87515
1.87149
1.86745
1.8633
1.85901
1.85443
1.84996
1.84506
1.84041
1.83535
1.83055
1.82542
1.82052
1.81534
1.81036
1.80515
1.80011
1.79498
1.78996
1.78495
1.7801
1.77526
1.77076
1.76624
1.76235
1.75848
1.75561
1.75294
1.75164
1.75018
2.10969
2.10429
2.09349
2.08433
2.08709
2.10109
2.12225
2.16057
2.22606
2.29539
2.33729
2.35161
2.3502
2.34211
2.32688
2.30877
2.29307
2.28012
2.26864
2.25736
2.24533
2.23254
2.21837
2.20353
2.18721
2.17061
2.15265
2.13466
2.11558
2.09665
2.07693
2.05774
2.03787
2.01898
1.99924
1.98086
1.96151
1.94377
1.92528
1.90836
1.89106
1.87531
1.85951
1.84546
1.83161
1.82006
1.80918
1.80095
1.79326
1.7876
1.78367
1.78288
1.78389
1.78926
1.8001
1.81416
1.82992
1.84457
1.85649
1.86472
1.86929
1.87107
1.87097
1.87046
1.86945
1.86759
1.86502
1.86244
1.8595
1.85665
1.85338
1.85011
1.84642
1.8427
1.83865
1.83452
1.83018
1.82568
1.82115
1.81631
1.81168
1.80662
1.80191
1.79684
1.79205
1.78711
1.7823
1.77752
1.77277
1.76818
1.76362
1.75928
1.75515
1.75128
1.74796
1.74504
1.74322
1.74158
1.74118
1.74037
2.09068
2.09254
2.08768
2.08799
2.1011
2.12472
2.16706
2.236
2.30776
2.34801
2.36044
2.35792
2.34688
2.3278
2.30895
2.29353
2.28075
2.27055
2.26014
2.24995
2.2379
2.22539
2.21123
2.1966
2.18083
2.16453
2.1475
2.12972
2.11175
2.09276
2.07434
2.05473
2.03624
2.01662
1.99814
1.97889
1.96059
1.94193
1.92412
1.90618
1.88917
1.87221
1.85625
1.84056
1.82616
1.81204
1.79987
1.78824
1.77903
1.77072
1.76385
1.75876
1.75598
1.75603
1.75848
1.76574
1.77797
1.79321
1.80895
1.82326
1.83419
1.84134
1.84486
1.84577
1.84548
1.84471
1.84296
1.84074
1.83796
1.83524
1.83213
1.829
1.82566
1.822
1.8184
1.8142
1.81041
1.80579
1.80181
1.79699
1.79278
1.78797
1.78349
1.77875
1.77407
1.76946
1.76474
1.76032
1.75573
1.75156
1.74732
1.74353
1.73997
1.73695
1.7347
1.73313
1.73236
1.73243
1.73346
1.73339
2.06409
2.07824
2.08612
2.09996
2.12713
2.17554
2.24935
2.32139
2.35767
2.36761
2.3639
2.35034
2.32917
2.30913
2.29318
2.28101
2.27045
2.26083
2.25066
2.23992
2.22796
2.21537
2.20166
2.18748
2.17237
2.15661
2.14022
2.1229
2.10544
2.08706
2.06901
2.05016
2.03203
2.01301
1.9951
1.976
1.95846
1.93946
1.92238
1.90376
1.88726
1.86938
1.8535
1.83685
1.82172
1.80664
1.79294
1.77954
1.76838
1.75733
1.74947
1.74095
1.73567
1.73108
1.73074
1.73131
1.73538
1.74503
1.75854
1.77461
1.79029
1.80377
1.81349
1.81941
1.82172
1.82196
1.82158
1.82041
1.818
1.81537
1.81226
1.80921
1.80611
1.8027
1.79948
1.79559
1.792
1.78768
1.78369
1.77915
1.77482
1.7702
1.76565
1.76103
1.7564
1.75194
1.7474
1.74317
1.739
1.73508
1.73161
1.72829
1.72598
1.72398
1.72334
1.72309
1.72398
1.72591
1.72906
1.73079
2.03024
2.06691
2.09209
2.12943
2.18957
2.26832
2.33522
2.36926
2.37499
2.36931
2.35163
2.32881
2.30797
2.29145
2.27899
2.26879
2.25967
2.2501
2.24027
2.22932
2.21776
2.20502
2.19177
2.17742
2.16272
2.14711
2.13106
2.11449
2.09726
2.07999
2.062
2.04428
2.02608
2.00814
1.99004
1.97203
1.95407
1.93628
1.91845
1.90115
1.88361
1.86688
1.84995
1.83393
1.81788
1.80289
1.78799
1.77432
1.76098
1.74925
1.73823
1.72949
1.72108
1.71475
1.70946
1.70747
1.70764
1.70973
1.71583
1.72708
1.74214
1.75861
1.77428
1.78663
1.79525
1.79956
1.80102
1.80084
1.79998
1.79813
1.79521
1.79227
1.78892
1.78569
1.78221
1.77873
1.77499
1.77115
1.76707
1.76291
1.7586
1.75426
1.74984
1.74548
1.741
1.73672
1.73246
1.72844
1.72471
1.72124
1.71843
1.71608
1.71493
1.71449
1.71502
1.71662
1.71914
1.72434
1.73254
1.7377
1.96221
2.05862
2.12142
2.20089
2.2964
2.36339
2.38796
2.38945
2.37799
2.35455
2.32881
2.30769
2.29076
2.27794
2.26781
2.2588
2.24975
2.23995
2.22928
2.21771
2.20547
2.19243
2.17908
2.16517
2.15108
2.13647
2.12145
2.10578
2.08952
2.07253
2.05499
2.03724
2.01945
2.00199
1.98426
1.9668
1.94919
1.93178
1.91446
1.89739
1.88042
1.86399
1.84729
1.83141
1.81529
1.79999
1.78493
1.77051
1.75696
1.74395
1.73224
1.72138
1.71208
1.7041
1.69684
1.69154
1.68782
1.6878
1.68888
1.69265
1.70089
1.71406
1.73025
1.74679
1.76175
1.77262
1.77954
1.78213
1.78246
1.78186
1.78026
1.77758
1.77427
1.77083
1.76728
1.76373
1.76003
1.75622
1.75233
1.74815
1.744
1.7396
1.73527
1.73093
1.72658
1.7224
1.7183
1.7146
1.71126
1.70858
1.70674
1.70595
1.7062
1.70732
1.70932