/*--------------------------------*- C++ -*----------------------------------*\
  =========                 |
  \\      /  F ield         | OpenFOAM: The Open Source CFD Toolbox
   \\    /   O peration     | Website:  https://openfoam.org
    \\  /    A nd           | Version:  13
     \\/     M anipulation  |
\*---------------------------------------------------------------------------*/
FoamFile
{
    format      ascii;
    class       volVectorField;
    location    "7";
    object      U;
}
// * * * * * * * * * * * * * * * * * * * * * * * * * * * * * * * * * * * * * //

dimensions      [0 1 -1 0 0 0 0];

internalField   nonuniform List<vector> 
5250
(
(3 1.19998e-08 0)
(2.99998 7.46361e-08 0)
(2.99996 2.59324e-07 0)
(2.9999 7.27844e-07 0)
(2.99975 1.91952e-06 0)
(2.99937 4.81182e-06 0)
(2.99846 1.20838e-05 0)
(2.99615 2.96611e-05 0)
(2.99055 7.37791e-05 0)
(2.97624 0.000182226 0)
(2.93906 0.000460594 0)
(2.836 0.00120318 0)
(2.53521 0.00332219 0)
(1.67742 0.00956988 0)
(0.767204 0.0244814 0)
(0.503178 0.0236752 0)
(0.549806 0.0239978 0)
(0.556034 0.0257655 0)
(0.503463 0.0275947 0)
(0.41628 0.0295097 0)
(0.333189 0.0318297 0)
(0.264447 0.0345802 0)
(0.195607 0.0374946 0)
(0.117476 0.0408922 0)
(0.0509197 0.0456473 0)
(3 3.58198e-08 0)
(2.99998 2.25693e-07 0)
(2.99996 7.76306e-07 0)
(2.9999 2.19088e-06 0)
(2.99975 5.77159e-06 0)
(2.99938 1.44115e-05 0)
(2.99848 3.65337e-05 0)
(2.9962 8.92622e-05 0)
(2.99067 0.000225709 0)
(2.97656 0.000555949 0)
(2.93991 0.00141709 0)
(2.83837 0.00371002 0)
(2.5421 0.0103009 0)
(1.69432 0.029706 0)
(0.776988 0.0745247 0)
(0.499886 0.0682615 0)
(0.548787 0.0662254 0)
(0.556103 0.0691253 0)
(0.503347 0.0721574 0)
(0.416228 0.0754612 0)
(0.333188 0.0793517 0)
(0.263947 0.0836777 0)
(0.194138 0.0877369 0)
(0.114738 0.0917136 0)
(0.0477501 0.0955374 0)
(3 6.62469e-08 0)
(2.99999 3.51452e-07 0)
(2.99996 1.41905e-06 0)
(2.9999 3.43211e-06 0)
(2.99976 1.04691e-05 0)
(2.99939 2.31653e-05 0)
(2.99852 6.51644e-05 0)
(2.99631 0.000148243 0)
(2.99094 0.000392003 0)
(2.97723 0.000937069 0)
(2.94168 0.00242671 0)
(2.84339 0.00630753 0)
(2.5569 0.0175836 0)
(1.73204 0.0508426 0)
(0.800006 0.129006 0)
(0.495545 0.115694 0)
(0.549791 0.111068 0)
(0.559926 0.116217 0)
(0.507325 0.121942 0)
(0.42075 0.128625 0)
(0.338047 0.13597 0)
(0.268355 0.143838 0)
(0.19748 0.151379 0)
(0.116558 0.158322 0)
(0.0475814 0.163281 0)
(3 1.0296e-07 0)
(2.99999 4.88247e-07 0)
(2.99996 2.02565e-06 0)
(2.99991 4.79256e-06 0)
(2.99977 1.4955e-05 0)
(2.99942 3.12299e-05 0)
(2.99859 9.74103e-05 0)
(2.99647 0.000191232 0)
(2.99133 0.000591815 0)
(2.97825 0.00124348 0)
(2.94438 0.003501 0)
(2.85103 0.00872626 0)
(2.57936 0.0247092 0)
(1.79088 0.0710695 0)
(0.836068 0.183633 0)
(0.49002 0.162515 0)
(0.553205 0.155018 0)
(0.56809 0.162514 0)
(0.516012 0.171132 0)
(0.430366 0.181621 0)
(0.348031 0.192805 0)
(0.277883 0.204751 0)
(0.205699 0.216549 0)
(0.122269 0.227271 0)
(0.049595 0.233868 0)
(3 1.1776e-07 0)
(2.99999 6.35636e-07 0)
(2.99997 2.45571e-06 0)
(2.99991 6.19142e-06 0)
(2.99978 1.81288e-05 0)
(2.99946 4.15259e-05 0)
(2.99866 0.000115588 0)
(2.99672 0.000258427 0)
(2.99181 0.000707791 0)
(2.97965 0.00164082 0)
(2.94794 0.00434633 0)
(2.86103 0.0111407 0)
(2.60931 0.031149 0)
(1.87036 0.0899418 0)
(0.885635 0.237757 0)
(0.484786 0.209604 0)
(0.559853 0.198977 0)
(0.581042 0.208477 0)
(0.529719 0.219728 0)
(0.445305 0.234029 0)
(0.363295 0.249238 0)
(0.2926 0.265707 0)
(0.218781 0.282514 0)
(0.131786 0.298073 0)
(0.0535907 0.307317 0)
(3 1.09313e-07 0)
(2.99999 8.24996e-07 0)
(2.99997 2.5425e-06 0)
(2.99992 8.08957e-06 0)
(2.9998 1.90726e-05 0)
(2.9995 5.44986e-05 0)
(2.99877 0.000119904 0)
(2.99697 0.000341428 0)
(2.99248 0.000750533 0)
(2.98129 0.00206771 0)
(2.95229 0.00492451 0)
(2.87341 0.0132809 0)
(2.64547 0.0363665 0)
(1.97172 0.105551 0)
(0.951322 0.287454 0)
(0.484962 0.256907 0)
(0.572352 0.243477 0)
(0.600509 0.254346 0)
(0.549916 0.26798 0)
(0.466872 0.286468 0)
(0.385068 0.306394 0)
(0.313724 0.328392 0)
(0.237974 0.351695 0)
(0.146279 0.374201 0)
(0.0603081 0.388474 0)
(3 1.3716e-07 0)
(2.99999 8.58971e-07 0)
(2.99997 2.96448e-06 0)
(2.99993 8.43083e-06 0)
(2.99982 2.20625e-05 0)
(2.99955 5.61895e-05 0)
(2.9989 0.000140354 0)
(2.99724 0.000349769 0)
(2.99325 0.00087204 0)
(2.98313 0.00217269 0)
(2.95729 0.00550197 0)
(2.8873 0.0143677 0)
(2.6868 0.0397023 0)
(2.09074 0.115287 0)
(1.03654 0.326959 0)
(0.500033 0.306671 0)
(0.594531 0.292846 0)
(0.628701 0.302688 0)
(0.57889 0.317132 0)
(0.497455 0.339556 0)
(0.415535 0.364766 0)
(0.34343 0.393508 0)
(0.265664 0.425356 0)
(0.168423 0.458319 0)
(0.0715545 0.482608 0)
(3 1.34173e-07 0)
(2.99999 8.21914e-07 0)
(2.99997 2.89983e-06 0)
(2.99993 8.0707e-06 0)
(2.99984 2.15935e-05 0)
(2.9996 5.39126e-05 0)
(2.99901 0.000136899 0)
(2.99758 0.000335207 0)
(2.994 0.000844187 0)
(2.98515 0.0020814 0)
(2.96247 0.00527142 0)
(2.902 0.0136511 0)
(2.73043 0.0373761 0)
(2.22442 0.107832 0)
(1.15374 0.316701 0)
(0.5528 0.343869 0)
(0.635745 0.344251 0)
(0.669489 0.352732 0)
(0.620012 0.367677 0)
(0.540356 0.393964 0)
(0.457861 0.425097 0)
(0.384749 0.46186 0)
(0.305485 0.504633 0)
(0.203064 0.553216 0)
(0.0912631 0.598272 0)
(3 1.06438e-07 0)
(2.99999 7.92078e-07 0)
(2.99998 2.40301e-06 0)
(2.99994 7.74712e-06 0)
(2.99986 1.81264e-05 0)
(2.99964 5.07594e-05 0)
(2.99913 0.00011491 0)
(2.99783 0.000309638 0)
(2.99471 0.000708891 0)
(2.98682 0.00186256 0)
(2.96694 0.00445746 0)
(2.9141 0.0116887 0)
(2.76565 0.0310539 0)
(2.32893 0.0881193 0)
(1.27378 0.261977 0)
(0.601588 0.37533 0)
(0.664466 0.403729 0)
(0.699988 0.403492 0)
(0.660056 0.419912 0)
(0.588452 0.448935 0)
(0.509482 0.487215 0)
(0.438235 0.532918 0)
(0.361081 0.588729 0)
(0.259219 0.661866 0)
(0.12795 0.75049 0)
(3 1.21746e-07 0)
(2.99999 6.42637e-07 0)
(2.99998 2.55445e-06 0)
(2.99995 6.22008e-06 0)
(2.99987 1.87311e-05 0)
(2.99968 4.12879e-05 0)
(2.99923 0.000115994 0)
(2.99807 0.000256083 0)
(2.9953 0.000693494 0)
(2.98827 0.00158668 0)
(2.97066 0.00414732 0)
(2.92411 0.0102248 0)
(2.79378 0.0274376 0)
(2.41161 0.0763609 0)
(1.41069 0.225758 0)
(0.674056 0.422832 0)
(0.676427 0.457397 0)
(0.706753 0.453293 0)
(0.690032 0.471809 0)
(0.634341 0.502041 0)
(0.566381 0.5479 0)
(0.502509 0.602726 0)
(0.437567 0.676852 0)
(0.353377 0.791905 0)
(0.198185 0.998633 0)
(3 1.15065e-07 0)
(2.99999 6.21218e-07 0)
(2.99998 2.38264e-06 0)
(2.99995 6.06373e-06 0)
(2.99989 1.75591e-05 0)
(2.99972 4.00198e-05 0)
(2.99931 0.000111318 0)
(2.99832 0.000245595 0)
(2.99582 0.00067688 0)
(2.9897 0.00151715 0)
(2.97413 0.00404172 0)
(2.93351 0.00983167 0)
(2.82038 0.0264157 0)
(2.49023 0.0731796 0)
(1.57826 0.214425 0)
(0.775935 0.471639 0)
(0.683321 0.49139 0)
(0.713366 0.493505 0)
(0.71429 0.514904 0)
(0.676969 0.548955 0)
(0.626009 0.600068 0)
(0.57902 0.664585 0)
(0.546249 0.755728 0)
(0.542628 0.898131 0)
(0.576136 1.14034 0)
(3 9.41126e-08 0)
(2.99999 6.88127e-07 0)
(2.99998 2.11087e-06 0)
(2.99996 6.72797e-06 0)
(2.9999 1.58066e-05 0)
(2.99976 4.41492e-05 0)
(2.9994 0.000100794 0)
(2.99854 0.000269241 0)
(2.99636 0.000623622 0)
(2.99107 0.00162288 0)
(2.97759 0.00388013 0)
(2.94273 0.010043 0)
(2.84652 0.0260607 0)
(2.56706 0.0726818 0)
(1.76654 0.21086 0)
(0.900978 0.515412 0)
(0.692514 0.521468 0)
(0.724391 0.525358 0)
(0.740055 0.54723 0)
(0.719074 0.586899 0)
(0.687105 0.641091 0)
(0.662642 0.712965 0)
(0.663819 0.811303 0)
(0.718 0.948099 0)
(0.847664 1.12773 0)
(3 1.01068e-07 0)
(2.99999 6.45026e-07 0)
(2.99999 2.2088e-06 0)
(2.99997 6.31499e-06 0)
(2.99992 1.64183e-05 0)
(2.99979 4.19892e-05 0)
(2.9995 0.000103304 0)
(2.99875 0.000260351 0)
(2.99694 0.00063418 0)
(2.99241 0.00159706 0)
(2.98115 0.00393659 0)
(2.95197 0.0100008 0)
(2.87265 0.026091 0)
(2.64402 0.0722375 0)
(1.97355 0.209179 0)
(1.05072 0.552861 0)
(0.714878 0.556373 0)
(0.745051 0.558887 0)
(0.771523 0.575012 0)
(0.764511 0.616612 0)
(0.74878 0.672998 0)
(0.74617 0.745717 0)
(0.771929 0.838865 0)
(0.848585 0.951573 0)
(0.994348 1.0619 0)
(3 9.71673e-08 0)
(3 6.00067e-07 0)
(2.99999 2.10382e-06 0)
(2.99997 5.85474e-06 0)
(2.99993 1.56837e-05 0)
(2.99983 3.90424e-05 0)
(2.99958 9.94891e-05 0)
(2.99899 0.000243382 0)
(2.99747 0.000612431 0)
(2.99383 0.00150145 0)
(2.98459 0.00378045 0)
(2.96121 0.00946328 0)
(2.89844 0.0247001 0)
(2.72041 0.0676558 0)
(2.19526 0.195737 0)
(1.23815 0.552658 0)
(0.775651 0.592677 0)
(0.785392 0.600663 0)
(0.813113 0.606371 0)
(0.817681 0.642593 0)
(0.812292 0.697197 0)
(0.823095 0.764848 0)
(0.862731 0.844734 0)
(0.944165 0.932118 0)
(1.0816 1.00346 0)
(3 7.91245e-08 0)
(3 5.36958e-07 0)
(2.99999 1.75045e-06 0)
(2.99998 5.23481e-06 0)
(2.99995 1.30459e-05 0)
(2.99986 3.46497e-05 0)
(2.99967 8.25803e-05 0)
(2.99918 0.0002133 0)
(2.99799 0.000507396 0)
(2.99505 0.00129123 0)
(2.98779 0.00313196 0)
(2.96942 0.00790849 0)
(2.92123 0.0201613 0)
(2.7873 0.0542391 0)
(2.39861 0.154296 0)
(1.46523 0.458402 0)
(0.877104 0.613324 0)
(0.841362 0.639368 0)
(0.860178 0.646416 0)
(0.875182 0.670722 0)
(0.876858 0.716905 0)
(0.893479 0.775537 0)
(0.938125 0.841282 0)
(1.01737 0.908341 0)
(1.14081 0.959531 0)
(3 7.24438e-08 0)
(3 4.1368e-07 0)
(2.99999 1.54158e-06 0)
(2.99998 4.04071e-06 0)
(2.99996 1.13526e-05 0)
(2.99989 2.69214e-05 0)
(2.99973 7.07308e-05 0)
(2.99934 0.000165808 0)
(2.99837 0.000425632 0)
(2.99601 0.00101132 0)
(2.99011 0.00255082 0)
(2.9754 0.00621075 0)
(2.93699 0.0158051 0)
(2.83119 0.0412358 0)
(2.52591 0.11423 0)
(1.69392 0.339289 0)
(0.985404 0.645074 0)
(0.879482 0.676417 0)
(0.895396 0.688998 0)
(0.920413 0.700758 0)
(0.934321 0.735203 0)
(0.956062 0.783171 0)
(1.00162 0.836204 0)
(1.07608 0.887861 0)
(1.18494 0.926551 0)
(3 5.8686e-08 0)
(3 3.73946e-07 0)
(2.99999 1.28197e-06 0)
(2.99999 3.63839e-06 0)
(2.99996 9.50794e-06 0)
(2.99991 2.40275e-05 0)
(2.99978 5.96278e-05 0)
(2.99947 0.00014782 0)
(2.9987 0.000362303 0)
(2.99682 0.000896942 0)
(2.99211 0.00220049 0)
(2.98046 0.00546254 0)
(2.95027 0.0137278 0)
(2.86835 0.0357136 0)
(2.63322 0.0982208 0)
(1.95501 0.286001 0)
(1.14561 0.679306 0)
(0.912782 0.709434 0)
(0.922236 0.722737 0)
(0.953642 0.726536 0)
(0.981956 0.749834 0)
(1.01019 0.788628 0)
(1.0556 0.831649 0)
(1.12457 0.871904 0)
(1.2202 0.90156 0)
(3 4.80409e-08 0)
(3 3.3153e-07 0)
(3 1.06426e-06 0)
(2.99999 3.23933e-06 0)
(2.99997 7.9402e-06 0)
(2.99993 2.13344e-05 0)
(2.99983 5.02358e-05 0)
(2.99959 0.00013083 0)
(2.99899 0.000309437 0)
(2.99754 0.000792224 0)
(2.99391 0.00190372 0)
(2.985 0.00482426 0)
(2.96217 0.0119445 0)
(2.90138 0.0311611 0)
(2.73016 0.0846302 0)
(2.22596 0.244586 0)
(1.3609 0.66204 0)
(0.9797 0.733638 0)
(0.962418 0.746292 0)
(0.987111 0.74929 0)
(1.02488 0.762827 0)
(1.05934 0.792997 0)
(1.10338 0.82783 0)
(1.16623 0.859638 0)
(1.25021 0.882591 0)
(3 4.19199e-08 0)
(3 2.52476e-07 0)
(3 9.07534e-07 0)
(2.99999 2.47136e-06 0)
(2.99998 6.70641e-06 0)
(2.99995 1.64736e-05 0)
(2.99987 4.18422e-05 0)
(2.99969 0.000101924 0)
(2.99925 0.000252986 0)
(2.99815 0.000623698 0)
(2.99548 0.00152744 0)
(2.98883 0.00380983 0)
(2.97223 0.00941583 0)
(2.92887 0.0241217 0)
(2.81009 0.0641804 0)
(2.46677 0.18212 0)
(1.63436 0.534073 0)
(1.09153 0.73964 0)
(1.01875 0.765223 0)
(1.03017 0.775617 0)
(1.06754 0.780836 0)
(1.10561 0.800306 0)
(1.14746 0.826534 0)
(1.20388 0.851191 0)
(1.27753 0.868823 0)
(3 3.39533e-08 0)
(3 1.97338e-07 0)
(3 7.20873e-07 0)
(2.99999 1.92113e-06 0)
(2.99998 5.3107e-06 0)
(2.99996 1.26771e-05 0)
(2.9999 3.3127e-05 0)
(2.99977 7.76813e-05 0)
(2.99943 0.000199124 0)
(2.99861 0.000469417 0)
(2.99657 0.00118866 0)
(2.99158 0.00284097 0)
(2.97907 0.00714625 0)
(2.94693 0.0176789 0)
(2.85963 0.0462246 0)
(2.61073 0.126403 0)
(1.91628 0.374826 0)
(1.2286 0.747345 0)
(1.0635 0.787818 0)
(1.06519 0.804307 0)
(1.10037 0.803939 0)
(1.14423 0.810017 0)
(1.18665 0.827705 0)
(1.23818 0.846359 0)
(1.30316 0.859676 0)
(3 2.4776e-08 0)
(3 1.66498e-07 0)
(3 5.42784e-07 0)
(3 1.62232e-06 0)
(2.99999 4.02765e-06 0)
(2.99997 1.0644e-05 0)
(2.99993 2.54121e-05 0)
(2.99983 6.476e-05 0)
(2.99957 0.000155278 0)
(2.99897 0.000389039 0)
(2.99745 0.000943534 0)
(2.99379 0.00233982 0)
(2.98458 0.00577445 0)
(2.96132 0.0144336 0)
(2.8992 0.0372684 0)
(2.72467 0.100982 0)
(2.21334 0.293045 0)
(1.43317 0.734576 0)
(1.12516 0.812572 0)
(1.10443 0.826167 0)
(1.12788 0.825739 0)
(1.17465 0.822292 0)
(1.22175 0.831725 0)
(1.27019 0.844778 0)
(1.32786 0.854378 0)
(3 1.87769e-08 0)
(3 1.27513e-07 0)
(3 4.16439e-07 0)
(3 1.24133e-06 0)
(2.99999 3.08898e-06 0)
(2.99998 8.17771e-06 0)
(2.99995 1.93593e-05 0)
(2.99988 5.00391e-05 0)
(2.9997 0.000117464 0)
(2.99926 0.000301452 0)
(2.99819 0.000711438 0)
(2.9956 0.00180972 0)
(2.98915 0.00435297 0)
(2.97313 0.0109934 0)
(2.93152 0.0277308 0)
(2.81825 0.0740632 0)
(2.49158 0.209892 0)
(1.72292 0.597764 0)
(1.23869 0.81139 0)
(1.15951 0.837133 0)
(1.16593 0.845355 0)
(1.2065 0.839354 0)
(1.25494 0.839741 0)
(1.30094 0.846575 0)
(1.35243 0.85252 0)
(3 1.48911e-08 0)
(3 9.08312e-08 0)
(3 3.22913e-07 0)
(3 8.82896e-07 0)
(2.99999 2.37723e-06 0)
(2.99999 5.84232e-06 0)
(2.99996 1.4715e-05 0)
(2.99991 3.58887e-05 0)
(2.99978 8.78785e-05 0)
(2.99947 0.000216764 0)
(2.99871 0.000521848 0)
(2.99683 0.00130425 0)
(2.99223 0.00312138 0)
(2.98078 0.00784646 0)
(2.95153 0.019301 0)
(2.87293 0.0502984 0)
(2.65088 0.136671 0)
(2.03035 0.403517 0)
(1.3857 0.800716 0)
(1.20804 0.853942 0)
(1.20069 0.867006 0)
(1.23232 0.861594 0)
(1.28223 0.852455 0)
(1.3291 0.851816 0)
(1.37659 0.853627 0)
(3 1.10697e-08 0)
(3 6.78303e-08 0)
(3 2.38821e-07 0)
(3 6.59167e-07 0)
(3 1.76435e-06 0)
(2.99999 4.34299e-06 0)
(2.99997 1.10183e-05 0)
(2.99994 2.65391e-05 0)
(2.99985 6.64538e-05 0)
(2.99963 0.000159488 0)
(2.9991 0.000398244 0)
(2.99777 0.00095978 0)
(2.99459 0.00238859 0)
(2.9866 0.0058202 0)
(2.96669 0.0145824 0)
(2.91423 0.0371124 0)
(2.76939 0.0996729 0)
(2.34734 0.287257 0)
(1.62264 0.728151 0)
(1.28795 0.860446 0)
(1.24479 0.880761 0)
(1.26027 0.882645 0)
(1.30501 0.869582 0)
(1.35404 0.86152 0)
(1.40006 0.858364 0)
(3 7.7978e-09 0)
(3 5.04808e-08 0)
(3 1.68851e-07 0)
(3 4.90884e-07 0)
(3 1.25212e-06 0)
(2.99999 3.20045e-06 0)
(2.99998 7.88029e-06 0)
(2.99996 1.93329e-05 0)
(2.99989 4.78319e-05 0)
(2.99974 0.000114887 0)
(2.99937 0.000288378 0)
(2.99849 0.000682569 0)
(2.99628 0.00173084 0)
(2.99094 0.0041139 0)
(2.97755 0.0104163 0)
(2.94334 0.0258187 0)
(2.85149 0.0680763 0)
(2.589 0.189381 0)
(1.92779 0.542345 0)
(1.41423 0.844292 0)
(1.29769 0.887903 0)
(1.29447 0.899955 0)
(1.32769 0.889644 0)
(1.37625 0.874348 0)
(1.42213 0.866552 0)
(3 5.73407e-09 0)
(3 3.54701e-08 0)
(3 1.23697e-07 0)
(3 3.44965e-07 0)
(3 9.1019e-07 0)
(3 2.26655e-06 0)
(2.99999 5.65159e-06 0)
(2.99997 1.37783e-05 0)
(2.99993 3.38742e-05 0)
(2.99983 8.26022e-05 0)
(2.99957 0.000201551 0)
(2.99897 0.00049311 0)
(2.99745 0.00120153 0)
(2.99384 0.00295247 0)
(2.98475 0.00724207 0)
(2.96199 0.0179946 0)
(2.90182 0.0461092 0)
(2.73459 0.124026 0)
(2.2547 0.361036 0)
(1.60709 0.800699 0)
(1.36036 0.897439 0)
(1.33141 0.913858 0)
(1.34853 0.910228 0)
(1.39342 0.891904 0)
(1.44204 0.878275 0)
(3 4.06864e-09 0)
(3 2.46791e-08 0)
(3 8.78267e-08 0)
(3 2.39911e-07 0)
(3 6.45617e-07 0)
(3 1.58268e-06 0)
(2.99999 3.98994e-06 0)
(2.99998 9.65772e-06 0)
(2.99995 2.37842e-05 0)
(2.99988 5.79994e-05 0)
(2.99972 0.000140662 0)
(2.99932 0.000347672 0)
(2.99833 0.000833263 0)
(2.99597 0.00207952 0)
(2.99007 0.00500613 0)
(2.97563 0.0125332 0)
(2.93841 0.0313623 0)
(2.83876 0.0828285 0)
(2.55218 0.233737 0)
(1.89998 0.633207 0)
(1.47442 0.877567 0)
(1.38451 0.915506 0)
(1.38099 0.924761 0)
(1.41297 0.911576 0)
(1.45999 0.890505 0)
(3 2.75233e-09 0)
(3 1.71485e-08 0)
(3 5.95959e-08 0)
(3 1.66359e-07 0)
(3 4.3827e-07 0)
(3 1.08996e-06 0)
(2.99999 2.71213e-06 0)
(2.99999 6.61356e-06 0)
(2.99997 1.61703e-05 0)
(2.99992 3.94471e-05 0)
(2.99981 9.56102e-05 0)
(2.99955 0.000234448 0)
(2.9989 0.000565212 0)
(2.99731 0.00139111 0)
(2.99345 0.00336634 0)
(2.98392 0.00829714 0)
(2.95986 0.0205302 0)
(2.89658 0.0525121 0)
(2.72034 0.141632 0)
(2.22735 0.40875 0)
(1.64351 0.83494 0)
(1.44086 0.920126 0)
(1.41545 0.935108 0)
(1.43056 0.92975 0)
(1.47258 0.907011 0)
(3 1.81381e-09 0)
(3 1.18642e-08 0)
(3 3.94783e-08 0)
(3 1.15039e-07 0)
(3 2.90779e-07 0)
(3 7.49664e-07 0)
(3 1.80606e-06 0)
(2.99999 4.51948e-06 0)
(2.99998 1.08494e-05 0)
(2.99995 2.67301e-05 0)
(2.99988 6.46446e-05 0)
(2.99971 0.000157713 0)
(2.99929 0.000384606 0)
(2.9983 0.000931252 0)
(2.99582 0.00229065 0)
(2.98991 0.00554953 0)
(2.97506 0.0137742 0)
(2.93732 0.0345205 0)
(2.83653 0.0909026 0)
(2.54593 0.257447 0)
(1.92503 0.669313 0)
(1.54544 0.892547 0)
(1.46575 0.931088 0)
(1.46033 0.939628 0)
(1.48855 0.925705 0)
(3 1.22878e-09 0)
(3 7.71201e-09 0)
(3 2.66885e-08 0)
(3 7.4667e-08 0)
(3 1.95932e-07 0)
(3 4.87628e-07 0)
(3 1.20748e-06 0)
(2.99999 2.95266e-06 0)
(2.99999 7.15939e-06 0)
(2.99997 1.75485e-05 0)
(2.99992 4.21039e-05 0)
(2.99981 0.000103819 0)
(2.99954 0.000247182 0)
(2.9989 0.000613293 0)
(2.9973 0.00145646 0)
(2.99348 0.00362088 0)
(2.98394 0.00871882 0)
(2.96014 0.0217432 0)
(2.8975 0.0552498 0)
(2.72376 0.148708 0)
(2.24562 0.423936 0)
(1.70334 0.840447 0)
(1.51919 0.928588 0)
(1.49282 0.945459 0)
(1.50442 0.942045 0)
(3 8.08614e-10 0)
(3 5.09377e-09 0)
(3 1.76398e-08 0)
(3 4.9307e-08 0)
(3 1.29262e-07 0)
(3 3.22396e-07 0)
(3 7.93914e-07 0)
(3 1.9529e-06 0)
(2.99999 4.69156e-06 0)
(2.99998 1.16364e-05 0)
(2.99995 2.75233e-05 0)
(2.99988 6.8817e-05 0)
(2.99971 0.000161815 0)
(2.99931 0.000405747 0)
(2.99833 0.000954697 0)
(2.99596 0.00239147 0)
(2.99013 0.00569677 0)
(2.97585 0.0142431 0)
(2.93938 0.0353685 0)
(2.84248 0.0930911 0)
(2.56468 0.262035 0)
(1.97882 0.671585 0)
(1.6196 0.897339 0)
(1.54063 0.940006 0)
(1.53261 0.949466 0)
(3 5.30981e-10 0)
(3 3.26389e-09 0)
(3 1.13924e-08 0)
(3 3.16139e-08 0)
(3 8.34522e-08 0)
(3 2.05602e-07 0)
(3 5.14808e-07 0)
(3 1.23392e-06 0)
(2.99999 3.05157e-06 0)
(2.99999 7.28467e-06 0)
(2.99997 1.79222e-05 0)
(2.99993 4.28346e-05 0)
(2.99982 0.000104876 0)
(2.99956 0.000251847 0)
(2.99895 0.000613896 0)
(2.99743 0.00148145 0)
(2.99381 0.00360765 0)
(2.98479 0.00878388 0)
(2.9624 0.0216825 0)
(2.9038 0.0549888 0)
(2.74236 0.147223 0)
(2.29972 0.416268 0)
(1.78162 0.82922 0)
(1.59448 0.931365 0)
(1.56378 0.951558 0)
(3 3.31654e-10 0)
(3 2.13041e-09 0)
(3 7.17884e-09 0)
(3 2.06161e-08 0)
(3 5.27733e-08 0)
(3 1.33529e-07 0)
(3 3.25996e-07 0)
(3 7.99108e-07 0)
(3 1.93937e-06 0)
(2.99999 4.69271e-06 0)
(2.99998 1.14478e-05 0)
(2.99995 2.74535e-05 0)
(2.99989 6.73687e-05 0)
(2.99973 0.000160869 0)
(2.99935 0.000395814 0)
(2.99845 0.000945718 0)
(2.99621 0.00232884 0)
(2.99089 0.00560987 0)
(2.97761 0.0138678 0)
(2.94417 0.0344871 0)
(2.85586 0.0898737 0)
(2.6034 0.251327 0)
(2.05908 0.645891 0)
(1.69838 0.896883 0)
(1.61076 0.946844 0)
(3 2.16566e-10 0)
(3 1.31812e-09 0)
(3 4.63999e-09 0)
(3 1.27591e-08 0)
(3 3.38966e-08 0)
(3 8.30339e-08 0)
(3 2.07961e-07 0)
(3 4.97642e-07 0)
(3 1.22705e-06 0)
(3 2.93465e-06 0)
(2.99999 7.16383e-06 0)
(2.99997 1.72281e-05 0)
(2.99993 4.17097e-05 0)
(2.99984 0.00010115 0)
(2.99961 0.000242317 0)
(2.99904 0.000593653 0)
(2.9977 0.0014131 0)
(2.9944 0.00348066 0)
(2.98638 0.00835525 0)
(2.9664 0.020694 0)
(2.91485 0.0520128 0)
(2.77408 0.138312 0)
(2.38639 0.389104 0)
(1.88053 0.801229 0)
(1.66961 0.929603 0)
(3 1.32847e-10 0)
(3 8.35101e-10 0)
(3 2.85896e-09 0)
(3 8.07756e-09 0)
(3 2.09209e-08 0)
(3 5.23153e-08 0)
(3 1.29e-07 0)
(3 3.11772e-07 0)
(3 7.65363e-07 0)
(3 1.82514e-06 0)
(2.99999 4.4952e-06 0)
(2.99998 1.06635e-05 0)
(2.99996 2.6281e-05 0)
(2.9999 6.237e-05 0)
(2.99976 0.000153505 0)
(2.99943 0.000365078 0)
(2.99862 0.000897539 0)
(2.99668 0.00214545 0)
(2.99192 0.00527283 0)
(2.98034 0.0127726 0)
(2.9511 0.0319173 0)
(2.87473 0.0819153 0)
(2.6588 0.226367 0)
(2.16481 0.591252 0)
(1.78401 0.888984 0)
(3 8.0819e-11 0)
(3 5.13203e-10 0)
(3 1.76319e-09 0)
(3 4.9549e-09 0)
(3 1.28707e-08 0)
(3 3.22415e-08 0)
(3 7.84814e-08 0)
(3 1.93595e-07 0)
(3 4.60318e-07 0)
(3 1.13847e-06 0)
(3 2.68028e-06 0)
(2.99999 6.65342e-06 0)
(2.99998 1.56057e-05 0)
(2.99994 3.87021e-05 0)
(2.99986 9.11016e-05 0)
(2.99966 0.000224618 0)
(2.99918 0.000532262 0)
(2.99805 0.00130511 0)
(2.99523 0.00312065 0)
(2.98854 0.00763764 0)
(2.97182 0.0185865 0)
(2.92948 0.0467434 0)
(2.81609 0.122619 0)
(2.4994 0.344102 0)
(2.00042 0.750526 0)
(3 5.02999e-11 0)
(3 3.07661e-10 0)
(3 1.07594e-09 0)
(3 2.97069e-09 0)
(3 7.85067e-09 0)
(3 1.92132e-08 0)
(3 4.80987e-08 0)
(3 1.14414e-07 0)
(3 2.82643e-07 0)
(3 6.6937e-07 0)
(3 1.64401e-06 0)
(2.99999 3.9014e-06 0)
(2.99999 9.51856e-06 0)
(2.99997 2.27478e-05 0)
(2.99992 5.50345e-05 0)
(2.9998 0.000132637 0)
(2.99952 0.000317729 0)
(2.99883 0.000774416 0)
(2.9972 0.00184106 0)
(2.99321 0.0045222 0)
(2.9835 0.0108504 0)
(2.95927 0.0269215 0)
(2.89661 0.0680833 0)
(2.72292 0.184377 0)
(2.29367 0.492956 0)
(3 2.88721e-11 0)
(3 1.84949e-10 0)
(3 6.24509e-10 0)
(3 1.78417e-09 0)
(3 4.56381e-09 0)
(3 1.1481e-08 0)
(3 2.79436e-08 0)
(3 6.80013e-08 0)
(3 1.64393e-07 0)
(3 3.94474e-07 0)
(3 9.58456e-07 0)
(3 2.27833e-06 0)
(2.99999 5.56512e-06 0)
(2.99998 1.31708e-05 0)
(2.99995 3.22068e-05 0)
(2.99988 7.6291e-05 0)
(2.99971 0.000186185 0)
(2.99932 0.000442167 0)
(2.99835 0.00107758 0)
(2.99604 0.00257362 0)
(2.99043 0.00627533 0)
(2.97674 0.015203 0)
(2.94223 0.0379478 0)
(2.85185 0.0981963 0)
(2.59958 0.273477 0)
(3 1.6727e-11 0)
(3 1.03234e-10 0)
(3 3.60808e-10 0)
(3 9.94836e-10 0)
(3 2.61339e-09 0)
(3 6.42453e-09 0)
(3 1.57672e-08 0)
(3 3.80704e-08 0)
(3 9.11128e-08 0)
(3 2.21184e-07 0)
(3 5.20396e-07 0)
(3 1.27364e-06 0)
(2.99999 2.96349e-06 0)
(2.99999 7.29501e-06 0)
(2.99997 1.68655e-05 0)
(2.99993 4.14976e-05 0)
(2.99982 9.5983e-05 0)
(2.99957 0.000234746 0)
(2.99897 0.00054537 0)
(2.99754 0.00132363 0)
(2.99401 0.00310155 0)
(2.98554 0.00749877 0)
(2.9644 0.0179376 0)
(2.91037 0.0447656 0)
(2.76522 0.11752 0)
(3 9.06739e-12 0)
(3 5.5959e-11 0)
(3 1.92574e-10 0)
(3 5.36518e-10 0)
(3 1.39175e-09 0)
(3 3.40273e-09 0)
(3 8.41545e-09 0)
(3 1.96551e-08 0)
(3 4.84825e-08 0)
(3 1.10985e-07 0)
(3 2.74404e-07 0)
(3 6.21878e-07 0)
(3 1.5327e-06 0)
(2.99999 3.47429e-06 0)
(2.99998 8.46429e-06 0)
(2.99995 1.92731e-05 0)
(2.99987 4.61682e-05 0)
(2.99969 0.000106265 0)
(2.99926 0.000248386 0)
(2.99817 0.000579113 0)
(2.99557 0.0013223 0)
(2.98906 0.00311498 0)
(2.97289 0.00708666 0)
(2.93079 0.0168361 0)
(2.81662 0.0402391 0)
(3 4.38735e-12 0)
(3 2.90272e-11 0)
(3 9.4557e-11 0)
(3 2.766e-10 0)
(3 6.79689e-10 0)
(3 1.72159e-09 0)
(3 4.04941e-09 0)
(3 9.704e-09 0)
(3 2.29921e-08 0)
(3 5.28798e-08 0)
(3 1.2784e-07 0)
(3 2.83917e-07 0)
(3 7.01801e-07 0)
(2.99999 1.50857e-06 0)
(2.99998 3.78495e-06 0)
(2.99996 7.96714e-06 0)
(2.9999 2.00504e-05 0)
(2.99974 4.1679e-05 0)
(2.99937 0.000103881 0)
(2.99843 0.000215884 0)
(2.99612 0.000524262 0)
(2.99033 0.0011067 0)
(2.9757 0.00259126 0)
(2.93708 0.00566796 0)
(2.82969 0.0130504 0)
(3 2.12146e-12 0)
(3 1.38018e-11 0)
(3 4.60537e-11 0)
(3 1.30249e-10 0)
(3 3.27447e-10 0)
(3 8.06071e-10 0)
(3 1.89375e-09 0)
(3 4.52613e-09 0)
(3 1.0357e-08 0)
(3 2.43502e-08 0)
(3 5.53921e-08 0)
(3 1.28597e-07 0)
(3 2.91507e-07 0)
(2.99999 6.651e-07 0)
(2.99998 1.51649e-06 0)
(2.99996 3.38751e-06 0)
(2.9999 7.76355e-06 0)
(2.99976 1.69394e-05 0)
(2.9994 3.95356e-05 0)
(2.99852 8.29129e-05 0)
(2.99631 0.000197863 0)
(2.99078 0.000406584 0)
(2.97665 0.000961953 0)
(2.93929 0.00206232 0)
(2.83414 0.00486647 0)
(3 1.10198e-12 0)
(3 5.82911e-12 0)
(3 2.32094e-11 0)
(3 5.52531e-11 0)
(3 1.61755e-10 0)
(3 3.51468e-10 0)
(3 9.10727e-10 0)
(3 2.00539e-09 0)
(3 4.76191e-09 0)
(3 1.1136e-08 0)
(3 2.43126e-08 0)
(3 6.04458e-08 0)
(3 1.20881e-07 0)
(2.99999 3.25672e-07 0)
(2.99998 5.90188e-07 0)
(2.99996 1.70709e-06 0)
(2.99991 2.79773e-06 0)
(2.99977 8.90584e-06 0)
(2.99942 1.2578e-05 0)
(2.99856 4.57099e-05 0)
(2.99639 6.10601e-05 0)
(2.99097 0.000217435 0)
(2.97707 0.000350717 0)
(2.94027 0.000975088 0)
(2.83632 0.00202041 0)
(3 5.87872e-13 0)
(3 2.82866e-12 0)
(3 1.21912e-11 0)
(3 2.70514e-11 0)
(3 8.53998e-11 0)
(3 1.7161e-10 0)
(3 4.86734e-10 0)
(3 9.84301e-10 0)
(3 2.54368e-09 0)
(3 5.66275e-09 0)
(3 1.27717e-08 0)
(3 3.20432e-08 0)
(3 6.33447e-08 0)
(2.99999 1.78424e-07 0)
(2.99999 3.10179e-07 0)
(2.99996 9.84315e-07 0)
(2.99991 1.52674e-06 0)
(2.99977 5.33332e-06 0)
(2.99943 7.28514e-06 0)
(2.99856 2.89132e-05 0)
(2.99645 3.54579e-05 0)
(2.99101 0.000145645 0)
(2.97727 0.000214115 0)
(2.94064 0.000674515 0)
(2.83717 0.00139276 0)
(3 1.47397e-13 0)
(3 2.68209e-12 0)
(3 4.43514e-12 0)
(3 2.58855e-11 0)
(3 3.37543e-11 0)
(3 1.60357e-10 0)
(3 2.09741e-10 0)
(3 9.094e-10 0)
(3 1.30446e-09 0)
(3 4.96729e-09 0)
(3 8.01751e-09 0)
(3 2.59444e-08 0)
(3 5.25109e-08 0)
(2.99999 1.26644e-07 0)
(2.99999 3.42027e-07 0)
(2.99996 5.8985e-07 0)
(2.99991 2.2606e-06 0)
(2.99977 2.46909e-06 0)
(2.99944 1.46642e-05 0)
(2.99859 1.02728e-05 0)
(2.99649 8.57501e-05 0)
(2.99112 6.32607e-05 0)
(2.97751 0.00040058 0)
(2.94122 0.000586708 0)
(2.83868 0.00189721 0)
(3 9.06681e-14 0)
(3 2.06132e-12 0)
(3 3.15446e-12 0)
(3 2.02141e-11 0)
(3 2.34725e-11 0)
(3 1.33577e-10 0)
(3 1.40277e-10 0)
(3 8.24324e-10 0)
(3 8.8611e-10 0)
(3 4.79862e-09 0)
(3 5.97104e-09 0)
(3 2.69644e-08 0)
(3 4.05178e-08 0)
(2.99999 1.47076e-07 0)
(2.99999 2.83472e-07 0)
(2.99996 7.42747e-07 0)
(2.99991 1.90825e-06 0)
(2.99978 3.62042e-06 0)
(2.99944 1.23934e-05 0)
(2.99862 1.56398e-05 0)
(2.99649 7.70456e-05 0)
(2.99128 8.24546e-05 0)
(2.97771 0.000384851 0)
(2.94185 0.000629876 0)
(2.84042 0.001913 0)
(3 2.12188e-13 0)
(3 1.10231e-12 0)
(3 4.47497e-12 0)
(3 1.07249e-11 0)
(3 3.39853e-11 0)
(3 7.19414e-11 0)
(3 2.26986e-10 0)
(3 4.48029e-10 0)
(3 1.45503e-09 0)
(3 2.72623e-09 0)
(3 9.03583e-09 0)
(3 1.682e-08 0)
(3 5.46202e-08 0)
(2.99999 1.01972e-07 0)
(2.99999 3.2339e-07 0)
(2.99997 6.29269e-07 0)
(2.99991 1.80997e-06 0)
(2.99978 3.82839e-06 0)
(2.99945 9.81185e-06 0)
(2.99864 2.21171e-05 0)
(2.99655 5.17584e-05 0)
(2.99137 0.000125852 0)
(2.97797 0.00027903 0)
(2.94245 0.000683534 0)
(2.84199 0.00162744 0)
(3 2.60647e-13 0)
(3 1.73103e-13 0)
(3 4.50383e-12 0)
(3 1.66837e-12 0)
(3 3.4671e-11 0)
(3 1.61772e-11 0)
(3 2.32462e-10 0)
(3 1.34582e-10 0)
(3 1.4132e-09 0)
(3 1.17676e-09 0)
(3 8.04375e-09 0)
(3 9.38966e-09 0)
(3 4.36657e-08 0)
(2.99999 7.25867e-08 0)
(2.99999 2.15539e-07 0)
(2.99997 5.3887e-07 0)
(2.99991 1.01772e-06 0)
(2.99979 3.77675e-06 0)
(2.99946 4.11581e-06 0)
(2.99866 2.61097e-05 0)
(2.99658 1.57642e-05 0)
(2.99147 0.000145854 0)
(2.97817 0.000135146 0)
(2.94296 0.000633506 0)
(2.84323 0.00114449 0)
(3 6.9402e-14 0)
(3 4.26311e-13 0)
(3 1.61463e-12 0)
(3 4.43333e-12 0)
(3 1.11879e-11 0)
(3 3.78157e-11 0)
(3 5.86875e-11 0)
(3 2.95085e-10 0)
(3 2.77509e-10 0)
(3 2.12898e-09 0)
(3 1.44914e-09 0)
(3 1.4151e-08 0)
(3 6.93553e-09 0)
(2.99999 9.19472e-08 0)
(2.99999 3.4189e-08 0)
(2.99997 5.54119e-07 0)
(2.99992 2.19586e-07 0)
(2.99979 3.02986e-06 0)
(2.99947 1.88185e-06 0)
(2.99865 1.54529e-05 0)
(2.99664 1.42487e-05 0)
(2.99147 7.70138e-05 0)
(2.97837 0.000103093 0)
(2.94329 0.000360116 0)
(2.84405 0.000731682 0)
(3 -1.06297e-13 0)
(3 6.90063e-13 0)
(3 -1.15004e-12 0)
(3 6.76516e-12 0)
(3 -8.84149e-12 0)
(3 4.65066e-11 0)
(3 -6.17723e-11 0)
(3 2.94423e-10 0)
(3 -3.41634e-10 0)
(3 1.68297e-09 0)
(3 -1.4614e-09 0)
(3 8.83712e-09 0)
(3 -3.78404e-09 0)
(2.99999 4.06959e-08 0)
(2.99999 1.29413e-08 0)
(2.99997 1.60706e-07 0)
(2.99992 2.85082e-07 0)
(2.99979 2.01956e-07 0)
(2.99947 3.43464e-06 0)
(2.99867 -3.32203e-06 0)
(2.99663 2.58095e-05 0)
(2.99154 -1.93145e-05 0)
(2.97841 0.000107519 0)
(2.94345 2.16039e-05 0)
(2.84457 0.000338703 0)
(1.16524 1.01949 0)
(1.14819 0.72419 0)
(0.470783 0.49473 0)
(-0.469498 0.114606 0)
(-0.408525 -0.0147166 0)
(-0.631052 -0.0181526 0)
(-0.701812 -0.0211625 0)
(-0.743423 -0.00123771 0)
(-0.793303 0.0177992 0)
(-0.85729 0.0208244 0)
(-0.918224 0.0169485 0)
(-0.97126 0.0111421 0)
(-1.02159 0.00800698 0)
(-1.07317 0.0070577 0)
(-1.12439 0.00651071 0)
(-1.17164 0.00561951 0)
(-1.21328 0.00390209 0)
(-1.252 0.00186018 0)
(-1.29014 0.00170592 0)
(-1.31826 0.00375266 0)
(-1.33098 0.00361855 0)
(-1.33499 0.00208608 0)
(-1.32837 0.000112616 0)
(-1.30219 -0.00289596 0)
(-1.2539 -0.00697974 0)
(-1.18757 -0.0117685 0)
(-1.10977 -0.015957 0)
(-1.02683 -0.0189296 0)
(-0.942823 -0.0207802 0)
(-0.860058 -0.021775 0)
(-0.779586 -0.0222737 0)
(-0.702122 -0.0223559 0)
(-0.628576 -0.0221517 0)
(-0.559054 -0.0216678 0)
(-0.492907 -0.0213895 0)
(-0.429618 -0.0215771 0)
(-0.368606 -0.022309 0)
(-0.307985 -0.023934 0)
(-0.2499 -0.0249344 0)
(-0.193872 -0.0252528 0)
(-0.139994 -0.0254665 0)
(-0.0875631 -0.026054 0)
(-0.0375656 -0.0273783 0)
(0.0153945 -0.0294176 0)
(0.067387 -0.0265126 0)
(0.11235 -0.0240947 0)
(0.157093 -0.023047 0)
(0.199387 -0.0219877 0)
(0.239133 -0.0209443 0)
(0.276595 -0.0200138 0)
(0.314255 -0.0196084 0)
(0.352312 -0.0195017 0)
(0.389316 -0.0189174 0)
(0.424935 -0.0181618 0)
(0.459274 -0.0174281 0)
(0.492563 -0.0167204 0)
(0.524981 -0.016074 0)
(0.556565 -0.0154501 0)
(0.587374 -0.014859 0)
(0.617441 -0.0142799 0)
(0.646827 -0.0137271 0)
(0.675569 -0.0131931 0)
(0.70371 -0.0126829 0)
(0.731275 -0.0121917 0)
(0.758299 -0.0117197 0)
(0.78481 -0.0112658 0)
(0.810835 -0.0108291 0)
(0.836398 -0.0104101 0)
(0.861521 -0.0100066 0)
(0.886223 -0.00961917 0)
(0.910522 -0.00924493 0)
(0.934435 -0.00888492 0)
(0.957977 -0.00853502 0)
(0.98116 -0.00819658 0)
(1.004 -0.00786512 0)
(1.0265 -0.00754187 0)
(1.04867 -0.00722308 0)
(1.07051 -0.00690969 0)
(1.09204 -0.00659925 0)
(1.11324 -0.00629202 0)
(1.13413 -0.00598743 0)
(1.15471 -0.00568458 0)
(1.17496 -0.00538511 0)
(1.1949 -0.00508641 0)
(1.21453 -0.00479185 0)
(1.23384 -0.00449752 0)
(1.25284 -0.00420716 0)
(1.27151 -0.00391592 0)
(1.28985 -0.00362632 0)
(1.30784 -0.00333251 0)
(1.32546 -0.00303524 0)
(1.34266 -0.0027284 0)
(1.35938 -0.00240652 0)
(1.3755 -0.00206448 0)
(1.39089 -0.0016876 0)
(1.4053 -0.00125493 0)
(1.41836 -0.000777257 0)
(1.42961 -0.00022034 0)
(1.43807 0.000465733 0)
(1.44427 0.0012757 0)
(1.21794 0.927192 0)
(1.25115 0.625227 0)
(0.964819 0.476903 0)
(0.57576 0.38834 0)
(0.484223 0.294849 0)
(0.272076 0.208135 0)
(0.0711073 0.119856 0)