/*--------------------------------*- C++ -*----------------------------------*\
  =========                 |
  \\      /  F ield         | OpenFOAM: The Open Source CFD Toolbox
   \\    /   O peration     | Website:  https://openfoam.org
    \\  /    A nd           | Version:  13
     \\/     M anipulation  |
\*---------------------------------------------------------------------------*/
FoamFile
{
    format      ascii;
    class       volScalarField;
    location    "62";
    object      p;
}
// * * * * * * * * * * * * * * * * * * * * * * * * * * * * * * * * * * * * * //

dimensions      [0 2 -2 0 0 0 0];

internalField   nonuniform List<scalar> 
918
(
0.556626
1.18507
0.000727665
0.556061
-0.00938445
1.15209
-0.509293
0.670431
0.536819
-0.1114
-0.0462484
0.537377
1.01262
0.778403
-1.12451
-0.0105851
0.651493
-0.381923
0.535923
-0.0563717
0.697373
0.543364
0.54639
0.536969
0.599155
0.754254
0.893464
0.0220784
0.0114186
0.00491957
-0.0144805
-0.0362966
-0.0310192
1.03576
1.08682
1.1095
0.504632
0.332415
-0.37453
-0.446851
-0.435609
-0.547018
0.66643
0.664569
-0.208087
0.673907
0.676972
0.523863
0.536187
0.537098
0.538125
0.537105
0.538487
0.40391
-0.112307
-0.143785
-0.0925905
-0.0843628
0.0534662
-0.0477063
-0.0496509
-0.044636
-0.0442739
0.453852
0.53189
0.528703
0.542358
0.553036
1.12462
1.09656
1.12269
1.03627
1.05282
0.990637
0.963267
0.799368
0.820881
0.762795
0.751204
-1.55658
-2.50882
-0.534322
-0.283578
-0.0153553
-0.0083617
-0.00274064
0.648234
0.649214
0.651025
0.653994
1.08006
-0.379056
-0.479992
0.536063
0.534872
0.543198
0.543898
0.539917
0.539008
-0.0476508
-0.0445595
-0.0474738
-0.0528746
-0.0515247
0.686094
0.686561
0.537499
0.534504
0.560261
0.580471
0.570875
0.278027
0.608089
0.623999
0.584606
0.748114
0.740652
0.750188
0.867026
0.830134
0.930757
0.953981
0.0172408
-0.00111753
-0.0154943
-0.0192464
-0.0179489
0.500469
0.493019
0.52036
0.508061
0.510563
0.249004
0.11546
0.417469
0.442405
-0.292944
-0.358345
-0.429752
-0.459625
-0.567636
0.611428
0.661512
0.659247
-0.219209
-0.147153
-0.279723
-0.0739522
-0.136647
0.514137
0.521144
0.516146
0.531689
0.526158
0.52812
0.540455
0.537527
0.539086
0.466203
0.589937
0.330006
0.294647
-0.244354
-0.15869
-0.244874
-0.0725313
-0.0675707
0.0674536
0.0929366
0.0404332
0.0286659
-0.0612491
-0.0528377
-0.0569993
-0.0433191
-0.0440791
0.446623
0.43545
0.466537
0.474088
0.518965
0.520429
0.525069
0.522937
0.914155
0.936428
0.943977
0.917858
-3.49926
-6.28249
0.041458
0.178126
-0.00651275
-0.0107888
0.00465288
-0.010386
-0.00313787
-0.00440629
-0.00681878
-0.00797426
-0.00315677
-0.00149549
0.642049
0.643074
1.00199
1.00848
0.977973
0.930718
0.52427
0.526344
0.531846
0.527726
-0.0431426
-0.0437776
-0.0424951
0.680068
0.684798
0.682881
0.239683
0.150278
0.328934
0.35796
0.6356
0.624426
0.634155
0.644531
0.680275
0.961343
0.979514
0.977843
0.986215
1.03033
1.0468
1.012
0.479917
0.4899
0.484847
0.523461
0.521239
0.522139
0.518
0.51929
0.517268
-0.0351272
-0.415343
0.490003
0.507064
0.491983
0.494722
0.691607
0.770228
0.65394
0.656887
0.656074
-0.00525346
-0.0636281
0.250016
0.216098
0.386297
0.422631
0.401638
0.885207
0.845854
0.895847
0.869272
0.830692
0.856395
-0.366881
-1.86742
-0.985941
0.527544
0.341901
0.428784
0.0105792
-0.00625796
-0.00173697
1.00131
1.07391
0.645773
0.820556
0.823403
0.717943
0.748479
0.803098
0.728955
0.763551
0.798353
0.780201
0.567512
0.503159
0.519108
0.839443
0.895228
0.120547
0.0596444
0.0156393
0.111682
0.168939
0.143022
1.03415
0.949131
1.01943
0.534263
0.534982
-0.00415154
-0.0181068
0.539217
0.539272
-0.0163493
-0.00363711
0.412332
-0.832423
0.101181
0.52779
0.517723
0.534835
-0.0949005
0.35538
-0.0474375
0.0486341
-0.00697025
0.530625
0.464975
0.424109
0.000310493
-0.0192274
-0.0479021
-0.214238
0.531934
0.530239
0.534303
0.535248
0.535927
-0.0181089
-0.0132057
-0.00984387
-0.0452598
-0.0396159
-0.0503226
0.4988
0.517843
-0.170177
0.53445
0.536582
0.536402
0.529656
0.535289
0.533539
-0.0105681
-0.0167394
-0.0181427
0.220482
0.351518
0.652164
0.740056
0.623127
0.399379
0.164384
0.555546
0.618972
0.52449
0.678334
0.657588
0.671101
0.166778
0.0165735
0.175194
0.116736
0.52565
0.524362
0.515978
0.512946
0.529703
0.527815
0.532375
0.529392
0.532343
0.533726
-0.0512274
-0.0785588
-0.088093
-0.156506
0.310124
0.571587
0.253578
0.283653
0.141945
-0.0414918
-0.0412341
-0.0459152
-0.0526732
0.00146665
-0.0221703
0.0435772
0.0440792
0.0163994
-0.0094549
-0.00639404
-0.0172597
-0.0129123
0.524377
0.52409
0.527636
0.536287
0.474612
0.478386
0.443265
0.46401
0.449286
0.388116
0.423313
0.398574
-0.00764566
0.00229719
-0.00493042
-0.016707
-0.0126688
-0.0324609
-0.0289805
-0.0250841
-0.0208059
-0.0273752
-0.0424151
-0.0443027
-0.171973
-0.287306
0.988515
0.910123
0.136381
0.521087
0.52754
0.524303
0.529215
0.532342
0.533147
0.53086
0.527411
0.518158
0.519668
0.516547
0.517508
-0.101869
-0.242616
-0.0707701
-0.144414
0.144012
0.626898
0.363413
0.299312
0.294434
0.522468
0.917117
0.701228
0.675567
0.683103
-0.342943
0.0465932
-0.279209
0.33634
0.163498
0.651736
0.701163
0.723518
0.67093
0.623768
-0.102838
0.555354
-0.0710343
-0.0193834
0.181671
0.0589536
0.66872
0.644184
0.649235
0.663198
0.678989
0.649314
0.635402
0.630844
0.658067
0.65994
0.486315
0.251291
0.202559
0.164019
0.641684
0.520863
0.573254
0.491889
0.520865
0.523458
0.522097
0.503628
0.511206
0.506732
0.513298
0.516805
0.525419
0.525879
0.521165
0.523297
-0.0574727
-0.0621135
-0.0298323
-0.137163
-0.130939
-0.193125
-0.062561
0.0755498
0.036276
0.237048
0.341422
0.052485
-0.0582495
-0.0308754
0.0113557
0.180027
0.207697
0.074114
0.162116
0.152537
0.134512
0.236883
0.240631
-0.0263625
-0.0296435
-0.0333342
-0.0351489
0.0195408
0.0901245
0.0998271
-0.00439799
-0.0104873
-0.0393136
-0.0402671
-0.0218167
-0.0270815
-0.0226686
0.00797869
-0.0523093
-0.0194394
-0.00531223
-0.0013991
-0.00352374
-0.00903769
0.517711
0.520177
0.519848
0.525933
0.540382
0.555148
0.519476
0.496802
0.487593
0.490609
0.463475
0.473818
0.469479
0.483192
0.504313
0.513855
0.511427
0.51427
0.496451
0.498231
0.484718
0.488414
0.463253
0.444087
0.432216
-0.0421088
-0.00374386
-0.0112813
-0.0378739
-0.00865842
-0.0205376
-0.00896405
0.00941529
-0.00662858
-0.00803779
-0.017983
-0.0250581
-0.0244363
-0.0738397
0.0126549
-0.184006
-0.219833
-0.292422
0.890522
1.01459
0.81023
0.583336
0.603248
0.846363
0.931042
0.543341
0.735599
0.75881
0.586283
0.853812
0.525927
0.525528
0.523128
0.522609
0.523826
-0.00713202
0.0985549
0.0980662
0.160423
0.275813
0.387625
0.318121
0.193566
0.323891
0.326401
0.620106
0.632048
0.587264
0.611004
0.611416
0.425234
0.50078
0.552833
0.512278
0.564767
0.586014
0.54026
0.572926
0.523058
0.478127
0.474076
0.424423
0.444042
0.419933
0.402976
0.514706
0.492775
0.503101
0.493759
0.513162
0.540981
0.537574
0.56163
0.576438
0.497587
0.452615
0.462007
0.492245
0.453289
0.468599
0.485069
0.230991
0.132728
0.215794
-0.0703416
0.00183202
-0.0111265
-0.0595829
-0.00901466
0.275445
-0.41642
-0.392635
-1.02038
0.501899
0.953212
0.606301
0.579577
0.677459
0.660382
0.665771
0.682155
0.684267
0.630182
0.640793
0.645337
0.604418
0.625901
0.644854
0.641413
0.524683
0.384782
0.382963
0.332098
0.202265
0.24163
0.438883
0.362556
0.287467
0.287857
0.457259
0.344087
0.413744
0.447869
0.379377
0.333825
0.536585
0.601974
0.595341
0.569096
0.481721
0.494702
0.518628
0.552717
0.577538
0.607941
0.51271
0.518635
0.519866
0.517343
0.514623
0.517685
0.517933
0.52048
0.521121
0.524115
0.523164
-0.0475664
-0.0348966
-0.0484189
-0.0571629
-0.0204743
-0.0228595
0.0216929
0.00636887
-0.0138062
-0.0084044
-0.0322093
-0.0366591
-0.0325127
-0.0239231
0.099864
0.112652
0.0963872
0.0566112
0.250653
0.380128
0.454637
0.329896
0.223196
0.246246
0.265983
-0.0124207
0.013547
0.000516499
0.0400384
0.0320286
-0.0344019
-0.0380445
-0.0355249
-0.0285436
-0.0191535
-0.035787
-0.0398819
-0.0308058
-0.0358769
-0.0386826
-0.0427809
0.499063
0.492519
0.494232
0.488028
0.486745
0.501202
0.505472
0.507445
0.512985
0.51543
0.50528
0.511044
0.515081
-0.0100394
-0.0331155
-0.036889
-0.0263501
-0.0290668
-0.0270273
-0.0283654
0.123179
0.0536071
0.057949
0.00993378
-0.121688
-0.0638502
0.490859
0.48963
0.479174
0.72046
0.569762
0.490274
0.587262
0.693014
0.275643
0.472475
0.307397
0.888135
0.784407
0.930817
0.541987
0.244363
0.406793
0.450751
0.263233
0.338498
0.325362
0.214444
0.245285
0.282418
0.381564
0.264458
0.240998
-0.00201885
0.188336
0.300651
0.282478
0.407263
0.468083
0.265321
0.184776
0.140023
0.604882
0.624391
0.638164
0.610601
0.631583
0.579127
0.570649
0.586526
0.594857
0.589272
-0.748579
-0.455188
-1.40144
-0.722936
-0.268496
0.532259
0.502779
0.76864
0.646661
0.686477
0.671707
0.63058
0.599794
0.622247
0.646333
0.343484
0.454345
0.429587
0.434917
0.337099
0.267768
0.565693
0.562048
0.594372
0.617544
0.590079
0.619256
0.510543
0.510267
0.509719
0.505964
0.504237
0.506611
0.0573257
0.0251961
0.0632382
0.0443353
0.021086
0.00836641
-0.00706389
-0.0170106
-0.0242669
-0.0241757
-0.0102189
-0.00617597
0.170764
0.108691
0.028957
0.0583727
-0.00237109
-0.0711653
-0.0898961
0.0149197
0.111247
0.101405
0.405025
0.654812
0.474792
0.642302
0.484706
0.540489
0.467722
0.459113
0.484247
0.37878
0.459302
0.245181
-0.262207
-0.171269
0.792085
0.80398
0.580408
0.40388
0.172385
0.352118
0.542849
0.473799
0.509671
0.57878
0.566618
0.0255108
0.0845596
0.367238
0.594165
0.238629
0.229805
0.223453
0.40616
0.325335
)
;

boundaryField
{
    wall-4
    {
        type            zeroGradient;
    }
    velocity-inlet-5
    {
        type            zeroGradient;
    }
    velocity-inlet-6
    {
        type            zeroGradient;
    }
    pressure-outlet-7
    {
        type            fixedValue;
        value           uniform 0;
    }
    wall-8
    {
        type            zeroGradient;
    }
    frontAndBackPlanes
    {
        type            empty;
    }
}


// ************************************************************************* //
