/*--------------------------------*- C++ -*----------------------------------*\
  =========                 |
  \\      /  F ield         | OpenFOAM: The Open Source CFD Toolbox
   \\    /   O peration     | Website:  https://openfoam.org
    \\  /    A nd           | Version:  13
     \\/     M anipulation  |
\*---------------------------------------------------------------------------*/
FoamFile
{
    format      ascii;
    class       surfaceScalarField;
    location    "62";
    object      phi;
}
// * * * * * * * * * * * * * * * * * * * * * * * * * * * * * * * * * * * * * //

dimensions      [0 3 -1 0 0 0 0];

internalField   nonuniform List<scalar> 
1300
(
3.75095
5.62643
-3.32961
3.75095
-7.72136
5.62643
-4.38235
4.38235
-0.459163
0.459163
1.87639
1.87456
-2.6906
2.6906
-2.17315
2.17315
-2.52996
2.52996
-5.24644
5.24644
-5.06926
5.06926
4.6559
-4.6559
-6.29895
6.29895
-0.954413
0.954413
-3.67049
3.67049
3.16963
-3.16963
-2.11816
2.11816
-0.0130937
0.0130937
-0.553479
4.30443
3.19747
3.19747
-2.01333
2.01333
-4.86769
4.86769
6.218
-6.218
5.31945
-5.31945
-1.98984
-2.4427
1.78993
-11.521
-5.93143
-5.93143
-8.44037
8.44037
-2.81394
2.81249
2.94596
-2.94596
-1.77461
1.77461
-4.34088
-0.041469
-4.34088
4.35407
0.0282812
4.35407
-0.527158
0.0679949
-0.527158
3.97803
-3.97803
0.374159
0.0850037
0.374159
3.06529
-3.06529
-1.87711
3.7535
1.87384
-1.87189
6.17632
-1.87906
3.75362
-6.01635
6.01635
-2.92148
0.23088
-2.92148
2.50017
0.190434
2.50017
-6.84494
6.84494
-2.20663
0.0334758
-2.20663
2.14342
0.0297314
2.14342
2.87992
-2.87992
-2.64108
0.111112
-2.64108
2.39609
0.133877
2.39609
0.353513
5.27292
-5.97994
8.79243
-5.27292
0.0264744
5.2083
0.0381376
5.2083
-5.10605
0.0367903
-5.10605
5.01242
0.0568465
5.01242
4.7422
-0.0862991
4.7422
-4.774
0.118095
-4.774
-3.38457
-4.05406
-6.45125
0.152297
-6.45125
-1.04197
0.0875609
-1.04197
0.842687
0.111726
0.842687
-3.68328
3.68328
-4.09501
0.424513
-4.09501
3.12401
0.0456227
3.12401
1.86849
1.88246
5.61945
-5.61945
2.44981
-2.09503
-0.0231288
-2.09503
-2.17237
-3.14708
2.17237
-0.054212
-0.244957
0.231863
-0.244957
3.15942
0.0380576
3.15942
2.23769
0.1584
-2.23769
0.224355
3.27079
-3.27079
1.33979
0.673545
1.33979
-5.56408
5.56408
4.95603
0.0563912
-4.95603
0.0883326
6.15684
0.0611612
6.15684
-6.19956
-0.0184405
-6.19956
2.53396
-4.97666
-2.61141
6.11552
0.183428
-6.11552
0.184092
2.9177
0.0282596
2.9177
-2.91975
2.91975
-2.98454
0.0385806
-2.98454
-2.17362
0.399007
-2.17362
1.4758
0.298815
1.4758
-4.23874
-0.10214
-4.23874
-4.24515
0.150143
4.24515
0.108921
1.12781
-1.12781
-0.636637
0.109479
-0.636637
-4.10196
-0.136782
4.10196
-0.123929
-3.86859
-0.109444
-3.86859
-3.02442
0.0398852
3.02442
0.0408725
3.11285
0.0465682
-3.11285
0.047555
-1.87082
3.75328
-1.88013
3.75397
-5.63581
-0.38054
-5.63581
6.32685
-0.310505
6.32685
3.31062
0.359879
-3.31062
0.389133
2.36287
0.137297
2.36287
-6.80886
-0.0360746
-6.80886
6.82834
0.0165918
6.82834
2.26788
0.0949877
-2.26788
0.0612528
2.11025
0.0331691
2.11025
2.89943
-0.0195145
2.89943
-2.87443
-0.00548575
-2.87443
2.79684
-2.79684
2.724
0.0728397
-2.724
0.0829233
-11.133
11.1146
-0.035184
-11.0979
5.17312
5.17312
4.16989
0.572314
4.16989
-4.99216
0.218159
-4.99216
2.67678
-5.28819
3.06086
-6.44543
4.66914
-16.1902
4.30796
-8.36202
6.69308
-6.69308
6.58136
0.111714
-6.58136
0.130115
-1.15595
0.113979
-1.15595
-3.08034
-0.602936
-3.08034
4.32671
-0.643434
4.32671
-3.02822
3.02822
-3.0775
0.0492809
3.0775
0.046507
2.09161
0.0186425
-2.09161
-0.00341812
0.308323
0.0658366
-0.308323
0.0633657
3.48096
-0.210172
3.48096
-3.07425
-0.196536
-3.07425
-1.25239
0.0964372
1.25239
0.0873971
-5.81359
0.249509
-5.81359
-11.1908
0.0929565
-11.1527
-6.1066
-6.1066
2.33377
11.1262
-2.89275
0.0183216
2.89275
0.0249413
2.97518
0.0530381
-2.97518
0.0554378
-2.86067
0.0638343
2.86067
0.059074
-2.54872
0.375098
-2.54872
-1.07296
1.07296
-1.23944
0.166477
1.23944
0.236359
1.39902
-0.271204
1.39902
0.739964
0.102723
-0.739964
0.103327
-3.77173
-0.0968618
-3.77173
6.56103
-0.234179
6.56103
-2.96063
-0.113619
2.96063
-0.0612003
-0.0333409
11.1479
-5.13978
0.0337252
5.13978
-11.2091
11.2428
-3.2198
0.671083
3.2198
0.95009
5.28521
0.278873
-5.28521
0.293052
6.77761
0.0507299
-6.77761
0.0845372
-2.5877
-0.492642
-2.5877
-5.05311
-0.582695
5.05311
-0.726402
-11.4743
-0.20538
11.6797
-11.4175
6.01897
0.137862
-6.01897
11.3807
-1.02985
-0.0979657
1.02985
0.043115
1.72619
-0.327175
1.72619
3.67343
-0.192467
-3.67343
-0.0982992
-6.71384
-0.0950215
6.71384
-0.152808
-2.14297
-0.444725
2.14297
-0.416781
-4.2671
4.30516
1.90922
-2.39098
-2.58568
-5.53805
1.85187
1.90141
4.30168
-10.1608
-6.02938
-9.9767
7.26258
-6.96953
-9.24634
9.16004
7.8578
-7.96724
-5.78492
5.83143
6.48279
-6.44192
1.8788
1.87471
7.99312
-7.76224
-15.6142
15.2337
7.50518
-7.47171
15.7705
-15.8065
-17.8528
17.9036
-5.69585
5.80697
-6.73833
6.73285
-6.97219
6.91099
-2.83469
-3.61075
13.1224
-12.9701
8.5414
-8.56453
-8.6017
9.02621
3.38257
0.922583
3.42914
-1.88217
3.76097
-1.87145
3.78068
2.7059
-5.54058
2.58229
-5.16797
4.32913
4.21227
-4.27492
-1.26314
-5.92415
5.95241
-5.81495
5.87403
9.11851
-9.15998
-1.88515
3.75986
-1.86882
3.77024
-3.42502
-2.3599
3.3794
0.922279
8.0762
5.04622
-8.25963
-1.71707
-8.02566
7.83319
-8.22375
8.02722
-0.435547
5.81883
-5.38328
4.43215
-1.56278
7.38161
5.69981
5.91796
5.86593
-5.58705
1.10361
-6.48689
-6.39856
-2.33497
2.44445
2.21989
-2.13488
6.11611
1.74169
5.99218
-5.74438
-2.22286
-5.84124
3.8207
2.01072
3.86999
4.07824
2.40455
4.11812
3.03052
-3.0359
0.0053761
-3.05658
6.0871
0.723957
-5.41647
-4.49419
4.97091
3.0222
5.16135
-5.54369
-2.21854
-5.15456
-9.54189
-6.07235
-10.1246
10.0878
5.14589
9.7773
-11.9616
11.8088
4.79043
2.71475
4.82016
-4.91782
-2.55389
-4.85656
11.6422
-2.62431
-9.01787
-10.3209
-7.53192
10.3043
5.46612
10.9645
6.93905
11.0491
4.42522
7.21695
-9.89134
2.35942
-3.86293
-1.83293
-3.78
3.66352
2.14344
3.7974
-4.21688
-2.52145
-4.19856
-4.29472
-2.67747
4.31424
2.41861
-4.41528
-3.80847
4.5289
2.38209
4.03923
-10.0686
4.32279
-7.93354
-9.20048
-3.76965
-9.07036
3.50265
2.60641
-6.10906
-2.03793
8.46904
-4.25677
7.20591
-5.17109
-3.39344
-5.17451
-6.87429
-1.72741
-6.72415
-8.88007
8.38743
-9.17734
8.53391
12.5305
-5.65443
-6.87611
-3.9684
-2.47351
3.92085
-0.491706
-3.71057
3.71595
0.0503994
3.83108
4.75366
4.26195
-3.88475
-1.9302
-3.82931
3.82578
2.04825
3.88962
6.8307
2.28781
6.85898
-6.59088
-2.5691
-6.69302
9.04327
-8.64426
2.84667
-2.75023
5.38908
2.63814
-5.17891
-2.84675
6.21391
-3.21674
-2.99717
-12.199
10.5316
1.66743
-4.81741
-0.385265
-0.372171
-5.48982
-3.75652
5.37173
0.546237
11.0778
7.32131
-5.51214
5.76165
6.16757
6.22396
-0.174598
5.81043
-5.13935
5.26643
-2.56872
-2.69771
5.45163
-5.58841
-1.24139
-5.49852
4.25713
0.403775
1.53276
-1.3009
-1.82213
-0.512839
-1.7188
1.31717
0.902717
1.38301
0.934375
1.51007
-2.95495
0.556813
2.39814
-2.02058
-1.57807
-3.78759
-1.13808
4.92567
5.72308
2.11011
-5.62478
-0.216463
2.56423
-2.45251
-0.756479
-3.03111
2.2409
-2.99738
-3.67359
-2.04838
5.72196
-3.3699
-0.459408
3.31687
0.553119
-3.82699
-2.09715
3.78841
0.329709
-3.12751
6.19056
-3.06305
-5.05771
2.52776
3.55934
4.53848
-4.78954
2.44743
2.34211
-1.23019
4.24514
0.916204
4.38244
-6.92952
4.71098
5.79263
3.23358
-6.15251
0.997948
-5.93157
8.54099
-7.36987
-1.17111
4.1404
4.40059
7.07318
5.45736
-5.67685
12.75
-1.20184
-6.16803
7.13342
-3.89984
4.8488
-8.74864
-10.3062
4.13813
-9.14802
10.9267
-1.77868
-3.6246
-8.33697
12.7726
-1.20615
-11.5665
8.57115
-4.24789
-4.32957
8.57745
-6.87219
6.88345
-1.9912
-4.89225
-10.1078
-5.69869
10.2029
1.6059
-9.89288
12.2523
-2.67593
4.10391
0.716248
4.13708
3.29099
-5.47495
2.18396
3.5812
-5.57241
2.08512
-7.56007
-6.73369
12.0666
-5.3329
-10.5033
-9.52117
-0.982165
2.53501
9.71729
-9.47406
7.43076
2.0433
3.30114
0.588476
-3.37398
-0.406025
0.240669
4.52662
-4.76729
4.03807
4.19647
3.28465
1.24197
3.84488
2.10752
-3.86982
-0.328734
-4.16262
1.48515
-1.74401
-3.69301
5.17816
-4.06658
0.373567
-2.74798
-3.49936
6.24734
-4.58091
3.03599
3.15457
5.08424
-4.91322
1.41385
-2.39309
-2.52012
2.65272
-4.39673
1.99028
3.18788
4.37237
0.563896
5.87491
6.19167
-8.48133
0.547784
11.2379
-9.52082
2.46671
8.58235
-9.89747
0.3763
-8.69406
0.993559
-5.25033
-5.1155
5.18932
-6.91672
-3.55932
6.20749
0.651492
-6.31641
-0.407737
-6.03512
-2.84495
-6.47985
-3.04479
-6.13256
-8.72164
-1.65194
-7.0697
6.73549
-6.68218
-3.4424
7.40858
1.12533
-7.41057
7.31261
-7.48884
7.16167
0.0953283
3.62062
4.35728
1.88377
-2.39042
4.27419
-5.11686
7.40467
-8.69915
3.58228
4.17977
-6.74887
-4.51938
5.02387
4.0194
5.32269
8.88985
-10.3626
1.47276
-10.6621
11.9948
-1.33267
-16.4247
5.76253
-7.53481
2.45798
0.388688
2.57196
0.550196
2.49945
-3.04965
-2.20003
-2.11264
-2.42897
-3.46512
5.89409
1.10483
-3.51899
2.41417
-3.57057
4.6754
-0.196244
-3.32275
5.28156
-2.78211
5.67024
-3.76681
1.90343
3.4318
5.75172
-2.31991
4.39403
-1.75589
1.91784
-4.23775
-1.54728
-2.9635
5.10695
-3.28384
3.65741
-0.339657
3.99707
-4.05666
0.839925
-0.77201
3.42446
3.64881
4.31188
-3.06991
2.92304
-4.67893
-1.31471
-4.11504
-0.927154
-0.266177
-3.70933
3.9755
5.98837
-6.25454
-5.23688
9.53159
-4.29471
7.69561
-5.3838
-2.31181
-4.25481
-4.38946
3.87971
1.93073
9.62634
0.209335
-5.59314
-4.93002
-3.97993
3.1217
2.14473
-1.78177
3.4492
2.15394
-0.621179
0.446758
0.936248
1.78843
-1.34167
0.301282
1.48714
-0.999613
1.77076
0.793476
-1.87348
0.154676
-1.30494
3.54585
1.0932
-1.99591
0.654246
0.986918
-3.55564
5.02028
-2.65998
-2.3603
6.0072
1.14106
-3.80104
4.35746
-3.95368
2.37607
-3.51414
-1.42498
-5.37866
-3.63697
-2.52802
4.94218
-3.36607
5.47618
1.2686
-5.25972
6.52832
-3.71816
1.66978
-3.06768
3.86115
-0.957236
-2.11044
2.89827
2.82369
-3.05308
0.0219694
-0.154811
2.40417
-2.55898
-0.593218
-2.6138
-4.57322
4.90293
-2.10552
4.55295
2.16867
-1.91659
6.46954
1.80923
-3.72582
-3.24848
-3.70788
-1.38371
3.15477
-0.600284
-4.25628
-5.49253
4.16129
0.221148
-7.03283
7.84247
-0.809643
-4.01062
-0.700352
4.84075
-6.05679
0.484382
-3.97167
3.8708
4.787
5.00815
-11.3497
-0.216807
-6.20377
1.12385
-7.32762
5.52444
-3.54208
7.68021
-10.3333
6.89087
-9.20795
6.5091
-0.818523
6.25219
-4.06823
2.76568
-8.46437
-6.85847
5.48536
-2.77061
6.20161
-3.13091
9.33253
-5.80684
5.27152
4.06101
-1.01325
-4.16126
-5.26598
4.25273
0.00553423
4.14261
4.97978
-2.87225
4.65104
2.26714
-4.66024
-2.12959
-6.49458
1.83434
-3.34001
-1.92027
3.75461
3.16397
3.75245
1.23449
-3.34642
7.185
-8.16716
-1.8521
-3.2634
5.25088
-0.998148
3.39289
-6.65629
-1.85744
4.80206
-0.784169
-4.01789
0.852376
-4.41169
1.67012
-6.08181
5.24661
-5.65434
2.2219
-9.75671
-5.18867
-5.14555
-2.25883
-5.23002
-7.57391
5.31509
-1.81138
5.50122
-8.51183
7.72766
-3.48297
8.79806
-5.4292
-1.05065
5.84598
1.31569
10.1137
0.20863
-4.72801
-1.90915
3.86485
-1.9557
1.21255
-3.5007
0.364151
2.48864
3.51856
-6.74577
-0.00310344
-4.73111
-3.91783
7.93722
5.61376
11.6021
1.23951
9.11936
-1.18213
10.3589
4.14056
4.37691
-2.99368
4.46644
0.98182
4.56411
-0.916566
2.82
1.65539
1.74295
0.709556
2.30433
1.34449
3.14425
0.0946042
-2.01803
4.62314
-8.60307
-0.969993
-8.03076
1.12928
5.71037
-4.58108
2.97618
-0.831456
1.02049
-0.0694047
-1.30868
1.37808
-2.76712
-1.92986
-0.442711
-1.68225
2.3365
1.8636
-1.89378
-0.873333
0.359309
-3.99628
3.15483
-3.13287
-0.309171
6.21914
-2.81838
0.259408
-1.1486
-2.35439
-2.86723
2.71255
6.17602
0.29352
3.11297
5.19645
3.0993
0.227046
3.8975
-5.67617
-3.66257
-5.89298
-0.368542
4.47221
1.75055
7.96674
5.81156
4.81341
-1.84288
-10.01
6.52407
-2.05762
5.1914
-1.17351
-4.9083
5.04237
2.3623
-5.69386
0.0395168
-4.86879
-6.92641
-0.513649
8.24131
-9.6001
8.54945
5.7045
1.3652
-4.40645
-0.7391
4.23998
0.136938
10.4958
-1.1281
-6.73605
7.86415
-4.58226
3.61227
0.762728
2.68647
2.14081
1.30935
-5.42669
-10.0078
-2.034
-1.52164
-4.39429
0.531375
-2.39497
6.22629
-2.61402
3.91448
5.25014
6.27062
-2.13559
-4.11895
6.4303
-2.51582
3.7548
)
;

boundaryField
{
    wall-4
    {
        type            calculated;
        value           uniform 0;
    }
    velocity-inlet-5
    {
        type            calculated;
        value           uniform -3.75095;
    }
    velocity-inlet-6
    {
        type            calculated;
        value           uniform -5.62643;
    }
    pressure-outlet-7
    {
        type            calculated;
        value           nonuniform List<scalar> 8(3.32961 7.72136 4.43254 9.7311 7.43863 5.14537 5.73764 8.97711);
    }
    wall-8
    {
        type            calculated;
        value           uniform 0;
    }
    frontAndBackPlanes
    {
        type            empty;
    }
}


// ************************************************************************* //
