/*--------------------------------*- C++ -*----------------------------------*\
  =========                 |
  \\      /  F ield         | OpenFOAM: The Open Source CFD Toolbox
   \\    /   O peration     | Website:  https://openfoam.org
    \\  /    A nd           | Version:  13
     \\/     M anipulation  |
\*---------------------------------------------------------------------------*/
FoamFile
{
    format      ascii;
    class       volScalarField;
    location    "3.775";
    object      T;
}
// * * * * * * * * * * * * * * * * * * * * * * * * * * * * * * * * * * * * * //

dimensions      [0 0 0 1 0 0 0];

internalField   nonuniform List<scalar> 
1000
(
1.25347e-58
1.66413e-58
2.61797e-58
4.42219e-58
7.65606e-58
1.33541e-57
2.33319e-57
4.07558e-57
7.11319e-57
1.2402e-56
2.15993e-56
3.75753e-56
6.52942e-56
1.13333e-55
1.96492e-55
3.40285e-55
5.88638e-55
1.01709e-54
1.75542e-54
3.02627e-54
5.21122e-54
8.96353e-54
1.54001e-53
2.64286e-53
4.53033e-53
7.75695e-53
1.32665e-52
2.26635e-52
3.86724e-52
6.59142e-52
1.12218e-51
1.9083e-51
3.24141e-51
5.49952e-51
9.32005e-51
1.57766e-50
2.66754e-50
4.50516e-50
7.59995e-50
1.2806e-49
2.15533e-49
3.62341e-49
6.08443e-49
1.02052e-48
1.70972e-48
2.86106e-48
4.7822e-48
7.98413e-48
1.33145e-47
2.2178e-47
3.68992e-47
6.1321e-47
1.01788e-46
1.68766e-46
2.79492e-46
4.62327e-46
7.6388e-46
1.26066e-45
2.0781e-45
3.4216e-45
5.62715e-45
9.24362e-45
1.51667e-44
2.48561e-44
4.06883e-44
6.65274e-44
1.08649e-43
1.77232e-43
2.8877e-43
4.69954e-43
7.63926e-43
1.24034e-42
2.01149e-42
3.25829e-42
5.27173e-42
8.51936e-42
1.37515e-41
2.21711e-41
3.57036e-41
5.74285e-41
9.22641e-41
1.48057e-40
2.37308e-40
3.79913e-40
6.075e-40
9.70278e-40
1.54787e-39
2.46638e-39
3.92531e-39
6.23986e-39
9.90748e-39
1.57122e-38
2.48885e-38
3.93774e-38
6.22274e-38
9.82202e-38
1.54848e-37
2.43835e-37
3.83506e-37
6.02466e-37
9.45316e-37
1.48152e-36
2.3191e-36
3.6259e-36
5.66234e-36
8.832e-36
1.37596e-35
2.14109e-35
3.32771e-35
5.16582e-35
8.00967e-35
1.24043e-34
1.91871e-34
2.96435e-34
4.57436e-34
7.05037e-34
1.08536e-33
1.66884e-33
2.56293e-33
3.93133e-33
6.0231e-33
9.2168e-33
1.4087e-32
2.15049e-32
3.27894e-32
4.99353e-32
7.59556e-32
1.15396e-31
1.75105e-31
2.65389e-31
4.01739e-31
6.07411e-31
9.17271e-31
1.38353e-30
2.08428e-30
3.13617e-30
4.71322e-30
7.07476e-30
1.06067e-29
1.58827e-29
2.37543e-29
3.54842e-29
5.29423e-29
7.88939e-29
1.17424e-28
1.7456e-28
2.59183e-28
3.84363e-28
5.69309e-28
8.42224e-28
1.24445e-27
1.83655e-27
2.70706e-27
3.98534e-27
5.86009e-27
8.60626e-27
1.26239e-26
1.84947e-26
2.70625e-26
3.95513e-26
5.77329e-26
8.41696e-26
1.22562e-25
1.7825e-25
2.58922e-25
3.75646e-25
5.44323e-25
7.87777e-25
1.13872e-24
1.644e-24
2.37057e-24
3.41406e-24
4.91087e-24
7.05524e-24
1.01235e-23
1.45084e-23
2.0767e-23
2.9689e-23
4.23918e-23
6.04554e-23
8.61101e-23
1.22501e-22
1.74056e-22
2.47004e-22
3.50094e-22
4.95598e-22
7.00712e-22
9.89495e-22
1.39557e-21
1.96587e-21
2.76581e-21
3.88644e-21
5.45439e-21
7.64545e-21
1.07034e-20
1.4966e-20
2.09003e-20
2.91515e-20
4.06099e-20
5.65022e-20
7.85165e-20
1.08973e-19
1.51056e-19
2.09131e-19
2.89174e-19
3.99358e-19
5.5084e-19
7.5884e-19
1.04408e-18
1.43477e-18
1.96919e-18
2.69932e-18
3.69556e-18
5.05319e-18
6.90099e-18
9.41275e-18
1.28227e-17
1.74464e-17
2.37076e-17
3.21758e-17
4.36143e-17
5.90456e-17
7.98371e-17
1.07815e-16
1.45416e-16
1.95887e-16
2.63544e-16
3.54128e-16
4.75253e-16
6.3701e-16
8.52757e-16
1.14015e-15
1.52249e-15
2.0305e-15
2.70464e-15
3.5981e-15
4.78071e-15
6.34406e-15
8.40813e-15
1.11298e-14
1.4714e-14
1.94281e-14
2.56204e-14
3.37439e-14
4.43876e-14
5.83154e-14
7.65173e-14
1.00275e-13
1.31244e-13
1.71561e-13
2.23983e-13
2.92056e-13
3.8034e-13
4.94689e-13
6.42608e-13
8.3371e-13
1.08028e-12
1.39802e-12
1.80695e-12
2.33254e-12
3.00724e-12
3.87222e-12
4.97973e-12
6.39595e-12
8.20461e-12
1.05115e-11
1.345e-11
1.71884e-11
2.19383e-11
2.79655e-11
3.56036e-11
4.52709e-11
5.74907e-11
7.2917e-11
9.23661e-11
1.16856e-10
1.47652e-10
1.86329e-10
2.34842e-10
2.95613e-10
3.71641e-10
4.66633e-10
5.85168e-10
7.32889e-10
9.16745e-10
1.14528e-09
1.42898e-09
1.78071e-09
2.21622e-09
2.75477e-09
3.41987e-09
4.2402e-09
5.25068e-09
6.49377e-09
8.02105e-09
9.89504e-09
1.21915e-08
1.50019e-08
1.8437e-08
2.26301e-08
2.77419e-08
3.39654e-08
4.15328e-08
5.07221e-08
6.18666e-08
7.53647e-08
9.16922e-08
1.11417e-07
1.35213e-07
1.63886e-07
1.9839e-07
2.39855e-07
2.89621e-07
3.49274e-07
4.20683e-07
5.06054e-07
6.07985e-07
7.29529e-07
8.7427e-07
1.04641e-06
1.25087e-06
1.49341e-06
1.78073e-06
2.12066e-06
2.52232e-06
2.99628e-06
3.55484e-06
4.21224e-06
4.98495e-06
5.89202e-06
6.9554e-06
8.20043e-06
9.65621e-06
1.13562e-05
1.33387e-05
1.56478e-05
1.83337e-05
2.14537e-05
2.50733e-05
2.9267e-05
3.41195e-05
3.9727e-05
4.61983e-05
5.36569e-05
6.2242e-05
7.21108e-05
8.34405e-05
9.64301e-05
0.000111303
0.000128311
0.000147734
0.000169887
0.000195119
0.00022382
0.000256426
0.000293419
0.000335333
0.000382761
0.000436359
0.000496848
0.000565025
0.000641766
0.000728035
0.000824884
0.000933471
0.00105506
0.00119102
0.00134285
0.00151219
0.00170081
0.00191062
0.0021437
0.00240228
0.00268879
0.00300581
0.00335613
0.00374274
0.00416885
0.00463786
0.00515341
0.00571938
0.00633988
0.00701926
0.00776213
0.00857336
0.00945805
0.0104216
0.0114696
0.0126081
0.0138431
0.0151811
0.0166288
0.0181931
0.0198811
0.0217002
0.0236581
0.0257625
0.0280214
0.0304429
0.0330353
0.0358071
0.0387666
0.0419225
0.0452834
0.0488577
0.0526541
0.056681
0.0609468
0.0654595
0.0702274
0.075258
0.0805589
0.0861371
0.0919995
0.0981523
0.104601
0.111352
0.118409
0.125777
0.133459
0.141457
0.149774
0.158412
0.16737
0.176647
0.186244
0.196158
0.206385
0.216921
0.227762
0.238901
0.250331
0.262046
0.274034
0.286288
0.298796
0.311546
0.324526
0.337722
0.35112
0.364706
0.378463
0.392375
0.406425
0.420595
0.434869
0.449226
0.463648
0.478116
0.492611
0.507113
0.521603
0.536061
0.550467
0.564803
0.579049
0.593186
0.607196
0.621061
0.634763
0.648286
0.661611
0.674725
0.687611
0.700255
0.712644
0.724763
0.736602
0.748148
0.759391
0.770322
0.78093
0.791209
0.80115
0.810747
0.819994
0.828886
0.837418
0.845586
0.853388
0.860821
0.867882
0.874571
0.880885
0.886825
0.892389
0.897579
0.902393
0.906833
0.910899
0.914591
0.917912
0.92086
0.923438
0.925646
0.927484
0.928954
0.930056
0.93079
0.931158
0.931158
0.93079
0.930056
0.928954
0.927484
0.925646
0.923438
0.92086
0.917912
0.914591
0.910899
0.906833
0.902393
0.897579
0.892389
0.886825
0.880885
0.874571
0.867882
0.860821
0.853388
0.845586
0.837418
0.828886
0.819994
0.810747
0.80115
0.791209
0.78093
0.770322
0.759391
0.748148
0.736602
0.724763
0.712644
0.700255
0.687611
0.674725
0.661611
0.648286
0.634763
0.621061
0.607196
0.593186
0.579049
0.564803
0.550467
0.536061
0.521603
0.507113
0.492611
0.478116
0.463648
0.449226
0.434869
0.420595
0.406425
0.392375
0.378463
0.364706
0.35112
0.337722
0.324526
0.311546
0.298796
0.286288
0.274034
0.262046
0.250331
0.238901
0.227762
0.216921
0.206385
0.196158
0.186244
0.176647
0.16737
0.158412
0.149774
0.141457
0.133459
0.125777
0.118409
0.111352
0.104601
0.0981523
0.0919995
0.0861371
0.0805589
0.075258
0.0702274
0.0654595
0.0609468
0.056681
0.0526541
0.0488577
0.0452834
0.0419225
0.0387666
0.0358071
0.0330353
0.0304429
0.0280214
0.0257625
0.0236581
0.0217002
0.0198811
0.0181931
0.0166288
0.0151811
0.0138431
0.0126081
0.0114696
0.0104216
0.00945805
0.00857336
0.00776213
0.00701926
0.00633988
0.00571938
0.00515341
0.00463786
0.00416885
0.00374274
0.00335613
0.00300581
0.00268879
0.00240228
0.0021437
0.00191062
0.00170081
0.00151219
0.00134285
0.00119102
0.00105506
0.000933471
0.000824884
0.000728035
0.000641766
0.000565025
0.000496848
0.000436359
0.000382761
0.000335333
0.000293419
0.000256426
0.00022382
0.000195119
0.000169887
0.000147734
0.000128311
0.000111303
9.64301e-05
8.34405e-05
7.21108e-05
6.2242e-05
5.36569e-05
4.61983e-05
3.9727e-05
3.41195e-05
2.9267e-05
2.50733e-05
2.14537e-05
1.83337e-05
1.56478e-05
1.33387e-05
1.13562e-05
9.65621e-06
8.20043e-06
6.9554e-06
5.89202e-06
4.98495e-06
4.21224e-06
3.55484e-06
2.99628e-06
2.52232e-06
2.12066e-06
1.78073e-06
1.49341e-06
1.25087e-06
1.04641e-06
8.7427e-07
7.29529e-07
6.07985e-07
5.06054e-07
4.20683e-07
3.49274e-07
2.89621e-07
2.39855e-07
1.9839e-07
1.63886e-07
1.35213e-07
1.11417e-07
9.16922e-08
7.53647e-08
6.18666e-08
5.07221e-08
4.15328e-08
3.39654e-08
2.77419e-08
2.26301e-08
1.8437e-08
1.50019e-08
1.21915e-08
9.89504e-09
8.02105e-09
6.49377e-09
5.25068e-09
4.2402e-09
3.41987e-09
2.75477e-09
2.21622e-09
1.78071e-09
1.42898e-09
1.14528e-09
9.16745e-10
7.32889e-10
5.85168e-10
4.66633e-10
3.71641e-10
2.95613e-10
2.34842e-10
1.86329e-10
1.47652e-10
1.16856e-10
9.23661e-11
7.2917e-11
5.74907e-11
4.52709e-11
3.56036e-11
2.79655e-11
2.19383e-11
1.71884e-11
1.345e-11
1.05115e-11
8.20461e-12
6.39595e-12
4.97973e-12
3.87222e-12
3.00724e-12
2.33254e-12
1.80695e-12
1.39802e-12
1.08028e-12
8.3371e-13
6.42608e-13
4.94689e-13
3.8034e-13
2.92056e-13
2.23983e-13
1.71561e-13
1.31244e-13
1.00275e-13
7.65173e-14
5.83154e-14
4.43876e-14
3.37439e-14
2.56204e-14
1.94281e-14
1.4714e-14
1.11298e-14
8.40813e-15
6.34406e-15
4.78071e-15
3.5981e-15
2.70464e-15
2.0305e-15
1.52249e-15
1.14015e-15
8.52757e-16
6.3701e-16
4.75253e-16
3.54128e-16
2.63544e-16
1.95887e-16
1.45416e-16
1.07815e-16
7.98371e-17
5.90456e-17
4.36143e-17
3.21758e-17
2.37076e-17
1.74464e-17
1.28227e-17
9.41275e-18
6.90099e-18
5.05319e-18
3.69556e-18
2.69932e-18
1.96919e-18
1.43477e-18
1.04408e-18
7.5884e-19
5.5084e-19
3.99358e-19
2.89174e-19
2.09131e-19
1.51056e-19
1.08973e-19
7.85165e-20
5.65022e-20
4.06099e-20
2.91515e-20
2.09003e-20
1.4966e-20
1.07034e-20
7.64545e-21
5.45439e-21
3.88644e-21
2.76581e-21
1.96587e-21
1.39557e-21
9.89495e-22
7.00712e-22
4.95598e-22
3.50094e-22
2.47004e-22
1.74056e-22
1.22501e-22
8.61101e-23
6.04554e-23
4.23918e-23
2.9689e-23
2.0767e-23
1.45084e-23
1.01235e-23
7.05524e-24
4.91087e-24
3.41406e-24
2.37057e-24
1.644e-24
1.13872e-24
7.87777e-25
5.44323e-25
3.75646e-25
2.58922e-25
1.7825e-25
1.22562e-25
8.41696e-26
5.77329e-26
3.95513e-26
2.70625e-26
1.84947e-26
1.26239e-26
8.60626e-27
5.86009e-27
3.98534e-27
2.70706e-27
1.83655e-27
1.24445e-27
8.42224e-28
5.69309e-28
3.84363e-28
2.59183e-28
1.7456e-28
1.17424e-28
7.88939e-29
5.29423e-29
3.54842e-29
2.37543e-29
1.58827e-29
1.06067e-29
7.07476e-30
4.71322e-30
3.13617e-30
2.08428e-30
1.38353e-30
9.17271e-31
6.07411e-31
4.01739e-31
2.65389e-31
1.75105e-31
1.15396e-31
7.59556e-32
4.99353e-32
3.27894e-32
2.15049e-32
1.4087e-32
9.2168e-33
6.0231e-33
3.93133e-33
2.56293e-33
1.66884e-33
1.08536e-33
7.05037e-34
4.57436e-34
2.96435e-34
1.91871e-34
1.24043e-34
8.00967e-35
5.16582e-35
3.32771e-35
2.14109e-35
1.37596e-35
8.832e-36
5.66234e-36
3.6259e-36
2.3191e-36
1.48152e-36
9.45316e-37
6.02466e-37
3.83506e-37
2.43835e-37
1.54848e-37
9.82202e-38
6.22274e-38
3.93774e-38
2.48885e-38
1.57122e-38
9.90748e-39
6.23986e-39
3.92531e-39
2.46638e-39
1.54787e-39
9.70278e-40
6.075e-40
3.79913e-40
2.37308e-40
1.48057e-40
9.22641e-41
5.74285e-41
3.57036e-41
2.21711e-41
1.37515e-41
8.51936e-42
5.27173e-42
3.25829e-42
2.01149e-42
1.24034e-42
7.63926e-43
4.69954e-43
2.8877e-43
1.77232e-43
1.08649e-43
6.65274e-44
4.06883e-44
2.48561e-44
1.51667e-44
9.24362e-45
5.62715e-45
3.4216e-45
2.0781e-45
1.26066e-45
7.6388e-46
4.62327e-46
2.79492e-46
1.68766e-46
1.01788e-46
6.1321e-47
3.68992e-47
2.2178e-47
1.33145e-47
7.98413e-48
4.7822e-48
2.86106e-48
1.70972e-48
1.02052e-48
6.08443e-49
3.62341e-49
2.15533e-49
1.2806e-49
7.59995e-50
4.50516e-50
2.66754e-50
1.57766e-50
9.32005e-51
5.49952e-51
3.24141e-51
1.9083e-51
1.12218e-51
6.59142e-52
3.86724e-52
2.26635e-52
1.32665e-52
7.75695e-53
4.53033e-53
2.64286e-53
1.54001e-53
8.96353e-54
5.21122e-54
3.02627e-54
1.75542e-54
1.01709e-54
5.88638e-55
3.40285e-55
1.96492e-55
1.13333e-55
6.52942e-56
3.75753e-56
2.15993e-56
1.2402e-56
7.11319e-57
4.07558e-57
2.33319e-57
1.33541e-57
7.65606e-58
4.42219e-58
2.61797e-58
1.66413e-58
1.25347e-58
)
;

boundaryField
{
    sides
    {
        type            zeroGradient;
    }
    empty
    {
        type            empty;
    }
}


// ************************************************************************* //
