/*--------------------------------*- C++ -*----------------------------------*\
  =========                 |
  \\      /  F ield         | OpenFOAM: The Open Source CFD Toolbox
   \\    /   O peration     | Website:  https://openfoam.org
    \\  /    A nd           | Version:  13
     \\/     M anipulation  |
\*---------------------------------------------------------------------------*/
FoamFile
{
    format      ascii;
    class       volScalarField;
    location    "4.645";
    object      T;
}
// * * * * * * * * * * * * * * * * * * * * * * * * * * * * * * * * * * * * * //

dimensions      [0 0 0 1 0 0 0];

internalField   nonuniform List<scalar> 
1000
(
2.06078e-48
2.51912e-48
3.53588e-48
5.33267e-48
8.3e-48
1.30806e-47
2.0706e-47
3.28148e-47
5.19982e-47
8.2344e-47
1.30291e-46
2.05967e-46
3.25293e-46
5.13257e-46
8.09055e-46
1.2741e-45
2.00452e-45
3.15063e-45
4.94727e-45
7.76094e-45
1.21631e-44
1.90438e-44
2.97881e-44
4.65492e-44
7.26711e-44
1.13342e-43
1.76603e-43
2.74907e-43
4.27516e-43
6.64199e-43
1.03091e-42
1.59854e-42
2.47631e-42
3.83235e-42
5.92518e-42
9.15202e-42
1.41224e-41
2.17711e-41
3.35295e-41
5.15884e-41
7.92965e-41
1.21768e-40
1.86805e-40
2.86299e-40
4.38357e-40
6.70521e-40
1.02464e-39
1.56426e-39
2.38573e-39
3.63503e-39
5.53313e-39
8.41413e-39
1.27827e-38
1.94004e-38
2.94153e-38
4.45564e-38
6.74251e-38
1.01931e-37
1.53946e-37
2.32274e-37
3.50113e-37
5.27217e-37
7.93129e-37
1.19199e-36
1.78967e-36
2.68439e-36
4.02247e-36
6.0216e-36
9.00541e-36
1.34545e-35
2.00818e-35
2.99441e-35
4.46058e-35
6.63809e-35
9.86885e-35
1.46575e-34
2.17484e-34
3.22376e-34
4.77387e-34
7.06235e-34
1.04375e-33
1.54105e-33
2.27304e-33
3.3494e-33
4.93057e-33
7.25098e-33
1.06529e-32
1.56353e-32
2.29252e-32
3.35808e-32
4.91403e-32
7.18378e-32
1.04915e-31
1.5307e-31
2.23106e-31
3.24864e-31
4.72562e-31
6.86729e-31
9.96963e-31
1.44591e-30
2.09493e-30
3.03226e-30
4.38461e-30
6.33376e-30
9.14029e-30
1.31773e-29
1.89783e-29
2.73058e-29
3.92482e-29
5.63574e-29
8.08441e-29
1.15854e-28
1.6586e-28
2.37212e-28
3.3892e-28
4.83752e-28
6.89786e-28
9.82587e-28
1.39828e-27
1.98783e-27
2.82313e-27
4.00541e-27
5.67711e-27
8.03845e-27
1.13706e-26
1.60677e-26
2.26826e-26
3.19885e-26
4.5067e-26
6.34288e-26
8.91823e-26
1.25266e-25
1.75773e-25
2.46396e-25
3.45047e-25
4.82709e-25
6.74614e-25
9.41863e-25
1.31366e-24
1.83037e-24
2.54776e-24
3.54275e-24
4.92135e-24
6.8295e-24
9.46795e-24
1.31125e-23
1.81415e-23
2.50741e-23
3.46208e-23
4.77541e-23
6.58029e-23
9.05816e-23
1.24565e-22
1.71124e-22
2.34849e-22
3.21978e-22
4.40985e-22
6.03367e-22
8.24706e-22
1.1261e-21
1.53608e-21
2.0932e-21
2.84949e-21
3.8751e-21
5.26452e-21
7.14485e-21
9.68694e-21
1.31202e-20
1.77521e-20
2.3995e-20
3.24004e-20
4.37057e-20
5.88957e-20
7.92845e-20
1.06623e-19
1.43242e-19
1.92243e-19
2.57743e-19
3.45209e-19
4.61886e-19
6.17369e-19
8.24352e-19
1.09961e-18
1.46528e-18
1.95056e-18
2.59392e-18
3.44597e-18
4.57322e-18
6.06304e-18
8.02999e-18
1.06242e-17
1.40422e-17
1.85408e-17
2.44557e-17
3.22246e-17
4.24181e-17
5.5779e-17
7.32735e-17
9.61565e-17
1.26057e-16
1.65086e-16
2.15978e-16
2.8227e-16
3.68532e-16
4.80664e-16
6.26273e-16
8.15156e-16
1.05992e-15
1.37677e-15
1.7865e-15
2.3158e-15
2.99884e-15
3.87937e-15
5.0133e-15
6.47204e-15
8.34667e-15
1.07533e-14
1.38395e-14
1.77933e-14
2.28532e-14
2.93219e-14
3.75829e-14
4.8122e-14
6.15533e-14
7.86526e-14
1.00399e-13
1.28026e-13
1.63088e-13
2.07539e-13
2.63834e-13
3.35055e-13
4.25065e-13
5.38702e-13
6.82017e-13
8.62572e-13
1.08981e-12
1.37549e-12
1.73427e-12
2.1844e-12
2.74852e-12
3.45478e-12
4.33805e-12
5.44155e-12
6.81873e-12
8.53567e-12
1.0674e-11
1.33342e-11
1.66403e-11
2.07447e-11
2.58349e-11
3.21411e-11
3.99454e-11
4.95936e-11
6.15089e-11
7.62085e-11
9.43239e-11
1.16625e-10
1.44051e-10
1.77744e-10
2.19091e-10
2.69779e-10
3.31851e-10
4.07786e-10
5.00581e-10
6.13859e-10
7.51998e-10
9.20274e-10
1.12505e-09
1.37397e-09
1.67624e-09
2.04291e-09
2.48722e-09
3.02505e-09
3.6754e-09
4.46096e-09
5.40886e-09
6.55144e-09
7.92721e-09
9.58201e-09
1.15704e-08
1.39569e-08
1.68185e-08
2.02458e-08
2.43466e-08
2.92479e-08
3.50998e-08
4.20792e-08
5.03946e-08
6.02912e-08
7.20572e-08
8.60309e-08
1.02609e-07
1.22256e-07
1.45515e-07
1.73022e-07
2.05517e-07
2.43864e-07
2.8907e-07
3.42304e-07
4.04925e-07
4.78512e-07
5.64891e-07
6.66179e-07
7.84824e-07
9.23651e-07
1.08592e-06
1.27539e-06
1.49639e-06
1.75389e-06
2.05359e-06
2.40204e-06
2.80674e-06
3.27627e-06
3.82044e-06
4.45044e-06
5.17904e-06
6.02075e-06
6.99213e-06
8.11193e-06
9.40147e-06
1.08849e-05
1.25895e-05
1.45463e-05
1.67901e-05
1.93602e-05
2.2301e-05
2.56625e-05
2.95005e-05
3.38781e-05
3.88658e-05
4.45424e-05
5.09964e-05
5.83263e-05
6.66421e-05
7.60664e-05
8.67354e-05
9.88008e-05
0.000112431
0.000127811
0.000145149
0.000164673
0.000186634
0.00021131
0.000239008
0.000270064
0.000304848
0.000343766
0.000387263
0.000435826
0.000489986
0.000550324
0.000617473
0.000692121
0.000775018
0.000866976
0.000968877
0.00108167
0.0012064
0.00134417
0.00149618
0.00166372
0.0018482
0.00205109
0.00227399
0.00251863
0.00278683
0.00308054
0.00340185
0.00375298
0.00413627
0.00455423
0.0050095
0.00550489
0.00604335
0.006628
0.00726211
0.00794914
0.0086927
0.00949658
0.0103647
0.0113013
0.0123106
0.0133971
0.0145655
0.0158205
0.0171672
0.0186106
0.0201562
0.0218093
0.0235755
0.0254605
0.0274702
0.0296104
0.0318874
0.034307
0.0368757
0.0395995
0.0424848
0.0455378
0.0487648
0.0521722
0.055766
0.0595524
0.0635374
0.0677271
0.072127
0.0767428
0.08158
0.0866436
0.0919385
0.0974694
0.103241
0.109256
0.115519
0.122033
0.128801
0.135825
0.143107
0.150648
0.158449
0.166511
0.174832
0.183413
0.192251
0.201345
0.210692
0.220288
0.23013
0.240213
0.250532
0.26108
0.271852
0.282839
0.294035
0.305431
0.317017
0.328784
0.340723
0.352821
0.365069
0.377454
0.389964
0.402586
0.415308
0.428117
0.440998
0.453937
0.466921
0.479935
0.492965
0.505995
0.519012
0.532
0.544944
0.557831
0.570644
0.583371
0.595996
0.608505
0.620885
0.633122
0.645203
0.657114
0.668843
0.680378
0.691707
0.702818
0.713701
0.724344
0.734739
0.744875
0.754743
0.764335
0.773643
0.782658
0.791373
0.799783
0.80788
0.815659
0.823114
0.83024
0.837033
0.843489
0.849603
0.855373
0.860795
0.865866
0.870585
0.874947
0.878953
0.882599
0.885884
0.888808
0.891368
0.893565
0.895396
0.896862
0.897962
0.898695
0.899062
0.899062
0.898695
0.897962
0.896862
0.895396
0.893565
0.891368
0.888808
0.885884
0.882599
0.878953
0.874947
0.870585
0.865866
0.860795
0.855373
0.849603
0.843489
0.837033
0.83024
0.823114
0.815659
0.80788
0.799783
0.791373
0.782658
0.773643
0.764335
0.754743
0.744875
0.734739
0.724344
0.713701
0.702818
0.691707
0.680378
0.668843
0.657114
0.645203
0.633122
0.620885
0.608505
0.595996
0.583371
0.570644
0.557831
0.544944
0.532
0.519012
0.505995
0.492965
0.479935
0.466921
0.453937
0.440998
0.428117
0.415308
0.402586
0.389964
0.377454
0.365069
0.352821
0.340723
0.328784
0.317017
0.305431
0.294035
0.282839
0.271852
0.26108
0.250532
0.240213
0.23013
0.220288
0.210692
0.201345
0.192251
0.183413
0.174832
0.166511
0.158449
0.150648
0.143107
0.135825
0.128801
0.122033
0.115519
0.109256
0.103241
0.0974694
0.0919385
0.0866436
0.08158
0.0767428
0.072127
0.0677271
0.0635374
0.0595524
0.055766
0.0521722
0.0487648
0.0455378
0.0424848
0.0395995
0.0368757
0.034307
0.0318874
0.0296104
0.0274702
0.0254605
0.0235755
0.0218093
0.0201562
0.0186106
0.0171672
0.0158205
0.0145655
0.0133971
0.0123106
0.0113013
0.0103647
0.00949658
0.0086927
0.00794914
0.00726211
0.006628
0.00604335
0.00550489
0.0050095
0.00455423
0.00413627
0.00375298
0.00340185
0.00308054
0.00278683
0.00251863
0.00227399
0.00205109
0.0018482
0.00166372
0.00149618
0.00134417
0.0012064
0.00108167
0.000968877
0.000866976
0.000775018
0.000692121
0.000617473
0.000550324
0.000489986
0.000435826
0.000387263
0.000343766
0.000304848
0.000270064
0.000239008
0.00021131
0.000186634
0.000164673
0.000145149
0.000127811
0.000112431
9.88008e-05
8.67354e-05
7.60664e-05
6.66421e-05
5.83263e-05
5.09964e-05
4.45424e-05
3.88658e-05
3.38781e-05
2.95005e-05
2.56625e-05
2.2301e-05
1.93602e-05
1.67901e-05
1.45463e-05
1.25895e-05
1.08849e-05
9.40147e-06
8.11193e-06
6.99213e-06
6.02075e-06
5.17904e-06
4.45044e-06
3.82044e-06
3.27627e-06
2.80674e-06
2.40204e-06
2.05359e-06
1.75389e-06
1.49639e-06
1.27539e-06
1.08592e-06
9.23651e-07
7.84824e-07
6.66179e-07
5.64891e-07
4.78512e-07
4.04925e-07
3.42304e-07
2.8907e-07
2.43864e-07
2.05517e-07
1.73022e-07
1.45515e-07
1.22256e-07
1.02609e-07
8.60309e-08
7.20572e-08
6.02912e-08
5.03946e-08
4.20792e-08
3.50998e-08
2.92479e-08
2.43466e-08
2.02458e-08
1.68185e-08
1.39569e-08
1.15704e-08
9.58201e-09
7.92721e-09
6.55144e-09
5.40886e-09
4.46096e-09
3.6754e-09
3.02505e-09
2.48722e-09
2.04291e-09
1.67624e-09
1.37397e-09
1.12505e-09
9.20274e-10
7.51998e-10
6.13859e-10
5.00581e-10
4.07786e-10
3.31851e-10
2.69779e-10
2.19091e-10
1.77744e-10
1.44051e-10
1.16625e-10
9.43239e-11
7.62085e-11
6.15089e-11
4.95936e-11
3.99454e-11
3.21411e-11
2.58349e-11
2.07447e-11
1.66403e-11
1.33342e-11
1.0674e-11
8.53567e-12
6.81873e-12
5.44155e-12
4.33805e-12
3.45478e-12
2.74852e-12
2.1844e-12
1.73427e-12
1.37549e-12
1.08981e-12
8.62572e-13
6.82017e-13
5.38702e-13
4.25065e-13
3.35055e-13
2.63834e-13
2.07539e-13
1.63088e-13
1.28026e-13
1.00399e-13
7.86526e-14
6.15533e-14
4.8122e-14
3.75829e-14
2.93219e-14
2.28532e-14
1.77933e-14
1.38395e-14
1.07533e-14
8.34667e-15
6.47204e-15
5.0133e-15
3.87937e-15
2.99884e-15
2.3158e-15
1.7865e-15
1.37677e-15
1.05992e-15
8.15156e-16
6.26273e-16
4.80664e-16
3.68532e-16
2.8227e-16
2.15978e-16
1.65086e-16
1.26057e-16
9.61565e-17
7.32735e-17
5.5779e-17
4.24181e-17
3.22246e-17
2.44557e-17
1.85408e-17
1.40422e-17
1.06242e-17
8.02999e-18
6.06304e-18
4.57322e-18
3.44597e-18
2.59392e-18
1.95056e-18
1.46528e-18
1.09961e-18
8.24352e-19
6.17369e-19
4.61886e-19
3.45209e-19
2.57743e-19
1.92243e-19
1.43242e-19
1.06623e-19
7.92845e-20
5.88957e-20
4.37057e-20
3.24004e-20
2.3995e-20
1.77521e-20
1.31202e-20
9.68694e-21
7.14485e-21
5.26452e-21
3.8751e-21
2.84949e-21
2.0932e-21
1.53608e-21
1.1261e-21
8.24706e-22
6.03367e-22
4.40985e-22
3.21978e-22
2.34849e-22
1.71124e-22
1.24565e-22
9.05816e-23
6.58029e-23
4.77541e-23
3.46208e-23
2.50741e-23
1.81415e-23
1.31125e-23
9.46795e-24
6.8295e-24
4.92135e-24
3.54275e-24
2.54776e-24
1.83037e-24
1.31366e-24
9.41863e-25
6.74614e-25
4.82709e-25
3.45047e-25
2.46396e-25
1.75773e-25
1.25266e-25
8.91823e-26
6.34288e-26
4.5067e-26
3.19885e-26
2.26826e-26
1.60677e-26
1.13706e-26
8.03845e-27
5.67711e-27
4.00541e-27
2.82313e-27
1.98783e-27
1.39828e-27
9.82587e-28
6.89786e-28
4.83752e-28
3.3892e-28
2.37212e-28
1.6586e-28
1.15854e-28
8.08441e-29
5.63574e-29
3.92482e-29
2.73058e-29
1.89783e-29
1.31773e-29
9.14029e-30
6.33376e-30
4.38461e-30
3.03226e-30
2.09493e-30
1.44591e-30
9.96963e-31
6.86729e-31
4.72562e-31
3.24864e-31
2.23106e-31
1.5307e-31
1.04915e-31
7.18378e-32
4.91403e-32
3.35808e-32
2.29252e-32
1.56353e-32
1.06529e-32
7.25098e-33
4.93057e-33
3.3494e-33
2.27304e-33
1.54105e-33
1.04375e-33
7.06235e-34
4.77387e-34
3.22376e-34
2.17484e-34
1.46575e-34
9.86885e-35
6.63809e-35
4.46058e-35
2.99441e-35
2.00818e-35
1.34545e-35
9.00541e-36
6.0216e-36
4.02247e-36
2.68439e-36
1.78967e-36
1.19199e-36
7.93129e-37
5.27217e-37
3.50113e-37
2.32274e-37
1.53946e-37
1.01931e-37
6.74251e-38
4.45564e-38
2.94153e-38
1.94004e-38
1.27827e-38
8.41413e-39
5.53313e-39
3.63503e-39
2.38573e-39
1.56426e-39
1.02464e-39
6.70521e-40
4.38357e-40
2.86299e-40
1.86805e-40
1.21768e-40
7.92965e-41
5.15884e-41
3.35295e-41
2.17711e-41
1.41224e-41
9.15202e-42
5.92518e-42
3.83235e-42
2.47631e-42
1.59854e-42
1.03091e-42
6.64199e-43
4.27516e-43
2.74907e-43
1.76603e-43
1.13342e-43
7.26711e-44
4.65492e-44
2.97881e-44
1.90438e-44
1.21631e-44
7.76094e-45
4.94727e-45
3.15063e-45
2.00452e-45
1.2741e-45
8.09055e-46
5.13257e-46
3.25293e-46
2.05967e-46
1.30291e-46
8.2344e-47
5.19982e-47
3.28148e-47
2.0706e-47
1.30806e-47
8.3e-48
5.33267e-48
3.53588e-48
2.51912e-48
2.06078e-48
)
;

boundaryField
{
    sides
    {
        type            zeroGradient;
    }
    empty
    {
        type            empty;
    }
}


// ************************************************************************* //
