/*--------------------------------*- C++ -*----------------------------------*\
  =========                 |
  \\      /  F ield         | OpenFOAM: The Open Source CFD Toolbox
   \\    /   O peration     | Website:  https://openfoam.org
    \\  /    A nd           | Version:  13
     \\/     M anipulation  |
\*---------------------------------------------------------------------------*/
FoamFile
{
    format      ascii;
    class       volScalarField;
    location    "2.565";
    object      T;
}
// * * * * * * * * * * * * * * * * * * * * * * * * * * * * * * * * * * * * * //

dimensions      [0 0 0 1 0 0 0];

internalField   nonuniform List<scalar> 
1000
(
4.66965e-83
7.72702e-83
1.5823e-82
3.41907e-82
7.46623e-82
1.63211e-81
3.56446e-81
7.77419e-81
1.69315e-80
3.68222e-80
7.99637e-80
1.73398e-79
3.75461e-79
8.11806e-79
1.7527e-78
3.77857e-78
8.13416e-78
1.74849e-77
3.753e-77
8.04374e-77
1.72147e-76
3.67878e-76
7.85e-76
1.67262e-75
3.55864e-75
7.56018e-75
1.60376e-74
3.39706e-74
7.185e-74
1.51742e-73
3.19996e-73
6.7381e-73
1.41673e-72
2.97433e-72
6.23514e-72
1.30514e-71
2.72785e-71
5.69294e-71
1.18633e-70
2.46844e-70
5.12851e-70
1.06392e-69
2.20382e-69
4.55819e-69
9.4136e-69
1.94118e-68
3.9969e-68
8.21723e-68
1.68684e-67
3.45753e-67
7.07623e-67
1.44604e-66
2.95055e-66
6.01129e-66
1.22285e-65
2.48381e-65
5.03738e-65
1.02007e-64
2.0625e-64
4.16386e-64
8.39337e-64
1.68932e-63
3.39489e-63
6.81198e-63
1.36476e-62
2.73007e-62
5.45287e-62
1.08745e-61
2.16533e-61
4.305e-61
8.54578e-61
1.69379e-60
3.35197e-60
6.6232e-60
1.30666e-59
2.57388e-59
5.06221e-59
9.94072e-59
1.94904e-58
3.81549e-58
7.45769e-58
1.4554e-57
2.83585e-57
5.51704e-57
1.07165e-56
2.07835e-56
4.02445e-56
7.78062e-56
1.5019e-55
2.89459e-55
5.56995e-55
1.07012e-54
2.05273e-54
3.93139e-54
7.51754e-54
1.43523e-53
2.73577e-53
5.20659e-53
9.89326e-53
1.87689e-52
3.55507e-52
6.7231e-52
1.26941e-51
2.393e-51
4.50394e-51
8.46354e-51
1.58789e-50
2.97436e-50
5.56255e-50
1.03863e-49
1.93621e-49
3.60371e-49
6.69654e-49
1.24238e-48
2.30124e-48
4.2557e-48
7.85745e-48
1.44841e-47
2.66566e-47
4.89796e-47
8.98516e-47
1.64564e-46
3.00912e-46
5.49343e-46
1.00125e-45
1.82196e-45
3.31e-45
6.00362e-45
1.08716e-44
1.96546e-44
3.54755e-44
6.39271e-44
1.15009e-43
2.06572e-43
3.70425e-43
6.6316e-43
1.18529e-42
2.11505e-42
3.76793e-42
6.70151e-42
1.18995e-41
2.10945e-41
3.73333e-41
6.59641e-41
1.1636e-40
2.04918e-40
3.60281e-40
6.32388e-40
1.10817e-39
1.93871e-39
3.38608e-39
5.9042e-39
1.02779e-38
1.78618e-38
3.09901e-38
5.36784e-38
9.28221e-38
1.60243e-37
2.76174e-37
4.75182e-37
8.16228e-37
1.3997e-36
2.39626e-36
4.09546e-36
6.98786e-36
1.1903e-35
2.02413e-35
3.43629e-35
5.82386e-35
9.85373e-35
1.6644e-34
2.80661e-34
4.72469e-34
7.94018e-34
1.33215e-33
2.23121e-33
3.73072e-33
6.22742e-33
1.03773e-32
1.72634e-32
2.86702e-32
4.75329e-32
7.86718e-32
1.29988e-31
2.14412e-31
3.53063e-31
5.80382e-31
9.52432e-31
1.56031e-30
2.55178e-30
4.16614e-30
6.79014e-30
1.10479e-29
1.79445e-29
2.90965e-29
4.70979e-29
7.61053e-29
1.22767e-28
1.97696e-28
3.17809e-28
5.10016e-28
8.17057e-28
1.30668e-27
2.0861e-27
3.32468e-27
5.28946e-27
8.40079e-27
1.33191e-26
2.10803e-26
3.3306e-26
5.25307e-26
8.27081e-26
1.29995e-25
2.03962e-25
3.19458e-25
4.99483e-25
7.79594e-25
1.21467e-24
1.88924e-24
2.9333e-24
4.54638e-24
7.03419e-24
1.08643e-23
1.67504e-23
2.57801e-23
3.9608e-23
6.0746e-23
9.3001e-23
1.42132e-22
2.16837e-22
3.30223e-22
5.02013e-22
7.61827e-22
1.15407e-21
1.74517e-21
2.63436e-21
3.96957e-21
5.97095e-21
8.96547e-21
1.34379e-20
2.01058e-20
3.00289e-20
4.47698e-20
6.66284e-20
9.8983e-20
1.46787e-19
2.17292e-19
3.21088e-19
4.7362e-19
6.97366e-19
1.02498e-18
1.50382e-18
2.20242e-18
3.21978e-18
4.69867e-18
6.84458e-18
9.95268e-18
1.44462e-17
2.0931e-17
3.02724e-17
4.37043e-17
6.29826e-17
9.06017e-17
1.30098e-16
1.86476e-16
2.66806e-16
3.81052e-16
5.43238e-16
7.7306e-16
1.09813e-15
1.55707e-15
2.20384e-15
3.11362e-15
4.39104e-15
6.18135e-15
8.68587e-15
1.21831e-14
1.70575e-14
2.38388e-14
3.32559e-14
4.63088e-14
6.43682e-14
8.9308e-14
1.23686e-13
1.70987e-13
2.35947e-13
3.24995e-13
4.46838e-13
6.13242e-13
8.40086e-13
1.14875e-12
1.56796e-12
2.13625e-12
2.90521e-12
3.94378e-12
5.34385e-12
7.22775e-12
9.75796e-12
1.31499e-11
1.76885e-11
2.37502e-11
3.18309e-11
4.25831e-11
5.6863e-11
7.57929e-11
1.0084e-10
1.33919e-10
1.77523e-10
2.34894e-10
3.10237e-10
4.08996e-10
5.38207e-10
7.06941e-10
9.26873e-10
1.213e-09
1.58454e-09
2.0661e-09
2.68906e-09
3.49344e-09
4.5301e-09
5.86362e-09
7.57575e-09
9.76985e-09
1.25763e-08
1.61592e-08
2.07247e-08
2.65313e-08
3.39025e-08
4.3242e-08
5.50531e-08
6.99616e-08
8.87441e-08
1.12362e-07
1.42005e-07
1.79139e-07
2.25567e-07
2.83507e-07
3.55676e-07
4.45397e-07
5.56725e-07
6.94603e-07
8.65038e-07
1.07531e-06
1.33425e-06
1.65251e-06
2.04292e-06
2.52093e-06
3.10508e-06
3.81759e-06
4.68499e-06
5.73893e-06
7.0171e-06
8.56421e-06
1.04333e-05
1.2687e-05
1.53994e-05
1.86574e-05
2.25634e-05
2.72372e-05
3.28192e-05
3.94728e-05
4.73888e-05
5.67885e-05
6.79286e-05
8.11059e-05
9.66632e-05
0.000114995
0.000136554
0.000161861
0.000191509
0.000226176
0.000266634
0.00031376
0.000368547
0.000432117
0.000505736
0.000590828
0.000688993
0.000802019
0.000931906
0.00108088
0.00125142
0.00144626
0.00166845
0.00192132
0.00220857
0.00253423
0.00290273
0.00331888
0.00378796
0.00431567
0.00490817
0.00557216
0.00631479
0.00714379
0.00806741
0.00909445
0.0102343
0.0114968
0.0128926
0.0144326
0.0161286
0.0179926
0.0200374
0.0222761
0.0247224
0.0273902
0.0302941
0.0334488
0.0368692
0.0405706
0.0445682
0.0488775
0.0535135
0.0584915
0.0638262
0.0695321
0.0756232
0.0821128
0.0890135
0.0963371
0.104094
0.112295
0.120948
0.130059
0.139635
0.14968
0.160196
0.171184
0.182642
0.194568
0.206957
0.219801
0.23309
0.246815
0.260961
0.275513
0.290453
0.305762
0.321418
0.337399
0.353678
0.37023
0.387025
0.404035
0.421228
0.438573
0.456037
0.473586
0.491186
0.508803
0.526403
0.543951
0.561414
0.578757
0.595948
0.612955
0.629747
0.646294
0.662568
0.678542
0.69419
0.70949
0.724419
0.738958
0.753088
0.766795
0.780063
0.792881
0.80524
0.817131
0.828549
0.83949
0.849951
0.859933
0.869435
0.878462
0.887016
0.895104
0.902731
0.909906
0.916636
0.922931
0.928799
0.934252
0.9393
0.943952
0.94822
0.952113
0.955641
0.958815
0.961643
0.964134
0.966295
0.968134
0.969656
0.970868
0.971773
0.972375
0.972675
0.972675
0.972375
0.971773
0.970868
0.969656
0.968134
0.966295
0.964134
0.961643
0.958815
0.955641
0.952113
0.94822
0.943952
0.9393
0.934252
0.928799
0.922931
0.916636
0.909906
0.902731
0.895104
0.887016
0.878462
0.869435
0.859933
0.849951
0.83949
0.828549
0.817131
0.80524
0.792881
0.780063
0.766795
0.753088
0.738958
0.724419
0.70949
0.69419
0.678542
0.662568
0.646294
0.629747
0.612955
0.595948
0.578757
0.561414
0.543951
0.526403
0.508803
0.491186
0.473586
0.456037
0.438573
0.421228
0.404035
0.387025
0.37023
0.353678
0.337399
0.321418
0.305762
0.290453
0.275513
0.260961
0.246815
0.23309
0.219801
0.206957
0.194568
0.182642
0.171184
0.160196
0.14968
0.139635
0.130059
0.120948
0.112295
0.104094
0.0963371
0.0890135
0.0821128
0.0756232
0.0695321
0.0638262
0.0584915
0.0535135
0.0488775
0.0445682
0.0405706
0.0368692
0.0334488
0.0302941
0.0273902
0.0247224
0.0222761
0.0200374
0.0179926
0.0161286
0.0144326
0.0128926
0.0114968
0.0102343
0.00909445
0.00806741
0.00714379
0.00631479
0.00557216
0.00490817
0.00431567
0.00378796
0.00331888
0.00290273
0.00253423
0.00220857
0.00192132
0.00166845
0.00144626
0.00125142
0.00108088
0.000931906
0.000802019
0.000688993
0.000590828
0.000505736
0.000432117
0.000368547
0.00031376
0.000266634
0.000226176
0.000191509
0.000161861
0.000136554
0.000114995
9.66632e-05
8.11059e-05
6.79286e-05
5.67885e-05
4.73888e-05
3.94728e-05
3.28192e-05
2.72372e-05
2.25634e-05
1.86574e-05
1.53994e-05
1.2687e-05
1.04333e-05
8.56421e-06
7.0171e-06
5.73893e-06
4.68499e-06
3.81759e-06
3.10508e-06
2.52093e-06
2.04292e-06
1.65251e-06
1.33425e-06
1.07531e-06
8.65038e-07
6.94603e-07
5.56725e-07
4.45397e-07
3.55676e-07
2.83507e-07
2.25567e-07
1.79139e-07
1.42005e-07
1.12362e-07
8.87441e-08
6.99616e-08
5.50531e-08
4.3242e-08
3.39025e-08
2.65313e-08
2.07247e-08
1.61592e-08
1.25763e-08
9.76985e-09
7.57575e-09
5.86362e-09
4.5301e-09
3.49344e-09
2.68906e-09
2.0661e-09
1.58454e-09
1.213e-09
9.26873e-10
7.06941e-10
5.38207e-10
4.08996e-10
3.10237e-10
2.34894e-10
1.77523e-10
1.33919e-10
1.0084e-10
7.57929e-11
5.6863e-11
4.25831e-11
3.18309e-11
2.37502e-11
1.76885e-11
1.31499e-11
9.75796e-12
7.22775e-12
5.34385e-12
3.94378e-12
2.90521e-12
2.13625e-12
1.56796e-12
1.14875e-12
8.40086e-13
6.13242e-13
4.46838e-13
3.24995e-13
2.35947e-13
1.70987e-13
1.23686e-13
8.9308e-14
6.43682e-14
4.63088e-14
3.32559e-14
2.38388e-14
1.70575e-14
1.21831e-14
8.68587e-15
6.18135e-15
4.39104e-15
3.11362e-15
2.20384e-15
1.55707e-15
1.09813e-15
7.7306e-16
5.43238e-16
3.81052e-16
2.66806e-16
1.86476e-16
1.30098e-16
9.06017e-17
6.29826e-17
4.37043e-17
3.02724e-17
2.0931e-17
1.44462e-17
9.95268e-18
6.84458e-18
4.69867e-18
3.21978e-18
2.20242e-18
1.50382e-18
1.02498e-18
6.97366e-19
4.7362e-19
3.21088e-19
2.17292e-19
1.46787e-19
9.8983e-20
6.66284e-20
4.47698e-20
3.00289e-20
2.01058e-20
1.34379e-20
8.96547e-21
5.97095e-21
3.96957e-21
2.63436e-21
1.74517e-21
1.15407e-21
7.61827e-22
5.02013e-22
3.30223e-22
2.16837e-22
1.42132e-22
9.3001e-23
6.0746e-23
3.9608e-23
2.57801e-23
1.67504e-23
1.08643e-23
7.03419e-24
4.54638e-24
2.9333e-24
1.88924e-24
1.21467e-24
7.79594e-25
4.99483e-25
3.19458e-25
2.03962e-25
1.29995e-25
8.27081e-26
5.25307e-26
3.3306e-26
2.10803e-26
1.33191e-26
8.40079e-27
5.28946e-27
3.32468e-27
2.0861e-27
1.30668e-27
8.17057e-28
5.10016e-28
3.17809e-28
1.97696e-28
1.22767e-28
7.61053e-29
4.70979e-29
2.90965e-29
1.79445e-29
1.10479e-29
6.79014e-30
4.16614e-30
2.55178e-30
1.56031e-30
9.52432e-31
5.80382e-31
3.53063e-31
2.14412e-31
1.29988e-31
7.86718e-32
4.75329e-32
2.86702e-32
1.72634e-32
1.03773e-32
6.22742e-33
3.73072e-33
2.23121e-33
1.33215e-33
7.94018e-34
4.72469e-34
2.80661e-34
1.6644e-34
9.85373e-35
5.82386e-35
3.43629e-35
2.02413e-35
1.1903e-35
6.98786e-36
4.09546e-36
2.39626e-36
1.3997e-36
8.16228e-37
4.75182e-37
2.76174e-37
1.60243e-37
9.28221e-38
5.36784e-38
3.09901e-38
1.78618e-38
1.02779e-38
5.9042e-39
3.38608e-39
1.93871e-39
1.10817e-39
6.32388e-40
3.60281e-40
2.04918e-40
1.1636e-40
6.59641e-41
3.73333e-41
2.10945e-41
1.18995e-41
6.70151e-42
3.76793e-42
2.11505e-42
1.18529e-42
6.6316e-43
3.70425e-43
2.06572e-43
1.15009e-43
6.39271e-44
3.54755e-44
1.96546e-44
1.08716e-44
6.00362e-45
3.31e-45
1.82196e-45
1.00125e-45
5.49343e-46
3.00912e-46
1.64564e-46
8.98516e-47
4.89796e-47
2.66566e-47
1.44841e-47
7.85745e-48
4.2557e-48
2.30124e-48
1.24238e-48
6.69654e-49
3.60371e-49
1.93621e-49
1.03863e-49
5.56255e-50
2.97436e-50
1.58789e-50
8.46354e-51
4.50394e-51
2.393e-51
1.26941e-51
6.7231e-52
3.55507e-52
1.87689e-52
9.89326e-53
5.20659e-53
2.73577e-53
1.43523e-53
7.51754e-54
3.93139e-54
2.05273e-54
1.07012e-54
5.56995e-55
2.89459e-55
1.5019e-55
7.78062e-56
4.02445e-56
2.07835e-56
1.07165e-56
5.51704e-57
2.83585e-57
1.4554e-57
7.45769e-58
3.81549e-58
1.94904e-58
9.94072e-59
5.06221e-59
2.57388e-59
1.30666e-59
6.6232e-60
3.35197e-60
1.69379e-60
8.54578e-61
4.305e-61
2.16533e-61
1.08745e-61
5.45287e-62
2.73007e-62
1.36476e-62
6.81198e-63
3.39489e-63
1.68932e-63
8.39337e-64
4.16386e-64
2.0625e-64
1.02007e-64
5.03738e-65
2.48381e-65
1.22285e-65
6.01129e-66
2.95055e-66
1.44604e-66
7.07623e-67
3.45753e-67
1.68684e-67
8.21723e-68
3.9969e-68
1.94118e-68
9.4136e-69
4.55819e-69
2.20382e-69
1.06392e-69
5.12851e-70
2.46844e-70
1.18633e-70
5.69294e-71
2.72785e-71
1.30514e-71
6.23514e-72
2.97433e-72
1.41673e-72
6.7381e-73
3.19996e-73
1.51742e-73
7.185e-74
3.39706e-74
1.60376e-74
7.56018e-75
3.55864e-75
1.67262e-75
7.85e-76
3.67878e-76
1.72147e-76
8.04374e-77
3.753e-77
1.74849e-77
8.13416e-78
3.77857e-78
1.7527e-78
8.11806e-79
3.75461e-79
1.73398e-79
7.99637e-80
3.68222e-80
1.69315e-80
7.77419e-81
3.56446e-81
1.63211e-81
7.46623e-82
3.41907e-82
1.5823e-82
7.72702e-83
4.66965e-83
)
;

boundaryField
{
    sides
    {
        type            zeroGradient;
    }
    empty
    {
        type            empty;
    }
}


// ************************************************************************* //
