/*--------------------------------*- C++ -*----------------------------------*\
  =========                 |
  \\      /  F ield         | OpenFOAM: The Open Source CFD Toolbox
   \\    /   O peration     | Website:  https://openfoam.org
    \\  /    A nd           | Version:  13
     \\/     M anipulation  |
\*---------------------------------------------------------------------------*/
FoamFile
{
    format      ascii;
    class       volScalarField;
    location    "4.5";
    object      p;
}
// * * * * * * * * * * * * * * * * * * * * * * * * * * * * * * * * * * * * * //

dimensions      [1 -1 -2 0 0 0 0];

internalField   nonuniform List<scalar> 
5250
(
1.00001
1.00003
1.00008
1.00022
1.00052
1.00132
1.00324
1.00789
1.01991
1.04833
1.12266
1.31324
1.84942
3.41388
7.9916
11.6931
11.287
11.0412
11.1248
11.3543
11.5822
11.7215
11.8264
11.9091
11.9718
1.00001
1.00003
1.00008
1.0002
1.00055
1.00123
1.00333
1.00751
1.02006
1.04683
1.12157
1.30702
1.83459
3.36998
7.87663
11.7067
11.2866
11.0314
11.1159
11.3463
11.5742
11.7138
11.8203
11.9043
11.9685
1.00001
1.00003
1.00008
1.00019
1.00052
1.0012
1.00317
1.00741
1.01897
1.04596
1.11638
1.29697
1.80152
3.27585
7.61888
11.734
11.2825
11.0014
11.0845
11.3127
11.5386
11.6764
11.7824
11.866
11.9305
1
1.00003
1.00007
1.0002
1.00046
1.00121
1.00287
1.00723
1.01772
1.04385
1.10975
1.2807
1.7542
3.13307
7.22187
11.7738
11.2771
10.952
11.0305
11.2522
11.4752
11.6093
11.7124
11.7942
11.86
1
1.00002
1.00007
1.00018
1.00043
1.00114
1.0026
1.00695
1.01591
1.04187
1.10016
1.26158
1.69175
2.95373
6.6998
11.81
11.2704
10.8862
10.9567
11.1668
11.3861
11.5148
11.6128
11.6917
11.7602
1
1.00002
1.00007
1.00016
1.00042
1.00096
1.00259
1.00586
1.01563
1.03624
1.09419
1.23387
1.62611
2.74521
6.07657
11.7931
11.2509
10.8047
10.863
11.0541
11.2665
11.3861
11.4747
11.5468
11.6171
1
1.00002
1.00006
1.00015
1.00036
1.00094
1.00219
1.00574
1.01323
1.03459
1.08254
1.21382
1.5568
2.55095
5.48281
11.634
11.1753
10.7016
10.7469
10.9105
11.1094
11.2139
11.2854
11.3418
11.4087
1
1.00002
1.00005
1.00014
1.00033
1.00086
1.00201
1.00512
1.01237
1.03078
1.07618
1.19257
1.50443
2.39464
5.03788
11.1882
10.9806
10.5863
10.6116
10.7319
10.9065
10.9873
11.0293
11.0508
11.0939
1
1.00002
1.00005
1.00012
1.0003
1.00076
1.00183
1.00467
1.01102
1.02835
1.06814
1.17502
1.45241
2.25008
4.59757
10.484
10.6973
10.5124
10.4661
10.527
10.655
10.697
10.6873
10.6358
10.5859
1
1.00001
1.00004
1.00011
1.00027
1.00068
1.00165
1.00415
1.00992
1.02529
1.06109
1.1561
1.40174
2.10393
4.15545
9.60537
10.5384
10.4127
10.2863
10.3077
10.3609
10.3442
10.2544
10.0338
9.69387
1
1.00001
1.00004
1.00009
1.00024
1.00059
1.00145
1.00365
1.00871
1.02229
1.05357
1.1369
1.3498
1.95415
3.70843
8.56757
10.4275
10.3142
10.0993
10.0675
10.0431
9.94932
9.69151
9.09007
7.53168
1
1.00001
1.00003
1.00008
1.0002
1.00052
1.00123
1.00318
1.00738
1.0193
1.0455
1.11727
1.29574
1.80014
3.24953
7.37263
10.3449
10.2164
9.93174
9.81982
9.73096
9.53635
9.12061
8.28854
6.64039
1
1.00001
1.00003
1.00007
1.00017
1.00042
1.00106
1.00253
1.00646
1.01525
1.0391
1.09468
1.24424
1.64243
2.79027
6.07041
10.2355
10.1098
9.79001
9.57861
9.42294
9.14536
8.62747
7.76587
6.42225
1
1.00001
1.00002
1.00006
1.00013
1.00036
1.00082
1.00215
1.00498
1.01278
1.03055
1.07685
1.19164
1.50025
2.36126
4.79352
9.91928
9.90613
9.67776
9.35747
9.12855
8.80332
8.2679
7.46906
6.39366
1
1.00001
1.00002
1.00005
1.00011
1.00029
1.00066
1.00177
1.00401
1.01058
1.02458
1.06313
1.15478
1.40372
2.09146
4.06897
9.02349
9.63154
9.47899
9.15323
8.86612
8.51739
8.00395
7.2887
6.39173
1
1
1.00001
1.00004
1.0001
1.00022
1.00058
1.00131
1.0035
1.00793
1.02103
1.04896
1.12674
1.31896
1.86214
3.40452
7.54909
9.35576
9.26244
8.99701
8.64853
8.28148
7.7984
7.16011
6.38765
1
1
1.00001
1.00003
1.00007
1.00018
1.00044
1.00105
1.00271
1.00628
1.01637
1.0384
1.0987
1.24576
1.65485
2.80011
5.99093
9.16601
9.11862
8.8929
8.48112
8.08945
7.63179
7.05775
6.38024
1
1
1.00001
1.00002
1.00005
1.00014
1.00032
1.00084
1.00192
1.00507
1.01151
1.03024
1.07084
1.18272
1.46483
2.25088
4.37931
8.7507
8.98002
8.79591
8.38183
7.94219
7.49573
6.97365
6.37137
1
1
1.00001
1.00002
1.00004
1.0001
1.00025
1.00063
1.00149
1.00382
1.00882
1.02297
1.05393
1.13847
1.34872
1.93795
3.57464
7.68465
8.72746
8.60751
8.28388
7.82193
7.38203
6.90195
6.36125
1
1
1
1.00001
1.00003
1.00008
1.0002
1.00045
1.00118
1.00268
1.0071
1.01616
1.04232
1.10054
1.26089
1.68089
2.86766
6.04257
8.45477
8.41268
8.19634
7.74544
7.29366
6.84085
6.35035
1
1
1
1.00001
1.00002
1.00005
1.00014
1.00032
1.00086
1.00193
1.00511
1.01152
1.03031
1.07073
1.18214
1.46116
2.22756
4.24563
7.99963
8.27541
8.11593
7.72606
7.23949
6.79494
6.34188
1
1
1
1.00001
1.00002
1.00004
1.0001
1.00023
1.00062
1.00139
1.00369
1.0083
1.02187
1.05077
1.13029
1.3254
1.86391
3.32528
6.91163
8.04981
7.9593
7.68516
7.21426
6.7669
6.33831
1
1
1
1
1.00001
1.00003
1.00007
1.00017
1.00043
1.001
1.00261
1.00591
1.01557
1.03584
1.09249
1.22667
1.59669
2.59363
5.22433
7.71842
7.7481
7.60006
7.22855
6.76799
6.341
1
1
1
1
1.00001
1.00002
1.00005
1.00012
1.00029
1.00071
1.00173
1.00415
1.01038
1.02458
1.06181
1.15029
1.38503
1.99847
3.59822
7.0177
7.61646
7.51402
7.22757
6.78261
6.35234
1
1
1
1
1.00001
1.00001
1.00003
1.00008
1.00019
1.00051
1.00113
1.003
1.00673
1.01768
1.04081
1.10449
1.25718
1.67323
2.77969
5.57139
7.36489
7.35217
7.20377
6.83855
6.38161
1
1
1
1
1
1.00001
1.00002
1.00005
1.00013
1.00033
1.00077
1.00196
1.00447
1.01162
1.02654
1.06845
1.16323
1.42145
2.07924
3.74409
6.83392
7.24878
7.15003
6.88498
6.44031
1
1
1
1
1
1.00001
1.00001
1.00004
1.00009
1.00022
1.0005
1.00131
1.00299
1.00765
1.01791
1.04475
1.1086
1.27389
1.70505
2.84401
5.62254
7.02663
7.01624
6.8747
6.54148
1
1
1
1
1
1
1.00001
1.00002
1.00006
1.00014
1.00033
1.00084
1.00198
1.00482
1.01184
1.02825
1.07022
1.17141
1.43669
2.11959
3.83018
6.52408
6.90486
6.82368
6.5938
1
1
1
1
1
1
1.00001
1.00002
1.00004
1.00009
1.00022
1.00052
1.00132
1.003
1.00779
1.01771
1.04561
1.10736
1.2744
1.6938
2.79264
5.387
6.67447
6.68753
6.57808
1
1
1
1
1
1
1
1.00001
1.00002
1.00006
1.00013
1.00035
1.00078
1.00201
1.0046
1.01161
1.02739
1.06766
1.16525
1.41619
2.05645
3.62356
6.1511
6.57693
6.52283
1
1
1
1
1
1
1
1.00001
1.00001
1.00004
1.00009
1.00021
1.00049
1.00125
1.00283
1.00736
1.01661
1.04297
1.1001
1.25571
1.63944
2.63474
4.98188
6.33198
6.40507
1
1
1
1
1
1
1
1
1.00001
1.00002
1.00005
1.00013
1.0003
1.00074
1.00178
1.00424
1.01044
1.02457
1.06087
1.1462
1.3662
1.90921
3.20324
5.76669
6.2914
1
1
1
1
1
1
1
1
1.00001
1.00001
1.00003
1.00008
1.00018
1.00047
1.00105
1.00272
1.00608
1.01576
1.036
1.09128
1.2198
1.55988
2.41077
4.48071
5.99115
1
1
1
1
1
1
1
1
1
1.00001
1.00002
1.00005
1.00011
1.00026
1.00067
1.0015
1.00387
1.00866
1.0224
1.05106
1.12934
1.31255
1.78381
2.90515
5.27886
1
1
1
1
1
1
1
1
1
1
1.00001
1.00003
1.00007
1.00016
1.0004
1.00089
1.0023
1.00515
1.01332
1.03014
1.07683
1.18183
1.46099
2.14308
3.78809
1
1
1
1
1
1
1
1
1
1
1.00001
1.00002
1.00004
1.0001
1.00022
1.00056
1.00125
1.00322
1.00718
1.01853
1.04213
1.10645
1.25532
1.63889
2.5613
1
1
1
1
1
1
1
1
1
1
1
1.00001
1.00002
1.00005
1.00013
1.0003
1.00076
1.0017
1.00437
1.00973
1.02498
1.05683
1.14266
1.34208
1.83888
1
1
1
1
1
1
1
1
1
1
1
1.00001
1.00001
1.00003
1.00007
1.00018
1.00041
1.00102
1.00242
1.00574
1.01408
1.03282
1.0815
1.19428
1.4858
1
1
1
1
1
1
1
1
1
1
1
1
1.00001
1.00002
1.00004
1.0001
1.00024
1.00055
1.00138
1.0032
1.00775
1.01858
1.04421
1.10743
1.26056
1
1
1
1
1
1
1
1
1
1
1
1
1
1.00001
1.00002
1.00006
1.00013
1.00032
1.00072
1.00184
1.00409
1.01047
1.02334
1.05923
1.13656
1
1
1
1
1
1
1
1
1
1
1
1
1
1.00001
1.00001
1.00003
1.00007
1.00018
1.0004
1.00102
1.00229
1.00577
1.01319
1.03242
1.07668
1
1
1
1
1
1
1
1
1
1
1
1
1
1
1.00001
1.00002
1.00004
1.00009
1.00023
1.00055
1.00128
1.00316
1.00716
1.01808
1.04095
1
1
1
1
1
1
1
1
1
1
1
1
1
1
1
1.00001
1.00002
1.00006
1.00013
1.00032
1.00072
1.00176
1.00416
1.00979
1.02382
1
1
1
1
1
1
1
1
1
1
1
1
1
1
1
1.00001
1.00001
1.00004
1.00008
1.0002
1.00046
1.00112
1.00267
1.00631
1.01551
1
1
1
1
1
1
1
1
1
1
1
1
1
1
1
1
1.00001
1.00002
1.00006
1.00014
1.00037
1.00084
1.00213
1.00503
1.0124
1
1
1
1
1
1
1
1
1
1
1
1
1
1
1
1
1.00001
1.00002
1.00005
1.00013
1.0003
1.0008
1.0018
1.00477
1.01093
1
1
1
1
1
1
1
1
1
1
1
1
1
1
1
1
1.00001
1.00002
1.00005
1.00012
1.00031
1.0007
1.00186
1.00427
1.0112
1
1
1
1
1
1
1
1
1
1
1
1
1
1
1
1
1.00001
1.00002
1.00005
1.00011
1.0003
1.00068
1.00184
1.00417
1.01116
1
1
1
1
1
1
1
1
1
1
1
1
1
1
1
1
1.00001
1.00002
1.00005
1.00011
1.0003
1.00068
1.00183
1.00414
1.01113
1
1
1
1
1
1
1
1
1
1
1
1
1
1
1
1
1.00001
1.00002
1.00005
1.00012
1.00029
1.00072
1.00171
1.00444
1.01041
3.02716
1.53359
1.03899
0.950086
0.980956
1.07702
1.2797
1.48681
1.6354
1.87125
2.36838
3.05802
3.27934
3.36539
3.37541
3.33032
3.26806
3.21643
3.18648
3.15988
3.12997
3.09312
3.05459
3.01656
2.97676
2.94905
2.93708
2.93405
2.94503
2.9881
3.06915
3.18489
3.32432
3.47645
3.62696
3.7673
3.89425
4.00658
4.10686
4.19319
4.26498
4.32461
4.37395
4.41705
4.44881
4.46939
4.4816
4.48699
4.48605
4.48104
4.46899
4.45023
4.42746
4.40191
4.3728
4.34098
4.30618
4.26932
4.23016
4.18954
4.14719
4.10385
4.05927
4.01404
3.96792
3.92138
3.87418
3.8267
3.77874
3.73059
3.68212
3.63357
3.58485
3.53618
3.48751
3.43903
3.39073
3.34276
3.29516
3.24804
3.20145
3.15547
3.11016
3.06555
3.02174
2.97871
2.93656
2.89528
2.85498
2.81566
2.77749
2.74047
2.70485
2.67074
2.6385
2.6085
2.58147
2.55849
2.54074
2.53356
3.73108
2.3394
1.74665
1.49904
1.38677
1.32445
1.33328
1.37727
1.49206
1.74501
2.26976
3.01309
3.30525
3.37085
3.35997
3.3177
3.25456
3.21569
3.20058
3.17135
3.13679
3.09357
3.04821
3.00816
2.97325
2.94593
2.9328
2.92926
2.93919
2.97763
3.05503
3.1692
3.30653
3.4588
3.60928
3.74862
3.87503
3.98598
4.09008
4.17829
4.25062
4.31158
4.36207
4.40537
4.43754
4.45934
4.47229
4.47813
4.4776
4.47379
4.46335
4.44361
4.42066
4.39539
4.36686
4.33545
4.30109
4.26452
4.22575
4.18537
4.14336
4.10021
4.0559
4.0108
3.96489
3.91843
3.8714
3.82398
3.77616
3.72808
3.67974
3.63127
3.58268
3.53408
3.48552
3.43711
3.38891
3.34102
3.29351
3.24646
3.19997
3.15406
3.10886
3.06434
3.02063
2.97769
2.93565
2.89449
2.85432
2.81515
2.77713
2.7403
2.70488
2.67098
2.63898
2.6092
2.58236
2.55955
2.54164
2.53548
4.5599
3.26348
2.44698
1.93163
1.60193
1.40107
1.32732
1.34209
1.40771
1.57919
1.96318
2.76261
3.2382
3.3436
3.33499
3.30716
3.25703
3.21691
3.18869
3.1582
3.12437
3.08504
3.04568
3.00993
2.97473
2.94625
2.92542
2.91673
2.92098
2.95694
3.03264
3.14485
3.27787
3.43155
3.58493
3.72661
3.85514
3.96934
4.0725
4.1607
4.2344
4.29628
4.34771
4.39027
4.42285
4.44563
4.45948
4.46584
4.46553
4.46271
4.45419
4.436
4.41182
4.38613
4.35809
4.32726
4.29352
4.25739
4.21911
4.1791
4.13752
4.09468
4.0507
4.00583
3.96015
3.91386
3.867
3.81972
3.77206
3.72412
3.67595
3.62761
3.57918
3.53072
3.48232
3.43403
3.38598
3.33821
3.29086
3.24395
3.19762
3.15187
3.10685
3.06252
3.01899
2.97628
2.93448
2.89356
2.85362
2.81474
2.77707
2.74061
2.70561
2.67215
2.64065
2.6114
2.58515
2.563
2.54543
2.54082
5.01774
3.84172
2.97246
2.36709
1.96353
1.69472
1.5312
1.47658
1.4909
1.55934
1.75364
2.20007
3.02021
3.2886
3.32113
3.30714
3.27161
3.22496
3.19037
3.15793
3.12177
3.08303
3.04424
3.00584
2.97048
2.94305
2.9249
2.91732
2.92451
2.95754
3.02861
3.13598
3.26656
3.40977
3.55857
3.69868
3.82604
3.9402
4.04228
4.13131
4.20681
4.27026
4.32294
4.36605
4.39948
4.42346
4.43851
4.44584
4.44582
4.44401
4.43765
4.42288
4.39803
4.37175
4.34402
4.31394
4.28109
4.24574
4.20817
4.16877
4.12776
4.08542
4.04191
3.99744
3.95213
3.90613
3.85958
3.81255
3.76516
3.71746
3.66954
3.62143
3.57325
3.525
3.47683
3.42875
3.38092
3.33336
3.28625
3.23957
3.19351
3.14804
3.10333
3.05932
3.01604
2.97369
2.93231
2.89181
2.85243
2.81407
2.77699
2.74119
2.70693
2.67431
2.64375
2.6156
2.59053
2.56977
2.55333
2.5512
5.29364
4.26158
3.42378
2.79155
2.32986
1.997
1.76054
1.6001
1.54944
1.56885
1.65685
1.90766
2.48518
3.12531
3.29548
3.30314
3.2881
3.24939
3.20338
3.16495
3.12722
3.08872
3.05054
3.01436
2.98337
2.96094
2.94874
2.94976
2.9614
2.99747
3.06935
3.16081
3.27201
3.39908
3.52885
3.66065
3.78557
3.90024
4.00328
4.09378
4.17123
4.23659
4.29087
4.33514
4.36974
4.39507
4.41157
4.42014
4.42111
4.41987
4.41524
4.40394
4.3811
4.35461
4.3268
4.29724
4.26529
4.2309
4.19423
4.15563
4.11534
4.07363
4.03069
3.98671
3.94186
3.89627
3.8501
3.80343
3.75638
3.709
3.6614
3.6136
3.56572
3.51777
3.46989
3.4221
3.37457
3.32732
3.28054
3.2342
3.18854
3.14347
3.09918
3.05563
3.01308
2.97121
2.93033
2.89043
2.8517
2.81411
2.77789
2.74306
2.70992
2.67861
2.64955
2.62309
2.6
2.5814
2.56782
2.56829
5.48009
4.58298
3.80546
3.17561
2.68495
2.30903
2.02594
1.82015
1.6766
1.65481
1.68293
1.79269
2.08274
2.70708
3.18403
3.29258
3.28984
3.2731
3.23437
3.18415
3.14107
3.10281
3.06711
3.03648
3.01423
3.00319
3.00492
3.01674
3.04993
3.11155
3.1729
3.23751
3.31436
3.40347
3.50218
3.6084
3.7243
3.84152
3.94983
4.0448
4.12564
4.1935
4.24966
4.29547
4.33161
4.35864
4.37698
4.38733
4.38994
4.38912
4.38583
4.37741
4.35956
4.33362
4.30576
4.27652
4.24539
4.21203
4.17644
4.13881
4.09941
4.05847
4.01624
3.97288
3.9286
3.88354
3.83786
3.79163
3.74502
3.69805
3.65086
3.60343
3.55592
3.50832
3.4608
3.41337
3.36623
3.31936
3.27305
3.22712
3.18201
3.13756
3.09393
3.05101
3.00903
2.96788
2.92777
2.88871
2.85095
2.81447
2.77951
2.74611
2.71466
2.6853
2.65854
2.63472
2.61479
2.59922
2.59171
2.59285
5.60874
4.82913
4.11766
3.51059
3.01195
2.61187
2.29557
2.04923
1.86714
1.74024
1.7428
1.78023
1.90655
2.21719
2.85553
3.21371
3.28177
3.27662
3.25783
3.21728
3.16767
3.12495
3.09161
3.07044
3.06329
3.06677
3.08297
3.12635
3.21516
3.29309
3.33821
3.36934
3.40134
3.43686
3.49181
3.55087
3.63601
3.75262
3.87131
3.97733
4.0668
4.14031
4.19987
4.24785
4.28579
4.31476
4.33528
4.34794
4.353
4.35263
4.3506
4.34488
4.33217
4.30884
4.28172
4.25283
4.22234
4.18994
4.15547
4.11895
4.08059
4.04057
3.99916
3.95655
3.91296
3.86852
3.82343
3.77776
3.73168
3.6852
3.63848
3.59151
3.54443
3.49726
3.45017
3.40318
3.35654
3.31016
3.26445
3.2194
3.175
3.13125
3.08834
3.04617
3.00497
2.96471
2.92562
2.88773
2.85134
2.81631
2.78308
2.75172
2.72264
2.69604
2.6725
2.65237
2.63679
2.62592
2.62455
2.62632
5.70162
5.01635
4.3698
3.79499
3.30349
2.89361
2.55711
2.2844
2.06905
1.90386
1.81119
1.81768
1.86502
2.00755
2.32759
2.96339
3.22155
3.2675
3.26177
3.24287
3.20239
3.15696
3.12432
3.11704
3.12155
3.1407
3.1919
3.30424
3.45685
3.54091
3.55935
3.55534
3.54024
3.5082
3.50932
3.52543
3.56503
3.64358
3.76122
3.87936
3.98403
4.07015
4.13803
4.19097
4.23201
4.26335
4.28627
4.30154
4.30962
4.31056
4.30956
4.30604
4.2975
4.27974
4.25423
4.22606
4.19622
4.16468
4.13127
4.0959
4.05867
4.01971
3.97927
3.93753
3.89475
3.85105
3.80665
3.76162
3.71614
3.67023
3.62405
3.57758
3.531
3.48431
3.43774
3.39128
3.34526
3.29976
3.25488
3.21059
3.16703
3.12411
3.08205
3.0408
3.00064
2.96155
2.92385
2.88757
2.85288
2.81988
2.78901
2.76042
2.73458
2.71177
2.69254
2.67741
2.66689
2.66358
2.66455
2.66851
5.76985
5.16051
4.57288
4.03422
3.55884
3.14933
2.8032
2.51362
2.2755
2.08447
1.93921
1.8742
1.88528
1.94157
2.09775
2.44353
3.01008
3.21491
3.25223
3.24742
3.23158
3.19854
3.16936
3.17215
3.18802
3.23532
3.34516
3.57045
3.77278
3.83626
3.82842
3.79529
3.71638
3.605
3.53741
3.53027
3.54251
3.57583
3.64366
3.75207
3.86764
3.97064
4.05433
4.11894
4.16767
4.20386
4.23033
4.24866
4.25981
4.26393
4.26352
4.26158
4.25627
4.2446
4.22274
4.19626
4.16735
4.13664
4.10421
4.06994
4.03387
3.99605
3.9567
3.91597
3.87411
3.83126
3.78765
3.74336
3.69857
3.65331
3.60773
3.56183
3.51582
3.4697
3.42375
3.37811
3.33304
3.28846
3.24452
3.20112
3.15849
3.11654
3.07557
3.03553
2.99676
2.95926
2.92345
2.88914
2.85675
2.82652
2.79885
2.77401
2.75249
2.73462
2.7209
2.71171
2.70839
2.70905
2.71172
2.71927
5.82035
5.27357
4.73751
4.23541
3.78059
3.37905
3.03041
2.73195
2.47895
2.26829
2.09886
1.97219
1.93203
1.94827
2.013
2.18466
2.55507
3.03451
3.20518
3.24038
3.23854
3.2311
3.22552
3.23452
3.27051
3.36518
3.57268
3.93477
4.14768
4.16364
4.13885
4.06235
3.9003
3.73007
3.61256
3.55256
3.54719
3.557
3.58468
3.6417
3.73419
3.84107
3.94006
4.02189
4.08513
4.13197
4.16564
4.18887
4.20393
4.21185
4.21306
4.21223
4.20926
4.20199
4.18671
4.16284
4.13539
4.10574
4.0743
4.0411
4.00617
3.96954
3.93138
3.89178
3.85098
3.80911
3.76641
3.72295
3.67894
3.63439
3.58949
3.54422
3.49883
3.45345
3.40848
3.36389
3.31986
3.27627
3.23334
3.19097
3.14945
3.10874
3.06916
3.0307
2.99377
2.95845
2.92491
2.89321
2.86394
2.83737
2.81393
2.79399
2.77797
2.76614
2.75872
2.75658
2.75725
2.75968
2.76542
2.77834
5.86127
5.36449
4.87302
4.40495
3.97284
3.58319
3.2379
2.93592
2.67447
2.45078
2.26285
2.11244
2.00313
1.98298
2.00389
2.07652
2.25889
2.63975
3.04869
3.19958
3.23468
3.24867
3.2641
3.29941
3.38164
3.56266
3.93815
4.37747
4.53976
4.52647
4.46601
4.32057
4.08154
3.87544
3.72416
3.62567
3.57347
3.56321
3.56979
3.59025
3.63392
3.70804
3.80321
3.89575
3.97572
4.03909
4.08601
4.11887
4.14061
4.15327
4.15872
4.15854
4.15714
4.15301
4.14363
4.12466
4.09973
4.07168
4.04146
4.00938
3.9756
3.94018
3.90326
3.86488
3.82526
3.78449
3.74281
3.70029
3.65716
3.6134
3.56924
3.52466
3.48021
3.43594
3.39214
3.34868
3.30576
3.26329
3.22154
3.18044
3.14033
3.1012
3.06343
3.02709
2.99264
2.95997
2.92932
2.90123
2.87613
2.85441
2.83645
2.82262
2.81325
2.80795
2.80771
2.8086
2.81127
2.81713
2.82534
2.84217
5.89398
5.43884
4.98585
4.54941
4.14027
3.765
3.42648
3.1251
2.85939
2.62743
2.42732
2.25856
2.12546
2.03143
2.02962
2.05362
2.13192
2.31933
2.70364
3.06363
3.20208
3.24985
3.2967
3.37481
3.53497
3.86354
4.45796
4.86854
4.92819
4.8933
4.78158
4.5424
4.26461
4.03701
3.86352
3.73629
3.64882
3.59622
3.57481
3.57774
3.58961
3.61861
3.67633
3.75596
3.84168
3.91958
3.98353
4.03174
4.06519
4.08628
4.09784
4.10105
4.10048
4.09824
4.09256
4.08039
4.05926
4.0336
4.00509
3.9744
3.94191
3.90776
3.87213
3.83504
3.7967
3.75714
3.71662
3.67517
3.63302
3.59013
3.54682
3.50337
3.46018
3.4172
3.37466
3.33244
3.2908
3.24966
3.20936
3.16987
3.13156
3.09452
3.05914
3.02569
2.99425
2.96487
2.93829
2.91501
2.89535
2.87986
2.86855
2.86195
2.85964
2.86019
2.86208
2.86634
2.87335
2.88085
2.88705
2.90021
5.92169
5.50091
5.0817
4.67436
4.2873
3.92745
3.59772
3.29979
3.03296
2.79627
2.58803
2.40741
2.25557
2.13489
2.06435
2.06783
2.09677
2.18243
2.37439
2.7622
3.08918
3.23218
3.33661
3.47849
3.76594
4.3522
5.06277
5.34326
5.32631
5.24464
5.04759
4.72863
4.44186
4.20808
4.02141
3.87337
3.75796
3.67199
3.61371
3.57956
3.57683
3.58025
3.59613
3.63306
3.70219
3.77862
3.85428
3.91948
3.96979
4.00491
4.02649
4.03698
4.03883
4.03793
4.03488
4.02767
4.01279
3.99049
3.96432
3.93549
3.90463
3.87196
3.83776
3.80205
3.76509
3.72685
3.68762
3.64736
3.60631
3.56447
3.52249
3.48048
3.43875
3.39718
3.35604
3.31527
3.27515
3.23569
3.19721
3.15982
3.12388
3.08963
3.05756
3.02758
2.99983
2.97514
2.95404
2.93704
2.92414
2.91621
2.91237
2.91279
2.91444
2.91825
2.92494
2.93213
2.93765
2.94101
2.94293
2.94744
5.95106
5.55778
5.16779
4.78538
4.41891
4.07357
3.75375
3.4605
3.19482
2.9557
2.74236
2.55388
2.3894
2.25313
2.14215
2.09461
2.10205
2.13686
2.23085
2.4333
2.83243
3.15444
3.3672
3.62008
4.12394
5.0523
5.6689
5.74749
5.69938
5.54983
5.23879
4.90277
4.61905
4.38493
4.18962
4.02552
3.88833
3.77587
3.68709
3.62151
3.5798
3.56363
3.5612
3.5674
3.58931
3.63736
3.70733
3.78024
3.8462
3.8991
3.93671
3.95927
3.97042
3.9715
3.97039
3.96674
3.95835
3.94137
3.91839
3.89195
3.86311
3.83226
3.79974
3.76561
3.73016
3.69338
3.65558
3.61663
3.57688
3.53659
3.49629
3.45595
3.41583
3.37589
3.3364
3.29741
3.25918
3.22186
3.18575
3.15113
3.1184
3.08801
3.05988
3.03414
3.01175
2.99343
2.97925
2.97011
2.96489
2.96526
2.96686
2.97025
2.97726
2.98605
2.99245
2.99603
2.9953
2.99275
2.98708
2.97876
5.98758
5.61429
5.24674
4.88583
4.53735
4.20609
3.89579
3.60862
3.34519
3.10577
2.88931
2.69566
2.52328
2.37431
2.24968
2.15318
2.12492
2.1378
2.18178
2.29253
2.52388
2.96309
3.36147
3.81854
4.74156
5.80946
6.16224
6.13323
6.0177
5.75435
5.39069
5.06851
4.79627
4.56334
4.36117
4.18434
4.03018
3.89699
3.78437
3.69211
3.62076
3.57062
3.54602
3.53137
3.53292
3.54409
3.57267
3.63066
3.6973
3.76292
3.81787
3.85817
3.88404
3.89674
3.89884
3.89771
3.89382
3.88483
3.86675
3.84343
3.81699
3.78824
3.7577
3.72542
3.69173
3.65664
3.62043
3.58303
3.54502
3.50666
3.46825
3.42979
3.39153
3.35355
3.31609
3.27933
3.24353
3.20899
3.17608
3.14519
3.11696
3.091
3.06776
3.0482
3.03302
3.02276
3.01661
3.01669
3.01806
3.02162
3.02938
3.03957
3.04813
3.05393
3.05341
3.05106
3.04541
3.03282
3.00999
2.98906
6.03893
5.67289
5.32099
4.97806
4.64443
4.32624
4.02529
3.7447
3.48467
3.24639
3.02852
2.83183
2.65409
2.49728
2.36048
2.25051
2.16831
2.16899
2.18969
2.2524
2.40294
2.71079
3.32125
4.07325
5.57734
6.45164
6.50718
6.4372
6.24113
5.87267
5.52816
5.22999
4.96941
4.73764
4.52987
4.34336
4.17631
4.02766
3.89678
3.7836
3.68844
3.61197
3.555
3.52008
3.49822
3.48828
3.49277
3.50987
3.5479
3.60764
3.66899
3.72512
3.76977
3.80018
3.81648
3.82086
3.81991
3.81622
3.80745
3.78965
3.76651
3.74011
3.71162
3.68136
3.64966
3.61656
3.5822
3.54682
3.51097
3.47479
3.4385
3.40223
3.3662
3.33061
3.29571
3.2618
3.22923
3.19839
3.16983
3.14414
3.12089
3.1006
3.08445
3.0733
3.06651
3.06611
3.06746
3.07124
3.07959
3.09198
3.103
3.11119
3.11287
3.11157
3.10723
3.0968
3.07548
3.04638
3.01531
2.98764
6.10783
5.73381
5.39076
5.06126
4.74251
4.43548
4.14416
3.86998
3.61458
3.37795
3.16058
2.96164
2.78108
2.61884
2.47418
2.35495
2.25353
2.22542
2.2363
2.28272
2.4091
2.68713
3.27028
4.44665
6.30758
6.84624
6.79855
6.64556
6.32979
5.9804
5.66523
5.38478
5.13185
4.90174
4.69147
4.49917
4.32349
4.16354
4.01895
3.88956
3.77575
3.67806
3.59703
3.53353
3.48967
3.46086
3.4393
3.43972
3.4472
3.4682
3.51207
3.56859
3.62561
3.6736
3.70828
3.72918
3.73781
3.73731
3.73446
3.72692
3.71113
3.68844
3.66211
3.6338
3.60415
3.57319
3.54112
3.50827
3.47491
3.44121
3.40741
3.37374
3.34047
3.30787
3.2763
3.24611
3.21787
3.19204
3.16956
3.14938
3.13266
3.12076
3.11347
3.11268
3.1141
3.11817
3.12716
3.14172
3.15582
3.16659
3.17244
3.17166
3.16834
3.16042
3.14395
3.1153
3.08239
3.04634
3.01026
2.97733
6.17801
5.7977
5.4578
5.13825
4.83139
4.5359
4.25359
3.98622
3.73584
3.50166
3.28584
3.08583
2.90392
2.73832
2.58942
2.46533
2.35691
2.32339
2.33449
2.37844
2.50298
2.79573
3.44097
4.81401
6.61895
7.00679
6.94592
6.77201
6.43706
6.10998
5.81047
5.53898
5.2913
5.06343
4.8523
4.65617
4.47375
4.30469
4.14876
4.00638
3.87762
3.76274
3.66232
3.57699
3.50746
3.45543
3.41915
3.39114
3.37626
3.37917
3.39114
3.41871
3.46857
3.52079
3.56992
3.60931
3.63588
3.64978
3.65115
3.6495
3.64394
3.6315
3.60931
3.58362
3.55599
3.52727
3.49774
3.46762
3.43709
3.40632
3.37555
3.34507
3.31525
3.28645
3.25922
3.23403
3.21166
3.19285
3.17638
3.16415
3.15647
3.15568
3.15723
3.16163
3.17149
3.18784
3.20427
3.21969
3.22878
3.23032
3.22871
3.22336
3.21053
3.1851
3.15291
3.11635
3.07707
3.03641
2.99771
2.96228
6.29988
5.88454
5.53004
5.21347
4.91562
4.62953
4.35623
4.09509
3.8499
3.61855
3.40466
3.20503
3.02247
2.85613
2.70606
2.58343
2.47949
2.47312
2.49139
2.55488
2.72303
3.08968
3.8457
5.06607
6.34778
6.88361
6.87181
6.79614
6.61083
6.28562
5.97456
5.69875
5.45039
5.22237
5.00984
4.81021
4.62228
4.44573
4.28078
4.12781
3.98708
3.8588
3.74321
3.64066
3.55156
3.47694
3.41693
3.37513
3.33868
3.31299
3.31157
3.31648
3.33182
3.36496
3.41318
3.46268
3.50555
3.53724
3.55627
3.56309
3.56226
3.55851
3.54917
3.53016
3.50598
3.47965
3.4525
3.42511
3.39775
3.37049
3.34352
3.31713
3.29181
3.26808
3.24665
3.2284
3.2137
3.2021
3.1941
3.19359
3.1953
3.20031
3.21155
3.22971
3.24888
3.26695
3.28191
3.28753
3.28654
3.28262
3.27324
3.2541
3.22303
3.18717
3.14748
3.1055
3.06281
3.02024
2.9809
2.94531
6.34316
5.97507
5.60981
5.2902
4.99714
4.71876
4.45275
4.19812
3.95772
3.72996
3.51788
3.3201
3.13812
2.97341
2.82881
2.712
2.65495
2.66527
2.71156
2.83891
3.12601
3.71391
4.42329
5.0585
5.80053
6.45203
6.70131
6.68703
6.61858
6.45307
6.16284
5.87935
5.62008
5.38343
5.16443
4.95922
4.76575
4.58289
4.41081
4.24958
4.09957
3.96074
3.8333
3.71728
3.613
3.52087
3.44164
3.37564
3.32637
3.28365
3.25265
3.23689
3.23879
3.24724
3.26743
3.308
3.35337
3.39767
3.43416
3.45865
3.47247
3.47329
3.47164
3.46602
3.45352
3.43129
3.40713
3.3825
3.35834
3.33488
3.31234
3.29119
3.27181
3.2551
3.24151
3.23232
3.22503
3.22525
3.2274
3.233
3.24568
3.26615
3.28822
3.31035
3.32843
3.34074
3.34172
3.33971
3.33323
3.31836
3.29031
3.25677
3.21743
3.17509
3.13138
3.08713
3.04358
3.00131
2.96291
2.92886
6.32268
6.09997
5.71327
5.37576
5.07916
4.80469
4.54467
4.29588
4.05999
3.83622
3.62683
3.43195
3.25332
3.09511
2.96339
2.88153
2.88668
2.92287
3.03269
3.28787
3.81289
4.41329
4.78343
5.04039
5.37218
5.87845
6.31522
6.51686
6.50862
6.45779
6.33011
6.08382
5.81384
5.55758
5.32224
5.10556
4.90395
4.71454
4.53627
4.36856
4.2113
4.06431
3.92758
3.80112
3.68499
3.57944
3.48489
3.40192
3.33134
3.27502
3.22796
3.18999
3.16337
3.16098
3.16455
3.17629
3.20208
3.24413
3.28831
3.32784
3.35863
3.37768
3.38681
3.38633
3.38358
3.37624
3.36091
3.34148
3.32148
3.30211
3.28459
3.26984
3.25815
3.25109
3.2465
3.24742
3.25081
3.25865
3.27352
3.2958
3.32088
3.34664
3.36988
3.38701
3.39363
3.3926
3.38825
3.37751
3.35538
3.32318
3.28519
3.24335
3.1992
3.15402
3.10912
3.06499
3.02255
2.98221
2.94587
2.91458
6.26237
6.12753
5.83216
5.47463
5.16582
4.89021
4.63372
4.38977
4.15821
3.93899
3.73342
3.54351
3.37325
3.23086
3.13263
3.13546
3.16828
3.2748
3.52662
4.04762
4.6209
4.90185
5.00279
5.05885
5.17518
5.40166
5.75465
6.1245
6.34635
6.36172
6.32861
6.23004
6.01991
5.75211
5.49351
5.25769
5.04253
4.84367
4.65806
4.48405
4.32041
4.16672
4.02255
3.88785
3.76245
3.64648
3.54013
3.44383
3.35811
3.2837
3.2219
3.17067
3.12617
3.0945
3.08008
3.0814
3.08788
3.10418
3.13747
3.17885
3.22116
3.25721
3.28363
3.29958
3.30696
3.30658
3.3044
3.29874
3.28702
3.27411
3.264
3.25692
3.25675
3.25826
3.26262
3.27286
3.29261
3.31723
3.34483
3.37487
3.4031
3.42489
3.44029
3.44064
3.43839
3.43117
3.4149
3.38565
3.35019
3.30889
3.26476
3.2194
3.17356
3.12834
3.08446
3.04243
3.00259
2.96528
2.93168
2.90381
6.16383
6.09987
5.92421
5.57711
5.25718
4.97651
4.72084
4.48067
4.25354
4.03933
3.8405
3.66036
3.50987
3.40124
3.40321
3.43673
3.548
3.81288
4.36231
4.93444
5.1891
5.18823
5.16496
5.10704
5.11333
5.16544
5.30735
5.6008
5.97726
6.21616
6.24741
6.21897
6.13002
5.93823
5.67897
5.42332
5.18922
4.9759
4.77958
4.59726
4.42663
4.26646
4.11588
3.97442
3.84168
3.71756
3.60208
3.49549
3.39811
3.31044
3.23306
3.1669
3.11176
3.06294
3.02562
3.00183
2.99947
3.00244
3.01238
3.03461
3.07414
3.11715
3.15787
3.19149
3.21659
3.23289
3.24241
3.2484
3.24947
3.25038
3.25232
3.25644
3.26454
3.27861
3.2989
3.32535
3.35739
3.39204
3.4255
3.45459
3.4753
3.48431
3.4832
3.47852
3.46705
3.44328
3.41012
3.37044
3.32744
3.28176
3.23555
3.18965
3.1452
3.10221
3.061
3.02184
2.98502
2.95111
2.92049
2.89657
5.99991
6.00372
5.91905
5.70778
5.36854
5.07032
4.80928
4.57076
4.34833
4.1416
3.95389
3.79685
3.68304
3.68529
3.72228
3.84455
4.13396
4.73198
5.31799
5.53211
5.5172
5.4491
5.29749
5.12633
5.06707
5.07884
5.13006
5.2588
5.524
5.85665
6.07372
6.11136
6.08768
6.01072
5.84098
5.59774
5.34909
5.1185
4.90724
4.71291
4.53277
4.36478
4.2075
4.05971
3.92069
3.78986
3.66711
3.55248
3.44608
3.34823
3.25922
3.17969
3.11004
3.05205
2.99985
2.95765
2.92886
2.91795
2.91954
2.92626
2.94264
2.97604
3.01923
3.06476
3.10722
3.1434
3.17201
3.1948
3.21363
3.23078
3.24962
3.26955
3.2931
3.3222
3.35751
3.39639
3.43559
3.47096
3.49908
3.51823
3.51968
3.51722
3.51002
3.49387
3.46432
3.42735
3.38512
3.34007
3.29382
3.24816
3.20336
3.15964
3.11758
3.07731
3.03909
3.00319
2.96973
2.93976
2.91263
2.89368
5.57923
5.90101
5.87239
5.74993
5.48567
5.17286
4.90195
4.66327
4.44706
4.25272
4.09006
3.97625
3.98
4.02368
4.16333
4.48872
5.15499
5.75602
5.92854
5.90301
5.80475
5.59485
5.36153
5.17896
5.06713
5.05419
5.06696
5.11315
5.22239
5.44404
5.71492
5.9065
5.95704
5.93965
5.87732
5.73521
5.50956
5.27086
5.04511
4.83586
4.64293
4.46454
4.2989
4.14409
3.99873
3.86174
3.73272
3.61146
3.49793
3.39214
3.29427
3.20459
3.12376
3.05201
2.99131
2.93753
2.89273
2.86014
2.84203
2.84273
2.84768
2.86103
2.88923
2.93417
2.98606
3.03963
3.09065
3.13687
3.17882
3.21835
3.2577
3.29823
3.34137
3.38615
3.43147
3.47407
3.51077
3.53624
3.54925
3.54822
3.54361
3.5323
3.50906
3.4763
3.43664
3.39302
3.34802
3.30263
3.25766
3.21364
3.17105
3.13001
3.09086
3.05376
3.01898
2.98694
2.95756
2.93245
2.90969
2.89643
4.63037
5.66612
5.77912
5.72769
5.58286
5.289
5.00652
4.76548
4.55875
4.38955
4.27938
4.28612
4.33986
4.50405
4.87755
5.63272
6.2496
6.36576
6.32895
6.20185
5.93908
5.66926
5.44756
5.27725
5.15216
5.07482
5.05095
5.05678
5.08632
5.16464
5.32777
5.54789
5.72414
5.79002
5.77819
5.73151
5.62197
5.41423
5.19103
4.96929
4.76131
4.56955
4.39307
4.22956
4.07678
3.9332
3.79801
3.67081
3.55116
3.43897
3.33408
3.2368
3.14739
3.06633
2.99417
2.93181
2.87817
2.83245
2.79805
2.77656
2.77692
2.78107
2.79306
2.81951
2.86944
2.93248
3.00221
3.07419
3.14514
3.21347
3.27865
3.34122
3.40088
3.45577
3.50284
3.53987
3.56276
3.56659
3.56466
3.5583
3.54376
3.51506
3.47916
3.43813
3.39502
3.35079
3.30659
3.2629
3.22028
3.1789
3.13922
3.10135
3.06568
3.03237
3.00177
2.97437
2.95005
2.93089
2.91289
2.9061
2.96983
5.10709
5.65407
5.65642
5.58995
5.42353
5.13786
4.89143
4.7004
4.59198
4.60331
4.67198
4.86967
5.30678
6.1731
6.76198
6.82461
6.77743
6.62458
6.31391
6.01385
5.76874
5.57366
5.4127
5.27635
5.16289
5.07946
5.0314
5.02317
5.03544
5.08082
5.18456
5.36868
5.52603
5.60766
5.60156
5.56922
5.48582
5.31415
5.10281
4.88501
4.6803
4.4919
4.31792
4.15617
4.00488
3.8631
3.72989
3.60452
3.48669
3.37606
3.2729
3.17717
3.08923
3.00935
2.93806
2.87584
2.82341
2.78
2.74725
2.72847
2.72974
2.73566
2.7508
2.78275
2.84079
2.91723
3.00752
3.10534
3.20433
3.29829
3.38335
3.45578
3.51203
3.55176
3.57426
3.57352
3.56967
3.56083
3.54271
3.51177
3.47361
3.43274
3.39051
3.34787
3.30526
3.26336
3.22236
3.18277
3.14469
3.10858
3.07456
3.04307
3.01435
2.98885
2.96701
2.94926
2.93558
2.92418
2.92427
2.18615
3.84863
5.30218
5.57343
5.55912
5.48065
5.29826