/*--------------------------------*- C++ -*----------------------------------*\
  =========                 |
  \\      /  F ield         | OpenFOAM: The Open Source CFD Toolbox
   \\    /   O peration     | Website:  https://openfoam.org
    \\  /    A nd           | Version:  13
     \\/     M anipulation  |
\*---------------------------------------------------------------------------*/
FoamFile
{
    format      ascii;
    class       surfaceScalarField;
    location    "4.5";
    object      phi;
}
// * * * * * * * * * * * * * * * * * * * * * * * * * * * * * * * * * * * * * //

dimensions      [1 0 -1 0 0 0 0];

internalField   nonuniform List<scalar> 
10325
(
0.00840003
5.41158e-11
0.00840002
7.09681e-10
0.00840007
1.11589e-09
0.00839993
6.80005e-09
0.00840016
1.04711e-08
0.00839973
3.76896e-08
0.00840001
9.04178e-08
0.00839934
1.9472e-07
0.00839909
6.27424e-07
0.00839686
1.13531e-06
0.00839599
3.7571e-06
0.00838227
9.12705e-06
0.00835429
3.08966e-05
0.00824223
0.000111484
0.00767145
0.000570067
0.00700603
0.000665552
0.00637606
0.000630065
0.00572644
0.0006497
0.00504533
0.000681327
0.00432329
0.000722045
0.00355217
0.000771036
0.00273165
0.000820647
0.00186628
0.000864634
0.000957057
0.000909239
0.000957094
0.00840003
2.19514e-10
0.00840005
8.99597e-10
0.00839996
4.20974e-09
0.00840019
8.58709e-09
0.00839962
3.13729e-08
0.00840101
5.65925e-08
0.00839774
2.00864e-07
0.00840495
3.54251e-07
0.00838969
1.21484e-06
0.00841302
2.42901e-06
0.00837699
7.3295e-06
0.00839946
1.91913e-05
0.00834366
6.17636e-05
0.00824258
0.000224528
0.00768289
0.00112669
0.00700179
0.00134647
0.00637987
0.00125209
0.0057396
0.00129005
0.00506284
0.00135829
0.00433322
0.00145168
0.00355285
0.00155132
0.00272373
0.00164989
0.00184685
0.0017408
0.000931382
0.00182472
0.00188851
0.00840003
2.56473e-10
0.00840005
1.54378e-09
0.00839998
5.63305e-09
0.00840015
1.54055e-08
0.00839974
4.07792e-08
0.00840069
1.07967e-07
0.00839846
2.37301e-07
0.00840264
7.12777e-07
0.00839387
1.38414e-06
0.00840625
4.35838e-06
0.00838349
9.78905e-06
0.00839556
2.94749e-05
0.00835064
8.95855e-05
0.00825519
0.000327681
0.00775945
0.00162009
0.00706763
0.00203822
0.00644326
0.00187661
0.00580717
0.00192622
0.00513444
0.00203118
0.00440319
0.00218305
0.0036156
0.00233875
0.00277639
0.00248921
0.00188332
0.00263314
0.000948026
0.00276006
0.00283657
0.00840003
3.93036e-10
0.00840002
1.75089e-09
0.00840007
7.78519e-09
0.00839993
1.68961e-08
0.00840024
5.69886e-08
0.00839953
1.11776e-07
0.00840076
3.64598e-07
0.00839814
6.90241e-07
0.00840184
2.23063e-06
0.00839393
4.62235e-06
0.00840102
1.3666e-05
0.00838189
3.57121e-05
0.00836762
0.000113833
0.00828496
0.000406
0.00791715
0.00198782
0.00721967
0.002736
0.00658116
0.00251521
0.0059425
0.00256495
0.00527049
0.00270338
0.00453824
0.00291513
0.00374528
0.00313181
0.00289115
0.00334335
0.00197514
0.00354858
0.001001
0.00373427
0.00383766
0.00840003
2.42521e-10
0.00840001
2.64186e-09
0.00840007
6.02753e-09
0.00839992
2.57469e-08
0.00840029
4.65393e-08
0.00839929
1.64611e-07
0.00840174
3.13697e-07
0.00839597
9.89569e-07
0.00840802
2.07736e-06
0.00838534
5.95558e-06
0.00841483
1.43701e-05
0.00837704
4.12361e-05
0.00839031
0.000125792
0.00833564
0.000447296
0.00819165
0.00213375
0.00748933
0.00343875
0.00681201
0.00319272
0.00615772
0.00321929
0.00548202
0.00337934
0.00474698
0.00365024
0.00394538
0.00393312
0.00307351
0.00421569
0.00211954
0.00450163
0.00108675
0.0047669
0.00492433
0.00840003
4.56924e-10
0.00840005
1.8022e-09
0.00839999
8.93084e-09
0.00840013
1.77205e-08
0.00839976
6.54666e-08
0.00840074
1.22381e-07
0.00839838
4.07667e-07
0.00840414
7.87228e-07
0.00839219
2.44692e-06
0.00841392
5.23605e-06
0.00838282
1.50323e-05
0.00841861
3.89912e-05
0.00839616
0.000120701
0.00844035
0.000417217
0.00867877
0.00189175
0.00796213
0.00415509
0.00718034
0.0039745
0.0064884
0.0039113
0.00579355
0.00407417
0.00505426
0.00438975
0.00423657
0.00475079
0.00333455
0.0051177
0.00233613
0.00549912
0.00121965
0.00588366
0.00614413
0.00840003
2.72642e-10
0.00840003
2.19985e-09
0.00840004
6.42368e-09
0.00840001
2.17636e-08
0.0084001
4.80699e-08
0.00839975
1.4657e-07
0.00840083
2.93998e-07
0.00839794
9.17608e-07
0.00840477
1.79978e-06
0.00839316
5.47876e-06
0.00841256
1.21729e-05
0.00839839
3.51443e-05
0.00843373
0.000100404
0.0085018
0.000339836
0.00893131
0.00146499
0.008391
0.00469481
0.00754877
0.00481681
0.00684811
0.00461198
0.00616956
0.00475295
0.00543325
0.00512582
0.00461066
0.0055734
0.00368718
0.0060413
0.00263793
0.0065482
0.0014227
0.00709847
0.0075668
0.00840003
3.76906e-10
0.00840002
1.86138e-09
0.00840007
7.42936e-09
0.00839996
1.81038e-08
0.00840021
5.44143e-08
0.00839968
1.17337e-07
0.0084008
3.49244e-07
0.00839867
6.97964e-07
0.00840253
2.13956e-06
0.00839635
4.36882e-06
0.00840684
1.27547e-05
0.00839635
3.13004e-05
0.00841607
9.41999e-05
0.00844089
0.000308403
0.00860514
0.00130146
0.00830745
0.00499223
0.00764085
0.00548324
0.00709609
0.00515675
0.00648062
0.00536863
0.00581047
0.00579597
0.00502444
0.00635934
0.00411464
0.00695121
0.00304615
0.00761628
0.00173808
0.00840617
0.00930478
0.00840003
2.94573e-10
0.00840003
2.01715e-09
0.00840003
6.52739e-09
0.00840004
1.9562e-08
0.00840002
4.89309e-08
0.00839996
1.28085e-07
0.0084002
3.11064e-07
0.00839914
7.86364e-07
0.00840171
1.91031e-06
0.00839644
4.79955e-06
0.00840439
1.20506e-05
0.00839629
3.19647e-05
0.00840446
9.18529e-05
0.00840723
0.000301056
0.00849741
0.00121337
0.0081954
0.00529376
0.00791285
0.00576575
0.00732905
0.00574057
0.00673273
0.00596507
0.00615169
0.00637731
0.0054629
0.00704772
0.00463989
0.0077745
0.00364492
0.00861056
0.00225974
0.00979102
0.0115645
0.00840003
3.13998e-10
0.00840003
2.00269e-09
0.00840002
6.85753e-09
0.00840006
1.9559e-08
0.00839998
5.08558e-08
0.00840006
1.29666e-07
0.00839996
3.20037e-07
0.00839969
8.00177e-07
0.00840033
1.96597e-06
0.00839845
4.92082e-06
0.0084007
1.2381e-05
0.00839791
3.2643e-05
0.00839835
9.26909e-05
0.00839632
0.000300258
0.00845376
0.00115795
0.00830488
0.00544251
0.00789477
0.00617577
0.0074692
0.00616608
0.00702258
0.00641161
0.00651833
0.00688175
0.00597475
0.00759133
0.00533661
0.00841289
0.00444573
0.00950157
0.00313736
0.011099
0.0147018
0.00840003
3.2867e-10
0.00840003
2.01338e-09
0.00840002
7.12144e-09
0.00840005
1.97304e-08
0.00839999
5.26617e-08
0.00840005
1.31945e-07
0.00839999
3.28888e-07
0.00839964
8.23361e-07
0.00840046
2.02093e-06
0.00839799
5.11004e-06
0.00840127
1.27696e-05
0.00839657
3.36208e-05
0.00839779
9.41743e-05
0.00839422
0.000300437
0.00843811
0.0011166
0.00849792
0.00538213
0.00807483
0.00659874
0.00764998
0.00659074
0.00730811
0.00675382
0.00693522
0.00725481
0.00657121
0.00795534
0.00614127
0.00884266
0.00572804
0.00991444
0.00569464
0.0111322
0.0115061
0.0088902
0.00840003
2.67129e-10
0.00840003
2.20569e-09
0.00840003
6.37799e-09
0.00840003
2.14541e-08
0.00840003
4.80697e-08
0.00839995
1.43348e-07
0.00840025
3.04562e-07
0.00839907
8.95698e-07
0.00840209
1.89194e-06
0.00839525
5.47524e-06
0.00840694
1.23351e-05
0.00839149
3.44997e-05
0.00840757
9.24119e-05
0.00840385
0.000292184
0.00847697
0.00105061
0.00890972
0.00494726
0.00845118
0.00705707
0.0079754
0.00706674
0.0076253
0.00710347
0.00733972
0.00754053
0.00708171
0.00821353
0.00688412
0.00904041
0.00685008
0.00994874
0.00729646
0.0106852
0.0104788
0.00832413
0.00840003
3.33523e-10
0.00840003
1.81621e-09
0.00840004
6.9889e-09
0.00840003
1.77191e-08
0.00840004
5.13341e-08
0.00840004
1.1931e-07
0.00839993
3.22087e-07
0.00840046
7.49538e-07
0.00839896
1.97643e-06
0.00840283
4.70283e-06
0.00839733
1.22356e-05
0.00840825
3.09042e-05
0.00840876
8.5302e-05
0.0084491
0.000257284
0.00859658
0.000899278
0.00965337
0.00389093
0.00907606
0.00763439
0.00847466
0.00766794
0.00808215
0.00749656
0.00781466
0.00780784
0.00763933
0.00838866
0.00760846
0.00907173
0.0078352
0.00972141
0.00838054
0.01014
0.00985095
0.0090083
0.00840003
2.54799e-10
0.00840003
1.58674e-09
0.00840005
5.52263e-09
0.0084
1.54914e-08
0.00840015
4.11465e-08
0.00839985
1.01652e-07
0.00840066
2.60193e-07
0.00839918
6.1946e-07
0.00840304
1.57918e-06
0.00839704
3.77335e-06
0.00841198
9.63319e-06
0.00840006
2.38902e-05
0.00844473
6.38852e-05
0.00849747
0.000183485
0.00880455
0.000603266
0.0102458
0.0024469
0.00976171
0.00811856
0.00930068
0.00812904
0.00869303
0.00810393
0.00837125
0.00812969
0.00824401
0.00851624
0.00828983
0.00902431
0.00854647
0.00946621
0.00902078
0.00966501
0.00934986
0.00952182
0.00840003
1.94701e-10
0.00840003
1.44807e-09
0.00840005
4.34413e-09
0.0084
1.41815e-08
0.00840013
3.24327e-08
0.00839985
9.22661e-08
0.00840063
2.05928e-07
0.00839907
5.55745e-07
0.00840324
1.27845e-06
0.00839557
3.30371e-06
0.0084127
7.94365e-06
0.00839216
2.02885e-05
0.00843359
5.2483e-05
0.0084391
0.000148317
0.0085872
0.000475659
0.00918913
0.00183542
0.00989938
0.00741048
0.00957202
0.00845648
0.00915195
0.00852298
0.0088754
0.00840746
0.00877966
0.00861139
0.00885134
0.00895348
0.00908621
0.00922991
0.00947137
0.00928097
0.00894164
0.0098795
0.00840003
1.93317e-10
0.00840004
1.17542e-09
0.00840003
4.19518e-09
0.00840005
1.14397e-08
0.00839999
3.10169e-08
0.00840017
7.62975e-08
0.00839975
1.93223e-07
0.00840097
4.75225e-07
0.00839833
1.16466e-06
0.00840535
2.91601e-06
0.00839266
7.1033e-06
0.00841759
1.80995e-05
0.00839431
4.63475e-05
0.0084426
0.000129031
0.00849404
0.000401995
0.00887253
0.00146772
0.00987979
0.00640086
0.00975206
0.00858395
0.00952472
0.00875055
0.0092915
0.00864054
0.00921878
0.00868414
0.00930018
0.0088709
0.00950768
0.00902383
0.00981119
0.00897651
0.00862618
0.010128
0.00840003
1.80987e-10
0.00840003
9.77398e-10
0.00840004
3.74291e-09
0.00840003
9.52813e-09
0.00840004
2.77082e-08
0.00840004
6.31233e-08
0.00840002
1.75997e-07
0.00840031
3.89826e-07
0.00839948
1.08206e-06
0.00840245
2.40371e-06
0.00839719
6.59286e-06
0.00841047
1.5331e-05
0.00840083
4.14912e-05
0.00843532
0.000109897
0.00848789
0.000335921
0.00879478
0.00116932
0.0103659
0.00482719
0.010205
0.00874458
0.00996141
0.00899412
0.00969169
0.00890981
0.00961615
0.00876105
0.0096804
0.00880567
0.00984769
0.00885726
0.0100806
0.00874223
0.00839172
0.0103169
0.00840003
1.23601e-10
0.00840003
8.32066e-10
0.00840003
2.72273e-09
0.00840003
8.10534e-09
0.00840005
2.02683e-08
0.00840001
5.30039e-08
0.00840022
1.27719e-07
0.00839977
3.21722e-07
0.00840145
7.77985e-07
0.00839852
1.92879e-06
0.00840827
4.73186e-06
0.00839636
1.17075e-05
0.00843292
2.95251e-05
0.00843604
7.73612e-05
0.00857738
0.000220783
0.00901585
0.000714768
0.0110721
0.00277578
0.0109097
0.00890597
0.0106606
0.00924334
0.0103009
0.00926945
0.0100761
0.00898508
0.0100541
0.00882885
0.0101575
0.00875307
0.010318
0.00858241
0.00822676
0.0104821
0.00840003
9.42415e-11
0.00840003
6.70158e-10
0.00840003
2.14181e-09
0.00840004
6.5438e-09
0.00840003
1.58435e-08
0.00840006
4.33098e-08
0.00840006
9.80654e-08
0.00840006
2.65869e-07
0.00840059
5.91347e-07
0.00839951
1.59674e-06
0.00840432
3.58614e-06
0.0083985
9.56635e-06
0.00841899
2.25448e-05
0.00841876
6.03461e-05
0.00849286
0.000164091
0.0086742
0.000518104
0.00952654
0.00193242
0.0109671
0.00746349
0.0109077
0.00930246
0.0106977
0.00947934
0.0104629
0.00921984
0.0103916
0.00890029
0.0104388
0.00870592
0.0105388
0.00848248
0.00812362
0.010642
0.00840003
8.31107e-11
0.00840003
5.12086e-10
0.00840003
1.79536e-09
0.00840004
5.00331e-09
0.00840003
1.33268e-08
0.00840007
3.31609e-08
0.00839997
8.37685e-08
0.00840037
2.03993e-07
0.00839953
5.09925e-07
0.00840226
1.24133e-06
0.00839727
3.09667e-06
0.00841131
7.61329e-06
0.00839272
1.91576e-05
0.00843572
4.89271e-05
0.00843238
0.000133076
0.00857585
0.000402154
0.0090765
0.00141722
0.0110046
0.00553805
0.0111462
0.00916108
0.0110595
0.00956612
0.0108333
0.00944588
0.0107059
0.00902734
0.0106956
0.00871695
0.0107438
0.00843345
0.00806852
0.0107997
0.00840003
6.29341e-11
0.00840003
3.87983e-10
0.00840003
1.35989e-09
0.00840004
3.79383e-09
0.00840003
1.00453e-08
0.00840007
2.49954e-08
0.00839999
6.28111e-08
0.00840032
1.52288e-07
0.00839972
3.78799e-07
0.00840196
9.17302e-07
0.00839834
2.2698e-06
0.0084107
5.53327e-06
0.00839616
1.37776e-05
0.00844218
3.44128e-05
0.00844627
9.04303e-05
0.00862672
0.000256696
0.00919143
0.000830915
0.0116293
0.00310541
0.011716
0.00907456
0.0116215
0.00966067
0.0113678
0.00969953
0.0110875
0.00930796
0.0109795
0.00882475
0.0109639
0.00844938
0.00806061
0.0109713
0.00840003
4.77716e-11
0.00840003
2.88676e-10
0.00840003
1.03708e-09
0.00840004
2.8106e-09
0.00840003
7.6491e-09
0.00840006
1.85662e-08
0.0084
4.73662e-08
0.00840025
1.14131e-07
0.0083998
2.82525e-07
0.00840144
6.88718e-07
0.00839878
1.68075e-06
0.0084078
4.14943e-06
0.00839617
1.00966e-05
0.00843099
2.54385e-05
0.00842233
6.45987e-05
0.00853675
0.000178097
0.00878976
0.000549159
0.00990524
0.00200481
0.0117327
0.00724355
0.011838
0.00955505
0.0116888
0.00984857
0.0114055
0.00959121
0.0112761
0.00895446
0.0111974
0.00852751
0.00809751
0.0111612
0.00840003
3.65731e-11
0.00840003
2.16372e-10
0.00840003
7.81619e-10
0.00840003
2.11138e-09
0.00840004
5.76168e-09
0.00840004
1.39383e-08
0.00840005
3.60051e-08
0.0084001
8.51997e-08
0.00840001
2.17239e-07
0.0084007
5.15707e-07
0.00839953
1.30045e-06
0.00840448
3.12565e-06
0.00839794
7.84416e-06
0.00842049
1.93063e-05
0.0084119
4.92531e-05
0.00848595
0.000131265
0.0086227
0.000387863
0.00930847
0.0013335
0.0117102
0.0048382
0.0119981
0.00926646
0.0120682
0.00977833
0.0119169
0.00974248
0.0115841
0.00928776
0.0114508
0.00866008
0.00818573
0.0113624
0.00840003
2.56646e-11
0.00840003
1.5892e-10
0.00840003
5.50174e-10
0.00840003
1.54956e-09
0.00840004
4.07845e-09
0.00840003
1.00788e-08
0.00840008
2.56098e-08
0.00840002
6.07174e-08
0.00840022
1.54701e-07
0.00840018
3.60383e-07
0.00840066
9.26328e-07
0.00840174
2.1423e-06
0.00840295
5.52532e-06
0.00841165
1.29992e-05
0.00842371
3.35389e-05
0.00847377
8.45962e-05
0.00862139
0.000237682
0.00921509
0.000743437
0.0113962
0.00265417
0.0124187
0.00824455
0.0124127
0.00978426
0.01223
0.0099251
0.0118874
0.00963008
0.0117266
0.00882123
0.0083277
0.0115841
0.00840003
1.73632e-11
0.00840003
1.16723e-10
0.00840003
3.82685e-10
0.00840003
1.13905e-09
0.00840004
2.83652e-09
0.00840003
7.44156e-09
0.00840006
1.77546e-08
0.00840002
4.49028e-08
0.00840023
1.07612e-07
0.00839988
2.66598e-07
0.00840132
6.47537e-07
0.00839919
1.58476e-06
0.00840717
3.90018e-06
0.0083977
9.5122e-06
0.0084305
2.38657e-05
0.00842188
5.99381e-05
0.00853474
0.000162048
0.00876279
0.000483954
0.00973207
0.00170165
0.0121802
0.00579195
0.0125152
0.00944878
0.0125879
0.00985225
0.0124447
0.00977322
0.0120514
0.00921508
0.00854922
0.0118291
0.00840003
1.25215e-11
0.00840003
7.69295e-11
0.00840003
2.74075e-10
0.00840003
7.51282e-10
0.00840003
2.01734e-09
0.00840004
4.96142e-09
0.00840004
1.23771e-08
0.00840006
3.03984e-08
0.00840009
7.31563e-08
0.00840011
1.82322e-07
0.00840062
4.30598e-07
0.00840006
1.087e-06
0.00840427
2.54303e-06
0.00840041
6.47546e-06
0.0084235
1.53061e-05
0.00841931
3.93877e-05
0.00851455
9.95639e-05
0.00868404
0.000281381
0.00951401
0.000894055
0.0122328
0.00306623
0.0129396
0.00874159
0.0129565
0.00983533
0.0127392
0.00999049
0.012396
0.00955748
0.0088064
0.0121398
0.00840003
8.37217e-12
0.00840003
5.43383e-11
0.00840003
1.8426e-10
0.00840003
5.29267e-10
0.00840003
1.3577e-09
0.00840003
3.46606e-09
0.00840005
8.42499e-09
0.00840003
2.09385e-08
0.00840013
5.03628e-08
0.0084
1.24331e-07
0.00840059
2.9918e-07
0.00839995
7.35121e-07
0.00840296
1.77688e-06
0.00840035
4.36358e-06
0.008414
1.0642e-05
0.00841198
2.64232e-05
0.00846611
6.66769e-05
0.00854275
0.000179191
0.00892036
0.000538645
0.0101006
0.00187319
0.0126798
0.00616569
0.0129839
0.00953127
0.0131579
0.00981639
0.0128888
0.00982634
0.0091772
0.0125178
0.00840003
5.51781e-12
0.00840003
3.72166e-11
0.00840003
1.22422e-10
0.00840003
3.62815e-10
0.00840003
9.06666e-10
0.00840003
2.35814e-09
0.00840004
5.62315e-09
0.00840003
1.41758e-08
0.0084001
3.35991e-08
0.00840003
8.36813e-08
0.00840034
1.99537e-07
0.00840021
4.90871e-07
0.00840129
1.18629e-06
0.00840214
2.8808e-06
0.008406
7.07712e-06
0.00841485
1.72179e-05
0.00843943
4.32196e-05
0.00850384
0.000111185
0.00873455
0.000312649
0.00960178
0.00100307
0.0124131
0.00335561
0.0132813
0.00866273
0.0133618
0.00973593
0.0132187
0.00996935
0.00955556
0.0128392
0.00840003
3.99137e-12
0.00840003
2.40374e-11
0.00840003
8.52724e-11
0.00840003
2.34278e-10
0.00840003
6.25442e-10
0.00840003
1.52657e-09
0.00840004
3.8789e-09
0.00840004
9.16253e-09
0.00840006
2.31807e-08
0.00840008
5.40613e-08
0.00840011
1.36926e-07
0.00840044
3.19184e-07
0.0084002
8.04855e-07
0.0084029
1.89391e-06
0.00840096
4.73306e-06
0.0084163
1.13545e-05
0.00841372
2.83542e-05
0.00847942
7.10474e-05
0.00857161
0.0001909
0.00903319
0.000569359
0.0104307
0.00194118
0.0130092
0.00608693
0.0133306
0.00941473
0.0135643
0.00973566
0.00976242
0.0133573
0.00840003
2.4033e-12
0.00840003
1.63371e-11
0.00840003
5.32472e-11
0.00840003
1.59062e-10
0.00840003
3.92935e-10
0.00840003
1.0289e-09
0.00840004
2.43878e-09
0.00840003
6.13786e-09
0.00840006
1.46178e-08
0.00840003
3.58604e-08
0.00840021
8.67958e-08
0.00840003
2.08864e-07
0.00840099
5.14267e-07
0.00840025
1.21553e-06
0.008405
3.04331e-06
0.00840302
7.14266e-06
0.00842432
1.811e-05
0.00843446
4.35985e-05
0.00853341
0.000114335
0.00876635
0.000314972
0.00971276
0.00100738
0.0125519
0.0032438
0.0135917
0.00837507
0.0136594
0.00966817
0.00978294
0.0136389
0.00840003
1.67015e-12
0.00840003
9.98006e-12
0.00840003
3.60771e-11
0.00840003
9.76464e-11
0.00840003
2.63791e-10
0.00840003
6.43016e-10
0.00840003
1.609e-09
0.00840004
3.90034e-09
0.00840004
9.44694e-09
0.00840006
2.32779e-08
0.00840009
5.50069e-08
0.00840012
1.37818e-07
0.00840049
3.21146e-07
0.00840023
8.14347e-07
0.00840321
1.88227e-06
0.00840101
4.80645e-06
0.00841834
1.12118e-05
0.00841301
2.86848e-05
0.00848894
7.01403e-05
0.00857575
0.000189026
0.00906579
0.000555475
0.0104262
0.00185871
0.0131986
0.00560846
0.0136926
0.0091748
0.00961114
0.0138646
0.00840003
9.9191e-13
0.00840003
6.60157e-12
0.00840003
2.18184e-11
0.00840003
6.41745e-11
0.00840003
1.61048e-10
0.00840003
4.1331e-10
0.00840003
9.97524e-10
0.00840003
2.44971e-09
0.00840004
5.93603e-09
0.00840004
1.42538e-08
0.0084001
3.49614e-08
0.00840007
8.26314e-08
0.00840033
2.04839e-07
0.00840044
4.79043e-07
0.00840132
1.19745e-06
0.00840324
2.78693e-06
0.00840686
6.99415e-06
0.00842034
1.6483e-05
0.00844721
4.16154e-05
0.0085325
0.000104067
0.00880139
0.000287346
0.00977122
0.000887922
0.0126112
0.00276959
0.0139075
0.00787779
0.00956071
0.0139578
0.00840003
6.28522e-13
0.00840003
4.03462e-12
0.00840003
1.39095e-11
0.00840003
3.93292e-11
0.00840003
1.02014e-10
0.00840003
2.57066e-10
0.00840003
6.2036e-10
0.00840003
1.55154e-09
0.00840004
3.62284e-09
0.00840004
9.15718e-09
0.00840007
2.10848e-08
0.00840005
5.35671e-08
0.00840026
1.22925e-07
0.00840007
3.11403e-07
0.00840151
7.21517e-07
0.00840019
1.80576e-06
0.00840849
4.25297e-06
0.00840276
1.05442e-05
0.00844111
2.54785e-05
0.00844643
6.4042e-05
0.00861042
0.000166617
0.00897347
0.000483801
0.0101795
0.00158898
0.0132401
0.0048098
0.00878946
0.014011
0.00840003
3.98565e-13
0.00840003
2.46298e-12
0.00840003
8.63731e-12
0.00840003
2.4005e-11
0.00840003
6.30942e-11
0.00840003
1.55811e-10
0.00840003
3.86365e-10
0.00840003
9.28245e-10
0.00840004
2.27918e-09
0.00840004
5.41652e-09
0.00840004
1.32709e-08
0.00840008
3.15216e-08
0.00840007
7.71164e-08
0.00840036
1.83093e-07
0.00840018
4.47093e-07
0.00840213
1.06586e-06
0.0084008
2.5948e-06
0.00841239
6.21988e-06
0.00840758
1.52127e-05
0.00846154
3.71098e-05
0.00849564
9.39074e-05
0.00876846
0.000251919
0.00956838
0.000761182
0.0119952
0.00239189
0.00681489
0.0139678
0.00840003
2.3583e-13
0.00840003
1.54721e-12
0.00840003
5.15913e-12
0.00840003
1.50239e-11
0.00840003
3.79952e-11
0.00840003
9.64576e-11
0.00840003
2.34963e-10
0.00840003
5.68905e-10
0.00840003
1.39398e-09
0.00840004
3.28509e-09
0.00840004
8.19462e-09
0.00840006
1.89417e-08
0.00840006
4.77385e-08
0.00840022
1.0975e-07
0.00840014
2.76621e-07
0.00840126
6.38877e-07
0.00840046
1.59642e-06
0.00840752
3.73888e-06
0.00840331
9.26506e-06
0.00843925
2.21768e-05
0.00844213
5.55222e-05
0.00859992
0.000141701
0.00891321
0.000399756
0.0100624
0.00127321
0.00381062
0.0130591
0.00840003
1.46831e-13
0.00840003
9.03963e-13
0.00840003
3.20031e-12
0.00840003
8.83557e-12
0.00840003
2.33243e-11
0.00840003
5.76469e-11
0.00840003
1.41393e-10
0.00840003
3.45783e-10
0.00840003
8.2257e-10
0.00840004
2.03585e-09
0.00840004
4.73833e-09
0.00840004
1.18817e-08
0.00840008
2.73711e-08
0.00840007
6.89936e-08
0.00840033
1.58633e-07
0.00840017
3.98748e-07
0.00840192
9.24922e-07
0.00840075
2.30231e-06
0.00841087
5.41529e-06
0.0084066
1.34085e-05
0.00845402
3.23099e-05
0.00847794
8.15007e-05
0.00870411
0.000213542
0.00932001
0.000629171
0.0019761
0.0111643
0.00840003
8.62439e-14
0.00840003
5.46266e-13
0.00840003
1.87526e-12
0.00840003
5.30709e-12
0.00840003
1.3753e-11
0.00840003
3.40885e-11
0.00840003
8.44006e-11
0.00840003
2.00664e-10
0.00840003
4.95962e-10
0.00840003
1.15888e-09
0.00840004
2.88286e-09
0.00840004
6.67055e-09
0.00840005
1.66295e-08
0.0084001
3.8483e-08
0.00840009
9.55439e-08
0.00840047
2.22337e-07
0.0084003
5.46676e-07
0.00840275
1.28842e-06
0.00840164
3.12608e-06
0.00841562
7.48292e-06
0.00841343
1.80891e-05
0.00847953
4.43611e-05
0.00854042
0.000111368
0.00891152
0.000302154
0.000918897
0.009939
0.00840003
4.86024e-14
0.00840003
3.25656e-13
0.00840003
1.08384e-12
0.00840003
3.17238e-12
0.00840003
7.91634e-12
0.00840003
2.05047e-11
0.00840003
4.80026e-11
0.00840003
1.21704e-10
0.00840003
2.79668e-10
0.00840003
7.04662e-10
0.00840004
1.61953e-09
0.00840003
4.0423e-09
0.00840005
9.38425e-09
0.00840004
2.30842e-08
0.00840014
5.44476e-08
0.00840012
1.31564e-07
0.00840056
3.15801e-07
0.00840078
7.495e-07
0.00840229
1.83404e-06
0.00840563
4.28383e-06
0.00841122
1.06661e-05
0.00843504
2.50367e-05
0.00847489
6.35459e-05
0.00862767
0.000160083
0.000457406
0.00907592
0.00840003
2.96537e-14
0.00840003
1.85853e-13
0.00840003
6.40715e-13
0.00840003
1.8051e-12
0.00840003
4.68672e-12
0.00840003
1.15828e-11
0.00840003
2.86311e-11
0.00840003
6.80844e-11
0.00840003
1.67624e-10
0.00840003
3.92266e-10
0.00840003
9.68561e-10
0.00840004
2.25386e-09
0.00840004
5.56583e-09
0.00840006
1.29505e-08
0.00840005
3.19005e-08
0.00840019
7.46263e-08
0.00840015
1.82252e-07
0.00840083
4.30562e-07
0.00840096
1.04078e-06
0.00840377
2.49312e-06
0.00840684
5.95989e-06
0.00841956
1.45227e-05
0.00844403
3.50023e-05
0.00852377
8.77833e-05
0.000229685
0.00874144
0.00840003
1.68472e-14
0.00840003
1.04953e-13
0.00840003
3.68547e-13
0.00840003
1.02123e-12
0.00840003
2.68562e-12
0.00840003
6.56407e-12
0.00840003
1.62842e-11
0.00840003
3.87138e-11
0.00840003
9.44339e-11
0.00840003
2.23724e-10
0.00840003
5.41168e-10
0.00840003
1.28617e-09
0.00840004
3.0857e-09
0.00840004
7.38883e-09
0.00840006
1.7557e-08
0.00840008
4.23697e-08
0.00840021
9.98701e-08
0.00840022
2.42392e-07
0.0084012
5.68795e-07
0.00840095
1.38285e-06
0.00840717
3.24779e-06
0.00840583
7.91405e-06
0.00843941
1.87428e-05
0.0084496
4.63156e-05
0.0001149
0.00860993
0.00840003
9.42489e-15
0.00840003
5.98634e-14
0.00840003
2.07529e-13
0.00840003
5.81677e-13
0.00840003
1.50959e-12
0.00840003
3.75765e-12
0.00840003
9.07619e-12
0.00840003
2.22137e-11
0.00840003
5.22394e-11
0.00840003
1.28546e-10
0.00840003
2.97773e-10
0.00840003
7.35989e-10
0.00840004
1.69893e-09
0.00840004
4.1966e-09
0.00840005
9.71157e-09
0.00840005
2.38045e-08
0.00840015
5.57098e-08
0.00840012
1.34688e-07
0.00840071
3.19601e-07
0.00840059
7.61605e-07
0.0084037
1.8334e-06
0.00840378
4.32256e-06
0.00841856
1.0551e-05
0.00842866
2.49443e-05
6.22831e-05
0.00849855
0.00840003
5.40694e-15
0.00840003
3.26645e-14
0.00840003
1.15642e-13
0.00840003
3.17491e-13
0.00840003
8.41951e-13
0.00840003
2.03038e-12
0.00840003
5.1077e-12
0.00840003
1.18512e-11
0.00840003
2.95789e-11
0.00840003
6.78183e-11
0.00840003
1.68612e-10
0.00840003
3.87416e-10
0.00840003
9.54972e-10
0.00840004
2.21556e-09
0.00840004
5.38932e-09
0.00840006
1.26714e-08
0.00840006
3.03731e-08
0.00840016
7.25904e-08
0.00840026
1.70871e-07
0.0084006
4.15351e-07
0.0084017
9.64169e-07
0.00840249
2.37467e-06
0.00841083
5.4701e-06
0.00841406
1.36315e-05
3.1876e-05
0.00846007
0.00840003
2.70072e-15
0.00840003
1.78052e-14
0.00840003
6.05886e-14
0.00840003
1.72274e-13
0.00840003
4.39858e-13
0.00840003
1.10114e-12
0.00840003
2.63591e-12
0.00840003
6.42727e-12
0.00840003
1.51104e-11
0.00840003
3.65329e-11
0.00840003
8.57043e-11
0.00840003
2.06e-10
0.00840003
4.84057e-10
0.00840003
1.15722e-09
0.00840004
2.72564e-09
0.00840004
6.48989e-09
0.00840007
1.53206e-08
0.00840007
3.62859e-08
0.00840024
8.58349e-08
0.00840027
2.02612e-07
0.00840107
4.80362e-07
0.00840183
1.12762e-06
0.00840495
2.68723e-06
0.00841208
6.29671e-06
1.5119e-05
0.00842769
0.00840003
1.38572e-15
0.00840003
9.01021e-15
0.00840003
3.10831e-14
0.00840003
8.65393e-14
0.00840003
2.2497e-13
0.00840003
5.51469e-13
0.00840003
1.32488e-12
0.00840003
3.21973e-12
0.00840003
7.40082e-12
0.00840003
1.83037e-11
0.00840003
4.08123e-11
0.00840003
1.02425e-10
0.00840003
2.24807e-10
0.00840003
5.65788e-10
0.00840004
1.24234e-09
0.00840004
3.09019e-09
0.00840006
6.85799e-09
0.00840005
1.67138e-08
0.00840016
3.78577e-08
0.00840014
8.93081e-08
0.00840062
2.07774e-07
0.00840095
4.72294e-07
0.00840265
1.13376e-06
0.00840657
2.47716e-06
6.11488e-06
0.00841347
0.00840003
8.08083e-16
0.00840003
4.43189e-15
0.00840003
1.4932e-14
0.00840003
4.26676e-14
0.00840003
1.05866e-13
0.00840003
2.66381e-13
0.00840003
6.32322e-13
0.00840003
1.48816e-12
0.00840003
3.61359e-12
0.00840003
8.04225e-12
0.00840003
2.0205e-11
0.00840003
4.29828e-11
0.00840003
1.11399e-10
0.00840003
2.29443e-10
0.00840003
6.03905e-10
0.00840004
1.22628e-09
0.00840003
3.22567e-09
0.00840007
6.56197e-09
0.00840003
1.6927e-08
0.00840021
3.52455e-08
0.00840006
8.71781e-08
0.00840088
1.87862e-07
0.00840043
4.4018e-07
0.00840367
9.95831e-07
2.16965e-06
0.00840404
0.00840003
3.22903e-16
0.00840003
1.90199e-15
0.00840003
7.38111e-15
0.00840003
1.81997e-14
0.00840003
5.17549e-14
0.00840003
1.16607e-13
0.00840003
2.94265e-13
0.00840003
6.79202e-13
0.00840003
1.56703e-12
0.00840003
3.8513e-12
0.00840003
8.0379e-12
0.00840003
2.1585e-11
0.00840003
4.0869e-11
0.00840003
1.18334e-10
0.00840003
2.06171e-10
0.00840003
6.37975e-10
0.00840004
1.05126e-09
0.00840003
3.32711e-09
0.00840008
5.44863e-09
0.00839998
1.694e-08
0.00840034
2.8394e-08
0.00839969
8.43525e-08
0.00840172
1.51712e-07
0.00839826
4.04703e-07
8.17187e-07
0.00840773
0.00840003
1.7209e-16
0.00840003
6.94946e-16
0.00840003
2.9663e-15
0.00840003
8.48754e-15
0.00840003
2.21434e-14
0.00840003
5.08451e-14
0.00840003
1.29396e-13
0.00840003
2.77691e-13
0.00840003
6.95587e-13
0.00840003
1.46624e-12
0.00840003
3.70074e-12
0.00840003
7.67992e-12
0.00840003
1.88984e-11
0.00840003
4.02551e-11
0.00840003
9.65715e-11
0.00840003
2.10123e-10
0.00840003
4.78052e-10
0.00840005
1.10937e-09
0.0084
2.33669e-09
0.00840013
5.72107e-09
0.00839985
1.15601e-08
0.00840059
2.94458e-08
0.00839908
5.317e-08
0.00840286
1.52925e-07
2.47967e-07
0.0083955
0.00840003
1.89735e-19
0.00840003
3.70038e-16
0.00840003
1.22222e-15
0.00840003
3.022e-15
0.00840003
9.14714e-15
0.00840003
2.01095e-14
0.00840003
5.18106e-14
0.00840003
1.07454e-13
0.00840003
2.92081e-13
0.00840003
5.46075e-13
0.00840003
1.56196e-12
0.00840003
2.68216e-12
0.00840003
8.63463e-12
0.00840003
1.34315e-11
0.00840003
4.31446e-11
0.00840003
7.1525e-11
0.00840003
2.16088e-10
0.00840004
3.86714e-10
0.00840001
9.87952e-10
0.00840011
2.17674e-09
0.00839983
4.45384e-09
0.00840058
1.20124e-08
0.00839878
1.98923e-08
0.00840308
6.53161e-08
8.9499e-08
0.00839383
0.00840003
-3.85163e-17
0.00840003
2.73897e-16
0.00840003
-3.12521e-17
0.00840003
2.91192e-15
0.00840003
-1.90169e-16
0.00840003
1.63745e-14
0.00840003
-1.05501e-15
0.00840003
8.65143e-14
0.00840003
-1.72102e-14
0.00840003
4.16801e-13
0.00840003
-1.45282e-14
0.00840003
1.9358e-12
0.00840003
6.83789e-13
0.00840003
7.03188e-12
0.00840003
1.27565e-11
0.00840003
1.33598e-11
0.00840003
1.16421e-10
0.00840004
-7.23031e-11
0.00840001
9.72087e-10
0.00840008
-1.28277e-09
0.00839986
6.78769e-09
0.00840044
-1.0121e-08
0.00839887
4.05366e-08
0.00840271
-6.27141e-08
2.14087e-07
0.00839388
0.00840003
0.00840003
0.00840003
0.00840003
0.00840003
0.00840003
0.00840003
0.00840003
0.00840003
0.00840003
0.00840003
0.00840003
0.00840003
0.00840003
0.00840003
0.00840003
0.00840003
0.00840004
0.00840002
0.00840004
0.00840002
0.0083999
0.00840028
0.00839869
0.00840195
0.0048343
0.00405594
0.00321319
0.00162087
0.00251959
0.000693585
0.0022371
0.000281092
0.00221369
1.97322e-05
0.00241415
-0.000203848
0.00263103
-0.000225244
0.00271301
-9.78839e-05
0.00264259
3.96821e-05
0.00232452
0.000248647
0.00169239
0.000485158
0.000897113
0.000718859
0.000181061
0.000697427
-0.000465188
0.000635195
-0.00106471
0.000590695
-0.0015536
0.00049001
-0.00192423
0.000382693
-0.00219318
0.000273602
-0.0023578
0.000168593
-0.00245988
0.000110017
-0.00255085
9.85006e-05
-0.00264716
0.000103785
-0.0027434
0.000102333
-0.00282435
8.66116e-05
-0.0028856
6.79869e-05
-0.00294452
6.36044e-05
-0.00299909
5.94937e-05
-0.00303777
4.34612e-05
-0.00305348
1.87063e-05
-0.00303934
-1.34809e-05
-0.00298121
-5.96396e-05
-0.00286854
-0.000115718
-0.002703
-0.000169278
-0.00248492
-0.000221758
-0.00223235
-0.000255925
-0.00195871
-0.00027604
-0.00167311
-0.000287048
-0.00138277
-0.000290995
-0.00108427
-0.000298384
-0.000787736
-0.000295857
-0.000495754
-0.000290987
-0.000202123
-0.0002925
9.66352e-05
-0.000297582
0.000373756
-0.000275968
0.000632532
-0.000257539
0.000879609
-0.000245864
0.00111627
-0.000235388
0.00134115
-0.000223651
0.00155399
-0.000211561
0.00175757
-0.000202403
0.00195733
-0.000198725
0.00214887
-0.000190735
0.00233134
-0.000181919
0.00250377
-0.000172157
0.00266719
-0.000163444
0.00282177
-0.000154812
0.00296806
-0.000146993
0.00310638
-0.000139051
0.00323703
-0.000131762
0.00336038
-0.000124281
0.00347698
-0.000117454
0.00358688
-0.000110485
0.00369046
-0.000104135
0.00378764
-9.77099e-05
0.0038791
-9.18776e-05
0.00396484
-8.6056e-05
0.00404551