/*--------------------------------*- C++ -*----------------------------------*\
  =========                 |
  \\      /  F ield         | OpenFOAM: The Open Source CFD Toolbox
   \\    /   O peration     | Website:  https://openfoam.org
    \\  /    A nd           | Version:  13
     \\/     M anipulation  |
\*---------------------------------------------------------------------------*/
FoamFile
{
    format      ascii;
    class       volScalarField;
    location    "4.5";
    object      T;
}
// * * * * * * * * * * * * * * * * * * * * * * * * * * * * * * * * * * * * * //

dimensions      [0 0 0 1 0 0 0];

internalField   nonuniform List<scalar> 
5250
(
1
1.00002
1.00004
1.00012
1.00024
1.0007
1.0015
1.00412
1.00943
1.02481
1.06112
1.16285
1.43626
2.09625
2.64808
2.7609
2.7427
2.73703
2.74897
2.7647
2.77841
2.78531
2.79286
2.79773
2.79955
1
1.00001
1.00004
1.0001
1.00027
1.0006
1.00167
1.00364
1.01011
1.02308
1.06176
1.15851
1.42979
2.08177
2.64326
2.76062
2.74191
2.73591
2.74788
2.76356
2.77722
2.78411
2.79167
2.7965
2.79824
1
1.00001
1.00004
1.00009
1.00027
1.00056
1.00165
1.00347
1.00977
1.02231
1.05956
1.15268
1.41382
2.04971
2.63157
2.75919
2.7394
2.73259
2.74462
2.76021
2.77365
2.78087
2.78813
2.79304
2.79517
1
1.00002
1.00003
1.0001
1.00021
1.00064
1.00132
1.00378
1.00837
1.02249
1.05456
1.14558
1.38897
1.99944
2.61269
2.75631
2.73499
2.72686
2.73852
2.75461
2.76824
2.77492
2.78291
2.7872
2.78896
1
1.00001
1.00004
1.00009
1.00022
1.00056
1.00129
1.00344
1.00785
1.0209
1.05042
1.13451
1.35802
1.93106
2.58602
2.75078
2.72794
2.7183
2.73053
2.74572
2.76005
2.7672
2.77416
2.77948
2.78138
1
1.00001
1.00003
1.00008
1.00021
1.00048
1.00129
1.00286
1.00783
1.01783
1.04754
1.1198
1.32384
1.84546
2.54967
2.74024
2.71667
2.70587
2.71786
2.73454
2.74853
2.75558
2.76369
2.76769
2.76953
1
1.00001
1.00003
1.00007
1.00019
1.00044
1.00113
1.00274
1.00672
1.01685
1.04189
1.10859
1.2886
1.76081
2.50712
2.72674
2.70295
2.69155
2.70377
2.7183
2.73425
2.7406
2.74734
2.7516
2.75225
1
1.00001
1.00002
1.00007
1.00015
1.00045
1.00092
1.00267
1.00582
1.01577
1.03744
1.099
1.2607
1.69419
2.45867
2.71126
2.69096
2.68066
2.68936
2.70266
2.71462
2.72168
2.72623
2.72829
2.72524
1
1.00001
1.00003
1.00006
1.00016
1.00035
1.00096
1.00218
1.00568
1.01364
1.03475
1.08829
1.23541
1.62766
2.38883
2.6842
2.68127
2.67384
2.67558
2.68484
2.69501
2.69678
2.69838
2.69441
2.67995
1
1.00001
1.00002
1.00005
1.00015
1.00031
1.00087
1.00192
1.00516
1.01207
1.03126
1.07839
1.20919
1.55897
2.29663
2.64779
2.67373
2.66579
2.66196
2.66587
2.67119
2.67011
2.66198
2.6408
2.58048
1
1.00001
1.00002
1.00004
1.00013
1.00027
1.00077
1.00169
1.00454
1.01061
1.02742
1.06847
1.182
1.4872
2.18024
2.5999
2.66483
2.65588
2.64789
2.64704
2.64548
2.63762
2.61627
2.56611
2.45258
1
1.00001
1.00002
1.00004
1.00011
1.00024
1.00064
1.00149
1.00379
1.00928
1.02312
1.05858
1.15331
1.41151
2.03504
2.53742
2.65167
2.64235
2.63175
2.62687
2.61986
2.60339
2.5681
2.49709
2.36516
1
1.00001
1.00001
1.00004
1.00008
1.00022
1.00049
1.00131
1.00304
1.00781
1.01894
1.04829
1.12445
1.33271
1.86165
2.45699
2.62783
2.62091
2.61125
2.6027
2.59209
2.56908
2.52675
2.45028
2.33041
1
1
1.00001
1.00003
1.00006
1.00018
1.00038
1.00112
1.00231
1.0066
1.01458
1.03917
1.09653
1.25823
1.67391
2.35842
2.59047
2.59189
2.58438
2.57513
2.56118
2.53671
2.49258
2.42157
2.31687
1
1
1.00001
1.00002
1.00005
1.00015
1.00032
1.00089
1.0019
1.0054
1.0118
1.03201
1.07779
1.20884
1.55007
2.24693
2.5473
2.56758
2.55853
2.54749
2.5326
2.50626
2.46341
2.40085
2.30999
1
1
1.00001
1.00002
1.00005
1.00011
1.00028
1.00066
1.00172
1.0039
1.01045
1.02429
1.06398
1.16449
1.44106
2.07496
2.47593
2.54744
2.53958
2.52473
2.50657
2.48012
2.4395
2.38214
2.30558
1
1
1.00001
1.00002
1.00003
1.00009
1.0002
1.00055
1.00127
1.00323
1.00784
1.01947
1.04898
1.12663
1.33708
1.86482
2.37956
2.51984
2.51842
2.50551
2.48223
2.45663
2.41741
2.36731
2.29907
1
1
1
1.00001
1.00003
1.00006
1.00017
1.0004
1.00097
1.00244
1.00574
1.01483
1.03546
1.09219
1.23882
1.62516
2.25274
2.47375
2.48845
2.47865
2.4578
2.43246
2.39682
2.35167
2.29318
1
1
1
1.00001
1.00002
1.00005
1.00013
1.00029
1.00077
1.00179
1.00451
1.01104
1.02728
1.06915
1.17983
1.47537
2.10418
2.4188
2.46217
2.45349
2.43503
2.40861
2.37712
2.33588
2.28551
1
1
1
1.00001
1.00002
1.00004
1.00009
1.00023
1.00057
1.00133
1.00349
1.00795
1.02104
1.05041
1.13347
1.35019
1.88607
2.32159
2.43087
2.42967
2.41415
2.38914
2.35792
2.32146
2.27649
1
1
1
1
1.00001
1.00003
1.00007
1.00016
1.00042
1.00095
1.00253
1.0056
1.01511
1.03495
1.09222
1.23602
1.61721
2.18588
2.38217
2.39989
2.38992
2.36789
2.33867
2.30542
2.26636
1
1
1
1
1.00001
1.00002
1.00005
1.00012
1.0003
1.00068
1.00183
1.00401
1.01095
1.02485
1.06579
1.16614
1.43975
2.018
2.32019
2.37146
2.36481
2.34638
2.31985
2.28949
2.25486
1
1
1
1
1.00001
1.00002
1.00003
1.00009
1.0002
1.00051
1.00124
1.00298
1.00752
1.01795
1.04584
1.11586
1.30563
1.77645
2.2124
2.33297
2.33827
2.32662
2.30327
2.27405
2.24191
1
1
1
1
1
1.00001
1.00002
1.00006
1.00013
1.00037
1.0008
1.00214
1.00486
1.01251
1.0299
1.07646
1.1953
1.51072
2.05431
2.27354
2.30749
2.30212
2.28417
2.2582
2.22845
1
1
1
1
1
1.00001
1.00002
1.00004
1.0001
1.00025
1.00055
1.00149
1.00324
1.00885
1.01985
1.05258
1.13042
1.34471
1.83917
2.18521
2.27295
2.27702
2.2662
2.24311
2.21523
1
1
1
1
1
1
1.00001
1.00002
1.00007
1.00015
1.00039
1.00093
1.00224
1.00558
1.01322
1.03355
1.08249
1.21383
1.5519
2.04283
2.22276
2.24846
2.24365
2.22597
2.2012
1
1
1
1
1
1
1.00001
1.00002
1.00004
1.00011
1.00024
1.00067
1.00138
1.00394
1.00839
1.0227
1.05332
1.13983
1.36007
1.85035
2.14831
2.21702
2.22022
2.20956
2.18798
1
1
1
1
1
1
1
1.00001
1.00003
1.00007
1.00015
1.00043
1.00091
1.00248
1.00551
1.01438
1.0339
1.08722
1.22125
1.57066
2.01461
2.17124
2.19374
2.18895
2.17225
1
1
1
1
1
1
1
1.00001
1.00002
1.00005
1.0001
1.00026
1.00062
1.00151
1.00372
1.00883
1.02219
1.05387
1.13831
1.35688
1.82199
2.09527
2.16058
2.16558
2.1568
1
1
1
1
1
1
1
1
1.00001
1.00003
1.00006
1.00017
1.00036
1.00103
1.00211
1.00596
1.01285
1.03424
1.08173
1.21257
1.54027
1.9607
2.11414
2.13932
2.1371
1
1
1
1
1
1
1
1
1.00001
1.00002
1.00004
1.0001
1.00025
1.00059
1.00143
1.00351
1.00824
1.02094
1.04995
1.12865
1.32924
1.76258
2.03385
2.10588
2.1143
1
1
1
1
1
1
1
1
1
1.00001
1.00002
1.00007
1.00014
1.00038
1.00081
1.00217
1.00485
1.01242
1.02918
1.0738
1.18437
1.47237
1.8886
2.05685
2.08705
1
1
1
1
1
1
1
1
1
1.00001
1.00002
1.00004
1.00009
1.00022
1.00051
1.00134
1.0029
1.00786
1.01728
1.04568
1.10985
1.2871
1.67992
1.97458
2.05655
1
1
1
1
1
1
1
1
1
1
1.00001
1.00002
1.00005
1.00013
1.00032
1.00074
1.00188
1.00419
1.01099
1.02491
1.06429
1.15781
1.40755
1.81387
1.99904
1
1
1
1
1
1
1
1
1
1
1.00001
1.00001
1.00003
1.00008
1.00019
1.00044
1.00111
1.00249
1.00656
1.01453
1.03814
1.09054
1.23538
1.57245
1.89554
1
1
1
1
1
1
1
1
1
1
1
1.00001
1.00002
1.00005
1.00011
1.00027
1.00061
1.00157
1.00345
1.00914
1.02037
1.05291
1.12809
1.33157
1.7126
1
1
1
1
1
1
1
1
1
1
1
1
1.00001
1.00003
1.00006
1.00015
1.00036
1.00083
1.00213
1.00467
1.01227
1.02753
1.07091
1.17303
1.43641
1
1
1
1
1
1
1
1
1
1
1
1
1.00001
1.00002
1.00003
1.00009
1.00019
1.00052
1.00111
1.00292
1.00655
1.01651
1.03918
1.09807
1.24733
1
1
1
1
1
1
1
1
1
1
1
1
1
1.00001
1.00002
1.00004
1.00012
1.00025
1.0007
1.00146
1.00394
1.00862
1.02223
1.05197
1.13186
1
1
1
1
1
1
1
1
1
1
1
1
1
1
1.00001
1.00003
1.00006
1.00015
1.00036
1.00088
1.00198
1.00508
1.01122
1.02904
1.06724
1
1
1
1
1
1
1
1
1
1
1
1
1
1
1.00001
1.00002
1.00003
1.00009
1.00019
1.00051
1.00105
1.00291
1.00611
1.01624
1.03672
1
1
1
1
1
1
1
1
1
1
1
1
1
1
1
1.00001
1.00002
1.00004
1.00012
1.00025
1.00065
1.00147
1.00356
1.00854
1.02025
1
1
1
1
1
1
1
1
1
1
1
1
1
1
1
1
1.00001
1.00003
1.00006
1.00016
1.00033
1.00089
1.00189
1.00494
1.01106
1
1
1
1
1
1
1
1
1
1
1
1
1
1
1
1
1.00001
1.00002
1.00004
1.0001
1.00021
1.00057
1.00121
1.00319
1.00719
1
1
1
1
1
1
1
1
1
1
1
1
1
1
1
1
1.00001
1.00001
1.00003
1.00007
1.00019
1.00038
1.0011
1.0023
1.00634
1
1
1
1
1
1
1
1
1
1
1
1
1
1
1
1
1
1.00001
1.00002
1.00006
1.00015
1.0004
1.00086
1.0024
1.0052
1
1
1
1
1
1
1
1
1
1
1
1
1
1
1
1
1
1.00001
1.00002
1.00006
1.00015
1.00033
1.00095
1.00199
1.00573
1
1
1
1
1
1
1
1
1
1
1
1
1
1
1
1
1
1.00001
1.00002
1.00006
1.00015
1.00033
1.00092
1.00201
1.00561
1
1
1
1
1
1
1
1
1
1
1
1
1
1
1
1
1
1.00001
1.00002
1.00006
1.00014
1.00034
1.00088
1.00205
1.00548
1
1
1
1
1
1
1
1
1
1
1
1
1
1
1
1
1
1.00001
1.00003
1.00005
1.00015
1.00033
1.00089
1.00208
1.00531
2.23581
2.07031
2.02016
2.0536
2.11478
2.19864
2.28093
2.35551
2.42014
2.55271
2.7342
2.89638
2.93599
2.95569
2.93802
2.90514
2.8912
2.87662
2.85321
2.84298
2.83338
2.82126
2.81195
2.79748
2.78653
2.77562
2.76747
2.76368
2.76289
2.76804
2.78051
2.80016
2.82266
2.8468
2.86762
2.88498
2.90064
2.91125
2.9201
2.92588
2.9284
2.92953
2.92678
2.92584
2.92154
2.91825
2.91077
2.90652
2.89763
2.89252
2.88175
2.87556
2.86384
2.85689
2.84501
2.83733
2.82507
2.81724
2.80451
2.79676
2.78367
2.77562
2.76242
2.75443
2.74154
2.73346
2.7206
2.7121
2.69906
2.69042
2.67712
2.66843
2.65503
2.64632
2.63297
2.62432
2.61114
2.60259
2.58963
2.58127
2.56855
2.56042
2.54801
2.54017
2.52806
2.52059
2.50879
2.50168
2.49029
2.48356
2.47265
2.4664
2.45609
2.45055
2.44112
2.43664
2.42884
2.42632
2.42204
2.42238
2.22966
2.13286
2.07798
2.04422
2.00972
1.9931
1.99751
2.02722
2.10169
2.26265
2.48597
2.68685
2.78207
2.85108
2.89455
2.91129
2.92131
2.93332
2.94071
2.93847
2.94005
2.94109
2.92936
2.91123
2.9042
2.89644
2.89009
2.88808
2.89009
2.89363
2.9007
2.91176
2.91863
2.92779
2.93237
2.93514
2.9327
2.92978
2.92216
2.91407
2.89728
2.88881
2.87498
2.86498
2.85157
2.84057
2.82706
2.81595
2.80253
2.79157
2.77747
2.76538
2.75097
2.73958
2.72525
2.71393
2.69953
2.68825
2.67425
2.66319
2.64937
2.63828
2.62474
2.61377
2.60046
2.5896
2.57651
2.56599
2.55307
2.54281
2.53003
2.51995
2.5073
2.49735
2.4849
2.4751
2.46286
2.45329
2.44125
2.432
2.42011
2.41122
2.39953
2.39092
2.37956
2.37116
2.36019
2.35203
2.34146
2.33366
2.32349
2.31619
2.30653
2.29996
2.29106
2.28553
2.27798
2.27439
2.26996
2.2689
2.22903
2.14084
2.06315
1.98636
1.92156
1.87305
1.86414
1.87827
1.92185
2.04513
2.2192
2.46462
2.62683
2.66763
2.70072
2.76907
2.81173
2.83472
2.87145
2.89786
2.92206
2.93893
2.94723
2.95114
2.95038
2.94929
2.95018
2.95542
2.96303
2.96734
2.96833
2.96711
2.95597
2.94567
2.93221
2.91194
2.89304
2.87445
2.85912
2.84229
2.8287
2.8146
2.80108
2.78835
2.77518
2.76259
2.74919
2.73701
2.72384
2.71239
2.6993
2.68684
2.67301
2.66097
2.6481
2.63649
2.62385
2.61224
2.59962
2.58799
2.57559
2.56413
2.55198
2.54081
2.52882
2.51796
2.50616
2.49564
2.484
2.4738
2.46223
2.45225
2.44072
2.43087
2.41938
2.40967
2.39826
2.3888
2.3775
2.36836
2.35721
2.3484
2.33748
2.32892
2.31831
2.30997
2.29971
2.29163
2.28169
2.2739
2.26424
2.25692
2.24766
2.24099
2.23244
2.22686
2.21964
2.21597
2.21179
2.21061
2.22098
2.13436
2.0524
1.98117
1.91408
1.86644
1.83038
1.82685
1.83915
1.88327
2.00331
2.2251
2.41824
2.50681
2.57192
2.60816
2.62619
2.67101
2.72945
2.75387
2.78262
2.82594
2.85653
2.88357
2.90416
2.92012
2.9337
2.94382
2.94808
2.94586
2.93489
2.91599
2.88917
2.86539
2.83821
2.8178
2.79559
2.7792
2.76159
2.74799
2.73384
2.72108
2.70794
2.69575
2.68285
2.67121
2.65853
2.64725
2.63507
2.62473
2.61266
2.60127
2.58811
2.57678
2.5642
2.55306
2.54072
2.52972
2.51761
2.50678
2.4947
2.48399
2.47183
2.46129
2.4491
2.43885
2.42676
2.41681
2.4049
2.39513
2.38342
2.37373
2.3622
2.35259
2.34122
2.33177
2.32054
2.31134
2.3002
2.29129
2.2803
2.27162
2.26089
2.25235
2.24199
2.23356
2.22357
2.21535
2.20568
2.19791
2.18864
2.18142
2.17264
2.16608
2.15804
2.1525
2.1458
2.1421
2.13842
2.13699
2.21835
2.13465
2.05614
1.98605
1.92379
1.86674
1.82467
1.79159
1.79155
1.80722
1.86217
1.99735
2.24974
2.35954
2.4086
2.46935
2.51477
2.539
2.56138
2.59867
2.64917
2.67366
2.69331
2.73357
2.76904
2.79571
2.82287
2.84032
2.84924
2.84654
2.83223
2.80438
2.77561
2.74603
2.72309
2.70312
2.68691
2.67268
2.65978
2.64845
2.63714
2.6267
2.61565
2.6051
2.5941
2.58344
2.57246
2.56177
2.55098
2.54113
2.53107
2.52055
2.50903
2.4983
2.48754
2.47717
2.4665
2.45608
2.44539
2.43508
2.42429
2.41409
2.40327
2.39327
2.38251
2.37277
2.3621
2.35273
2.34227
2.33324
2.32303
2.31407
2.30396
2.29499
2.28482
2.27594
2.26577
2.25707
2.24712
2.23861
2.22903
2.22073
2.2115
2.20338
2.19429
2.18643
2.17756
2.17005
2.16154
2.15449
2.14643
2.14002
2.13247
2.12693
2.11999
2.11557
2.1098
2.10711
2.10433
2.10331
2.22006
2.14189
2.06527
1.99778
1.9355
1.87992
1.83105
1.79338
1.77197
1.7737
1.79595
1.8612
2.0081
2.21558
2.31075
2.34384
2.37342
2.42129
2.45688
2.47712
2.4969
2.526
2.56705
2.59513
2.61894
2.64836
2.68356
2.70156
2.72017
2.71854
2.70289
2.67556
2.64539
2.61884
2.59578
2.57973
2.56899
2.56198
2.55581
2.55019
2.5431
2.53629
2.52825
2.52064
2.51213
2.50412
2.49503
2.48647
2.47668
2.46824
2.45931
2.45085
2.44049
2.43081
2.42052
2.41137
2.40106
2.39168
2.38127
2.37205
2.3618
2.35273
2.34236
2.33332
2.32289
2.31388
2.3035
2.29441
2.2841
2.27509
2.26489
2.25617
2.24611
2.23756
2.2276
2.21903
2.20914
2.20064
2.1908
2.18258
2.17282
2.16487
2.15536
2.14764
2.13866
2.13114
2.12261
2.11543
2.1071
2.10052
2.09229
2.08651
2.07873
2.07392
2.06724
2.06361
2.05884
2.05698
2.05556
2.05484
2.22441
2.1477
2.07953
2.01168
1.9524
1.89742
1.8468
1.80514
1.77049
1.75819
1.76343
1.78883
1.86161
2.00963
2.17167
2.25812
2.29023
2.31037
2.33578
2.3707
2.40046
2.41492
2.43666
2.46689
2.50663
2.53148
2.56257
2.59206
2.62022
2.61939
2.60343
2.57424
2.5437
2.51307
2.49054
2.47402
2.46744
2.46536
2.46453
2.46278
2.45929
2.45549
2.45012
2.44473
2.43818
2.43184
2.42467
2.41785
2.41042
2.40366
2.3967
2.39005
2.38204
2.37345
2.36469
2.3564
2.34801
2.33981
2.3311
2.32284
2.31408
2.30602
2.29729
2.28912
2.2801
2.27176
2.26249
2.25418
2.24479
2.23645
2.22709
2.21872
2.20956
2.20132
2.19228
2.18421
2.17502
2.16714
2.15774
2.14997
2.14065
2.13313
2.1242
2.11699
2.1085
2.10166
2.09348
2.08712
2.07917
2.07333
2.0657
2.06052
2.05363
2.04932
2.04377
2.0408
2.03718
2.0368
2.03586
2.03576
2.22643
2.15756
2.09019
2.02829
1.96982
1.91549
1.8681
1.82171
1.78629
1.75493
1.75043
1.75863
1.7876
1.86871
1.99986
2.13308
2.20036
2.23979
2.25835
2.26994
2.29342
2.32236
2.3511
2.3698
2.39861
2.43245
2.47791
2.51755
2.54942
2.54878
2.53079
2.50136
2.46402
2.42955
2.4035
2.38295
2.37176
2.36919
2.3727
2.37645
2.37816
2.37795
2.37615
2.37391
2.3704
2.36708
2.3624
2.35791
2.35221
2.34728
2.3418
2.33719
2.33123
2.3248
2.31701
2.31013
2.30249
2.29584
2.28812
2.28113
2.27314
2.26599
2.25792
2.25073
2.24224
2.23464
2.22556
2.21759
2.2084
2.20038
2.19143
2.18356
2.17485
2.1673
2.15872
2.15147
2.14275
2.13545
2.12649
2.11905
2.11005
2.10266
2.09393
2.08696
2.07861
2.0723
2.06436
2.05868
2.05118
2.04592
2.03913
2.0343
2.02858
2.02465
2.0203
2.01812
2.01586
2.01616
2.01603
2.01545
2.22632
2.16519
2.10238
2.04301
1.98597
1.93485
1.88476
1.84294
1.80124
1.77023
1.74432
1.7445
1.75494
1.78746
1.87089
2.00151
2.097
2.14785
2.18754
2.20937
2.22096
2.23346
2.26269
2.29385
2.32698
2.35748
2.41177
2.47237
2.50168
2.49989
2.4787
2.445
2.40174
2.36226
2.3328
2.31325
2.29968
2.29172
2.29328
2.29948
2.30649
2.31127
2.31445
2.31531
2.31474
2.31312
2.31032
2.30745
2.3035
2.29982
2.29551
2.29211
2.28771
2.28297
2.27659
2.27023
2.26331
2.25675
2.24966
2.24301
2.23557
2.22889
2.2213
2.2147
2.20701
2.20012
2.19198
2.1845
2.17595
2.16829
2.15968
2.15225
2.1437
2.13663
2.12816
2.12132
2.11296
2.10613
2.09776
2.09069
2.08221
2.07511
2.06671
2.06012
2.05213
2.0464
2.03908
2.03411
2.02756
2.02316
2.01754
2.01375
2.00929
2.00633
2.00365
2.00193
2.00167
2.00207
2.00205
2.00145
2.22469
2.16831
2.11261
2.05618
2.00362
1.95199
1.90582
1.8609
1.82217
1.78511
1.75742
1.73789
1.7389
1.75211
1.78833
1.87094
1.99759
2.0734
2.10688
2.13857
2.16642
2.17968
2.19638
2.22319
2.26363
2.31444
2.38416
2.45057
2.4702
2.46328
2.44084
2.40262
2.35535
2.31161
2.27877
2.25723
2.24286
2.23377
2.22823
2.23109
2.23841
2.2473
2.25438
2.25917
2.26201
2.26307
2.2628
2.26163
2.25929
2.25687
2.25378
2.25124
2.2482
2.24499
2.24014
2.23494
2.22866
2.22288
2.21617
2.21021
2.20334
2.19728
2.19038
2.18427
2.17732
2.17097
2.16354
2.15662
2.14847
2.14116
2.13267
2.12546
2.11705
2.11007
2.10179
2.09504
2.08702
2.08045
2.07249
2.06595
2.0578
2.05128
2.04308
2.03689
2.02926
2.02377
2.01721
2.01251
2.00719
2.0033
1.9994
1.99622
1.99389
1.99182
1.99075
1.99055
1.99065
1.99111
1.99241
1.99149
2.2206
2.1712
2.11865
2.06726
2.01659
1.96888
1.92278
1.8806
1.84065
1.80509
1.77268
1.74754
1.73473
1.73623
1.75121
1.78944
1.86913
1.98455
2.05454
2.07685
2.1021
2.12741
2.15187
2.17694
2.21881
2.29098
2.37868
2.44258
2.45099
2.43942
2.41174
2.36787
2.31807
2.27587
2.24255
2.21677
2.20049
2.18871
2.18199
2.1789
2.18202
2.18995
2.19927
2.20811
2.21458
2.21881
2.22095
2.22146
2.22077
2.21924
2.21675
2.21487
2.21232
2.21031
2.20644
2.20213
2.19619
2.1906
2.18404
2.17802
2.17121
2.16495
2.15802
2.15181
2.1449
2.13882
2.1317
2.12536
2.11761
2.11072
2.10249
2.0955
2.08735
2.08068
2.07288
2.06656
2.05882
2.05267
2.04488
2.0389
2.03112
2.0252
2.01761
2.01182
2.0049
1.99955
1.99384
1.98932
1.98524
1.98199
1.97935
1.97768
1.9765
1.97611
1.97627
1.97656
1.977
1.97789
1.98025
1.97873
2.21406
2.16999
2.12365
2.07636
2.02898
1.98358
1.93959
1.89813
1.85895
1.82281
1.78966
1.76128
1.73873
1.73102
1.7342
1.75046
1.79184
1.86538
1.9695
2.03378
2.05689
2.07919
2.10582
2.14842
2.20179
2.29995
2.39332
2.43701
2.43635
2.42076
2.38741
2.34078
2.29382
2.25326
2.21908
2.19236
2.17158
2.15738
2.14851
2.14412
2.14139
2.14368
2.15053
2.159
2.16893
2.17538
2.18089
2.18279
2.1834
2.18275
2.18088
2.17934
2.17703
2.17547
2.1724
2.16883
2.16323
2.15781
2.15134
2.1455
2.13889
2.13296
2.12614
2.12009
2.11304
2.107
2.09985
2.0938
2.08635
2.07992
2.07194
2.06512
2.05697
2.05043
2.04263
2.03658
2.02904
2.02322
2.01582
2.01009
2.00305
1.9975
1.99114
1.98581
1.98026
1.97529
1.97073
1.96684
1.96372
1.96143
1.96001
1.95941
1.95962
1.95992
1.96041
1.96118
1.96256
1.96316
1.96457
1.96325
2.2063
2.16617
2.12473
2.08074
2.03878
1.99466
1.95454
1.91392
1.8768
1.84052
1.80795
1.77714
1.75188
1.73177
1.72899
1.7336
1.74994
1.795
1.86204
1.95816
2.01707
2.04774
2.07623
2.1274
2.2142
2.33058
2.41609
2.43634
2.42983
2.40841
2.36818
2.32072
2.27707
2.23912
2.20652
2.17916
2.15674
2.13877
2.1261
2.1179
2.11319
2.11092
2.11127
2.11601
2.12317
2.13169
2.13751
2.14282
2.14484
2.14619
2.14542
2.14386
2.14117
2.13919
2.13594
2.13285
2.12762
2.12271
2.11636
2.11105
2.10448
2.09912
2.09227
2.08667
2.07938
2.07351
2.06596
2.06002
2.05241
2.04639
2.03856
2.03235
2.02441
2.01819
2.01045
2.00448
1.99731
1.99156
1.98499
1.97928
1.97332
1.96787
1.96273
1.95795
1.95364
1.94982
1.9466
1.94406
1.94219
1.94115
1.94111
1.94125
1.94173
1.94259
1.94394
1.9447
1.94529
1.94548
1.94497
1.94368
2.19655
2.16151
2.1236
2.08511
2.04395
2.00556
1.96471
1.92821
1.89066
1.85682
1.82317
1.79375
1.76518
1.74297
1.7257
1.72615
1.73257
1.75111
1.79877
1.86429
1.95329
2.01529
2.06439
2.13168
2.25959
2.38275
2.43589
2.43595
2.42382
2.3936
2.35087
2.30733
2.26796
2.23361
2.20287
2.17582
2.15186
2.13128
2.11449
2.10052
2.09162
2.08563
2.08145
2.07909
2.08001
2.08435
2.0907
2.09625
2.10145
2.10376
2.10503
2.10414
2.10191
2.09981
2.09669
2.09415
2.0899
2.08557
2.07978
2.07466
2.06838
2.06312
2.05654
2.05114
2.04413
2.03852
2.03112
2.02538
2.01784
2.01207
2.00478
1.99909
1.99213
1.98622
1.97947
1.97336
1.967
1.9611
1.95535
1.94998
1.94493
1.94025
1.93592
1.93199
1.92873
1.92613
1.92424
1.92332
1.92296
1.92313
1.92371
1.92441
1.92571
1.92677
1.92757
1.92755
1.92712
1.92622
1.92433
1.92203
2.18594
2.15495
2.12064
2.08536
2.04817
2.01145
1.97489
1.93849
1.90408
1.87019
1.83815
1.80808
1.77942
1.75518
1.73351
1.72155
1.72249
1.73161
1.7536
1.80552
1.87961
1.96855
2.0551
2.16747
2.32121
2.42605
2.44813
2.44226
2.42216
2.38526
2.34199
2.30231
2.26695
2.23472
2.20553
2.17847
2.15274
2.1296
2.10806
2.09007
2.07502
2.06342
2.05478
2.04783
2.0428
2.03945
2.04086
2.04554
2.05096
2.05636
2.05946
2.06092
2.0605
2.05894
2.05595
2.05397
2.05073
2.04781
2.04284
2.03856
2.0326
2.02785
2.02135
2.01643
2.00962
2.00459
1.99769
1.99239
1.98551
1.97986
1.97337
1.9676
1.96153
1.95577
1.94994
1.94425
1.93862
1.93326
1.92818
1.92361
1.91952
1.9159
1.91288
1.91037
1.90866
1.9077
1.90742
1.90771
1.9085
1.90937
1.91099
1.91263
1.91373
1.9143
1.91397
1.91306
1.91132
1.90895
1.9044
1.90122
2.17449
2.14625
2.11584
2.08313
2.05085
2.01448
1.98183
1.94626
1.91444
1.88089
1.85189
1.81996
1.79501
1.76621
1.74634
1.72646
1.72086
1.72405
1.7363
1.76463
1.82341
1.92533
2.04636
2.22617
2.39837
2.45678
2.45634
2.44462
2.41671
2.37863
2.34109
2.30615
2.27281
2.24224
2.21174
2.18287
2.15447
2.12764
2.10306
2.08041
2.06017
2.04285
2.02839
2.01653
2.00734
2.0002
1.9966
1.99594
1.99902
2.00442
2.00924
2.0138
2.01585
2.01717
2.01639
2.01529
2.01315
2.01145
2.0079
2.0047
1.99923
1.99504
1.98906
1.9844
1.97839
1.9734
1.96758
1.96235
1.95671
1.95144
1.94594
1.94061
1.93521
1.92993
1.92472
1.91971
1.91489
1.9104
1.9063
1.90263
1.89944
1.89673
1.89487
1.89375
1.89377
1.89417
1.8953
1.89657
1.89863
1.90116
1.903
1.90428
1.90423
1.90386
1.90286
1.90055
1.89622
1.89107
1.88582
1.88203
2.16226
2.13495
2.10891
2.07839
2.04868
2.01789
1.98483
1.95402
1.92133
1.8912
1.86071
1.83266
1.8047
1.77992
1.75585
1.73672
1.7249
1.7257
1.73432
1.75552
1.80619
1.89241
2.05476
2.29001
2.44707
2.47585
2.46991
2.45113
2.41716
2.3814
2.34674
2.31271
2.27892
2.24488
2.21177
2.17942
2.14845
2.11943
2.09179
2.06597
2.04217
2.02094
2.00253
1.98746
1.97553
1.96643
1.95994
1.95629
1.95439
1.95597
1.96067
1.96649
1.97223
1.97653
1.97892
1.9802
1.97927
1.97826
1.97612
1.97403
1.96983
1.96585
1.96093
1.95646
1.95151
1.94676
1.94162
1.9366
1.93146
1.92645
1.92146
1.9166
1.91184
1.90722
1.9028
1.89858
1.89473
1.89123
1.8883
1.88568
1.88375
1.88261
1.8823
1.88266
1.88363
1.88489
1.88667
1.88979
1.89216
1.89393
1.89428
1.89405
1.89313
1.891
1.88758
1.88228
1.87626
1.87009
1.86377
1.8598
2.14907
2.12441
2.09857
2.07349
2.04396
2.01659
1.98669
1.9574
1.92744
1.89934
1.86872
1.84382
1.81392
1.7923
1.76611
1.74862
1.73472
1.73544
1.74402
1.76437
1.81096
1.90643
2.07983
2.32546
2.45848
2.47129
2.45818
2.43442
2.39894
2.36134
2.32476
2.2889
2.25481
2.22124
2.18911
2.15766
2.12797
2.09879
2.0715
2.04601
2.02268
2.00135
1.98217
1.96559
1.95181
1.94088
1.932
1.92475
1.92063
1.91888
1.91934
1.92304
1.92867
1.9346
1.93981
1.9434
1.94544
1.94542
1.94445
1.94338
1.94134
1.93844
1.93448
1.93039
1.92605
1.92164
1.91701
1.91233
1.90756
1.90282
1.89816
1.89362
1.88928
1.88516
1.88137
1.87796
1.87503
1.87269
1.87065
1.86943
1.86912
1.86952
1.87049
1.87224
1.87423
1.87796
1.88117
1.88385
1.88558
1.88549
1.88502
1.88391
1.88151
1.87677
1.87131
1.86515
1.85845
1.85175
1.84542
1.84154
2.13739
2.11341
2.08784
2.06498
2.03915
2.01317
1.98558
1.95972
1.92943
1.90563
1.87455
1.85188
1.82343
1.80133
1.77856
1.76035
1.75253
1.75577
1.76716
1.79242
1.84763
1.95531
2.1085
2.27133
2.37421
2.40272
2.39764
2.38563
2.36044
2.32688
2.29261
2.25971
2.22891
2.19908
2.17037
2.14198
2.11434
2.08719
2.06138
2.03654
2.01345
1.99162
1.97172
1.95324
1.93698
1.9225
1.9111
1.90175
1.89427
1.88916
1.88705
1.88579
1.88747
1.89151
1.89778
1.90317
1.908
1.91078
1.9121
1.91176
1.91085
1.90947
1.90714
1.90387
1.90017
1.89626
1.89232
1.88843
1.8846
1.88084
1.87716
1.87364
1.87028
1.86724
1.86457
1.86237
1.86082
1.85972
1.85954
1.86002
1.86117
1.86265
1.86509
1.8687
1.8721
1.87502
1.87774
1.87772
1.87759
1.87683
1.87465
1.87128
1.86597
1.85993
1.8532
1.84633
1.83904
1.83228
1.82591
1.82197
2.12229
2.10212
2.07839
2.05539
2.03228
2.00853
1.98253
1.95893
1.9313
1.90744
1.88097
1.85597
1.83289
1.80896
1.79097
1.77667
1.77688
1.78531
1.80436
1.84721
1.92615
2.03578
2.128
2.20258
2.28343
2.335
2.34738
2.34244
2.33183
2.30923
2.27724
2.24622
2.21648
2.18841
2.16056
2.13364
2.10617
2.07997
2.05408
2.03003
2.00679
1.98534
1.96442
1.94513
1.9267
1.91047
1.89609
1.88422
1.87437
1.8658
1.85967
1.85597
1.85476
1.85526
1.85857
1.86397
1.87054
1.87563
1.87992
1.8818
1.88252
1.88195
1.88118
1.87981
1.87726
1.87386
1.87027
1.86666
1.86313
1.85975
1.85659
1.85374
1.85127
1.84936
1.84799
1.84727
1.84733
1.84786
1.84922
1.85066
1.85379
1.85771
1.86173
1.86551
1.86804
1.87041
1.86997
1.86926
1.86792
1.86542
1.86037
1.85502
1.84852
1.84174
1.83453
1.82755
1.82032
1.81386
1.80774
1.80401
2.10783
2.0909
2.0691
2.04611
2.02439
2.00248
1.97842
1.95609
1.93098
1.90801
1.88352
1.86095
1.83823
1.81949
1.80391
1.80188
1.80913
1.8255
1.86227
1.92898
2.02708
2.0937
2.12697
2.15775
2.19824
2.25256
2.28582
2.2972
2.29392
2.28566
2.2672
2.23969
2.21006
2.18167
2.15398
2.12741
2.1007
2.075
2.04949
2.02574
2.00259
1.98083
1.95974
1.93934
1.92016
1.90194
1.88545
1.871
1.85827
1.84802
1.83865
1.83135
1.82664
1.82453
1.82415
1.82573
1.83012
1.83552
1.84171
1.84602
1.84979
1.85111
1.85209
1.85173
1.85104
1.8496
1.84728
1.84458
1.84189
1.83943
1.83733
1.8357
1.83469
1.83441
1.8347
1.83542
1.83691
1.83893
1.84237
1.8466
1.8511
1.85534
1.85918
1.86163
1.86216
1.86202
1.86117
1.85891
1.85486
1.84994
1.84352
1.83708
1.82988
1.82282
1.81551
1.80868
1.80175
1.79571
1.78993
1.78651
2.08806
2.07621
2.05905
2.03641
2.01544
1.99524
1.9731
1.95216
1.92925
1.90741
1.88556
1.86436
1.846
1.83045
1.82787
1.83498
1.85029
1.88393
1.94923
2.03722
2.09688
2.11516
2.11994
2.12443
2.1392
2.16948
2.20947
2.24133
2.25586
2.2542
2.24662
2.23169
2.20673
2.17784
2.1495
2.12224
2.09592
2.06975
2.04491
2.02058
1.9981
1.97592
1.95488
1.93391
1.91366
1.89435
1.8765
1.86011
1.84593
1.83291
1.82221
1.81199
1.80371
1.7978
1.79476
1.79417
1.79475
1.79756
1.80324
1.80873
1.81498
1.81887
1.82251
1.82372
1.82486
1.82466
1.8242
1.8232
1.82166
1.82035
1.81943
1.81951
1.82002
1.82128
1.82259
1.82536
1.82957
1.83416
1.83896
1.8441
1.84849
1.85154
1.8543
1.85362
1.85294
1.85158
1.84875
1.84405
1.83812
1.83195
1.82472
1.81791
1.81057
1.80369
1.79659
1.79023
1.78376
1.77826
1.77303
1.77001
2.06754
2.06214
2.04733
2.02702
2.00632
1.98717
1.96671
1.9468
1.92631
1.90569
1.88611
1.86868
1.85467
1.85239
1.85994
1.87556
1.91078
1.9738
2.05838
2.11382
2.12674
2.12005
2.11407
2.10413
2.10458
2.11211
2.13442
2.17127
2.20364
2.21992
2.21926
2.21294
2.20014
2.17612
2.14747
2.11887
2.09181
2.06512
2.03989
2.01572
1.99314
1.97125
1.95001
1.92863
1.90783
1.8876
1.86879
1.85144
1.83554
1.82107
1.80769
1.79597
1.78536
1.77626
1.76964
1.76589
1.76478
1.76474
1.7663
1.77017
1.77668
1.78229
1.7885
1.79279
1.7963
1.79876
1.79994
1.80136
1.80187
1.80269
1.80367
1.80506
1.80719
1.81046
1.8147
1.81981
1.82557
1.8313
1.83658
1.8412
1.84366
1.845
1.84463
1.84359
1.8411
1.83748
1.83201
1.82607
1.81914
1.81252
1.80521
1.79841
1.79131
1.78497
1.77846
1.77269
1.76684
1.76196
1.75743
1.75483
2.03794
2.0417
2.03436
2.01837
1.99772
1.97846
1.95972
1.94077
1.92243
1.90412
1.88772
1.87518
1.87375
1.88233
1.89922
1.93555
2.00135
2.08436
2.13809
2.14786
2.13939
2.12533
2.10294
2.08482
2.07975
2.08062
2.08742
2.10653
2.13774
2.16734
2.18149
2.18097
2.17515
2.16365
2.14158
2.11534
2.08861
2.06151
2.03489
2.00983
1.98663
1.96494
1.94362
1.9227
1.90157
1.88141
1.86228
1.84427
1.82764
1.81154
1.79656
1.78271
1.77024
1.75972
1.75035
1.74327
1.7387
1.73665
1.73633
1.73731
1.74049
1.74628
1.75342
1.76021
1.76652
1.77189
1.77602
1.77975
1.783
1.78631
1.79003
1.79378
1.79833
1.80376
1.80999
1.81651
1.82278
1.82801
1.83221
1.83489
1.83447
1.83387
1.8326
1.82997
1.82472
1.81946
1.81267
1.80628
1.79903
1.79245
1.78543
1.77914
1.77259
1.76679
1.76087
1.75578
1.75068
1.74658
1.74282
1.74077
2.00245
2.02055
2.019
2.00774
1.98996
1.97063
1.95233
1.93517
1.91846
1.90407
1.8928
1.89253
1.90236
1.92107
1.95966
2.02884
2.1127
2.16158
2.16901
2.15985
2.14227
2.11522
2.0903
2.07089
2.06012
2.05739
2.05804
2.06321
2.07873
2.10246
2.12879
2.14122
2.14222
2.13729
2.12699
2.10856
2.08454
2.05749
2.02962
2.00398
1.98054
1.95897
1.93761
1.9163
1.89477
1.87436
1.85484
1.83677
1.81923
1.80262
1.78619
1.77127
1.75717
1.74525
1.7345
1.72523
1.71739
1.71192
1.70917
1.70913
1.70986
1.71268
1.71838
1.7263
1.73461
1.74294
1.75103
1.75818
1.76505
1.77178
1.77827
1.78519
1.79249
1.7999
1.80702
1.81361
1.819
1.82212
1.82427
1.82369
1.82271
1.82069
1.81668
1.81225
1.80591
1.7998
1.79264
1.78627
1.77919
1.77296
1.76634
1.76055
1.75457
1.74943
1.7442
1.73983
1.7355
1.73221
1.72935
1.72789
1.92915
1.98823
1.99813
1.99425
1.98119
1.96359
1.94611
1.93028
1.91672
1.90793
1.90881
1.92046
1.94133
1.98341
2.05772
2.14099
2.18541
2.19028
2.18075
2.16005
2.13232
2.10473
2.08135
2.06288
2.04819
2.03926
2.03476
2.03507
2.03726
2.04707
2.06604
2.08795
2.09903
2.10243
2.09841
2.09031
2.07619
2.05215
2.02499
1.99886
1.97549
1.9533
1.9314
1.90914
1.8875
1.86689
1.84796
1.82957
1.81205
1.79427
1.77757
1.76127
1.74687
1.73324
1.72162
1.71063
1.7013
1.69306
1.68753
1.68465
1.68475
1.68546
1.68812
1.69398
1.70298
1.71336
1.72459
1.73617
1.7474
1.75827
1.7687
1.77852
1.78772
1.79598
1.80279
1.80825
1.81082
1.81141
1.81104
1.80995
1.80748
1.80329
1.79759
1.79203
1.78527
1.77917
1.77228
1.76629
1.75966
1.75399
1.7479
1.74275
1.73732
1.7329
1.72831
1.72489
1.72146
1.71926
1.71738
1.71652
1.79144
1.94204
1.97248
1.97621
1.97062
1.95735
1.94128
1.92753
1.91968
1.92255
1.93601
1.96
2.00685
2.08782
2.16949
2.2074
2.21002
2.20024
2.17933
2.14785
2.12007
2.09648
2.0752
2.05868
2.04103
2.02819
2.017
2.01037
2.00787
2.00858
2.01357
2.02658
2.0451
2.05664
2.06192
2.05899
2.05305
2.04089
2.01814
1.99377
1.97045
1.94762
1.92452
1.90171
1.87985
1.85982
1.84091
1.82245
1.804
1.78586
1.76835
1.75234
1.73696
1.72348
1.70974
1.69849
1.68672
1.67844
1.6703
1.6655
1.66342
1.6636
1.66454
1.66774
1.67492
1.68607
1.69949
1.71446
1.72992
1.74481
1.75869
1.7709
1.78117
1.78861
1.79393
1.79681
1.79664
1.79617
1.79494
1.79256
1.78788
1.78267
1.7764
1.77108
1.76455
1.75886
1.75228
1.7468
1.74062
1.73552
1.72989
1.7254
1.72063
1.71707
1.71339
1.71108
1.70867
1.70759
1.70682
1.70664
1.58161
1.85655
1.9429
1.95839
1.95875
1.95143
1.93935
1.92985
1.93343
1.94883
1.9796
2.03064
2.12009
2.19699
2.22947
2.22811
2.21761
2.19396
2.1633
2.13549
2.11027
2.09176
2.07108
2.05418
2.03616
2.0188
2.0051
1.99123
1.98457
1.9785
1.97855
1.9799
1.98759
2.00212