/*--------------------------------*- C++ -*----------------------------------*\
  =========                 |
  \\      /  F ield         | OpenFOAM: The Open Source CFD Toolbox
   \\    /   O peration     | Website:  https://openfoam.org
    \\  /    A nd           | Version:  13
     \\/     M anipulation  |
\*---------------------------------------------------------------------------*/
FoamFile
{
    format      ascii;
    class       volVectorField;
    location    "4.5";
    object      U;
}
// * * * * * * * * * * * * * * * * * * * * * * * * * * * * * * * * * * * * * //

dimensions      [0 1 -1 0 0 0 0];

internalField   nonuniform List<vector> 
5250
(
(3 9.97042e-09 0)
(2.99999 8.48225e-08 0)
(2.99997 1.62255e-07 0)
(2.99991 8.288e-07 0)
(2.99978 1.49747e-06 0)
(2.99946 4.67246e-06 0)
(2.99868 1.32205e-05 0)
(2.99669 2.35607e-05 0)
(2.99188 9.10466e-05 0)
(2.97964 0.000155929 0)
(2.94809 0.000514637 0)
(2.86159 0.00118741 0)
(2.61094 0.00345456 0)
(1.8759 0.0097045 0)
(0.871456 0.0264812 0)
(0.441904 0.0243512 0)
(0.534969 0.0244118 0)
(0.560444 0.0262569 0)
(0.505818 0.0281198 0)
(0.415212 0.030014 0)
(0.33031 0.0322441 0)
(0.261635 0.0348448 0)
(0.192987 0.0375458 0)
(0.114928 0.0406163 0)
(0.049559 0.0446869 0)
(3 4.32744e-08 0)
(2.99999 2.21459e-07 0)
(2.99997 8.02151e-07 0)
(2.99991 2.13022e-06 0)
(2.99979 6.23921e-06 0)
(2.99947 1.31524e-05 0)
(2.99869 4.33232e-05 0)
(2.99675 7.64447e-05 0)
(2.99199 0.000271015 0)
(2.97998 0.000510144 0)
(2.94897 0.0015526 0)
(2.86395 0.00372003 0)
(2.61816 0.0106196 0)
(1.89423 0.030186 0)
(0.882139 0.0807386 0)
(0.438501 0.0703582 0)
(0.534963 0.0672774 0)
(0.561636 0.0702699 0)
(0.506703 0.0733282 0)
(0.416106 0.0765459 0)
(0.331173 0.080113 0)
(0.261907 0.08399 0)
(0.192237 0.0875365 0)
(0.112875 0.0908382 0)
(0.0469178 0.0936307 0)
(3 6.39601e-08 0)
(2.99999 3.70605e-07 0)
(2.99997 1.43289e-06 0)
(2.99992 3.63338e-06 0)
(2.99979 1.06162e-05 0)
(2.99949 2.48208e-05 0)
(2.99873 6.44146e-05 0)
(2.99688 0.000159737 0)
(2.99224 0.000383256 0)
(2.9807 0.000991479 0)
(2.95079 0.0024351 0)
(2.86907 0.00645757 0)
(2.63325 0.0177052 0)
(1.93569 0.0512566 0)
(0.907738 0.138501 0)
(0.435968 0.119575 0)
(0.538936 0.113077 0)
(0.56835 0.118247 0)
(0.513259 0.124032 0)
(0.422935 0.130708 0)
(0.337963 0.137491 0)
(0.267874 0.144551 0)
(0.196791 0.151273 0)
(0.11549 0.157194 0)
(0.0471571 0.160737 0)
(3 9.14139e-08 0)
(2.99999 4.95646e-07 0)
(2.99997 1.98471e-06 0)
(2.99992 4.8657e-06 0)
(2.9998 1.4522e-05 0)
(2.99951 3.31674e-05 0)
(2.9988 8.91506e-05 0)
(2.99702 0.00021062 0)
(2.99268 0.000535487 0)
(2.9817 0.00131769 0)
(2.95351 0.00335367 0)
(2.87679 0.00871515 0)
(2.65556 0.0241054 0)
(1.99967 0.0696994 0)
(0.948725 0.192254 0)
(0.436453 0.16819 0)
(0.547956 0.158414 0)
(0.581583 0.165569 0)
(0.526557 0.174229 0)
(0.436581 0.184971 0)
(0.351133 0.195446 0)
(0.279879 0.206244 0)
(0.20684 0.216915 0)
(0.122371 0.226264 0)
(0.0496757 0.231057 0)
(3 9.77763e-08 0)
(2.99999 6.55762e-07 0)
(2.99997 2.09656e-06 0)
(2.99993 6.38899e-06 0)
(2.99982 1.56717e-05 0)
(2.99955 4.14816e-05 0)
(2.99888 0.000102398 0)
(2.99725 0.000252251 0)
(2.99317 0.000644058 0)
(2.98306 0.00156964 0)
(2.95694 0.00402597 0)
(2.88648 0.0104413 0)
(2.68433 0.0289064 0)
(2.083 0.0836605 0)
(1.00693 0.23767 0)
(0.445918 0.218142 0)
(0.563934 0.206268 0)
(0.602236 0.213995 0)
(0.547502 0.224552 0)
(0.457877 0.239137 0)
(0.371284 0.253568 0)
(0.298284 0.268628 0)
(0.22258 0.284017 0)
(0.13343 0.297899 0)
(0.0542975 0.304965 0)
(3 1.04864e-07 0)
(2.99999 6.65627e-07 0)
(2.99997 2.25205e-06 0)
(2.99993 6.53456e-06 0)
(2.99983 1.68869e-05 0)
(2.99958 4.3244e-05 0)
(2.99898 0.000108833 0)
(2.99747 0.000267526 0)
(2.99378 0.000678773 0)
(2.98451 0.00166345 0)
(2.96093 0.00425598 0)
(2.89752 0.0109947 0)
(2.71734 0.030293 0)
(2.18241 0.0875724 0)
(1.08948 0.255957 0)
(0.479814 0.262641 0)
(0.592512 0.256733 0)
(0.632831 0.264809 0)
(0.578344 0.27654 0)
(0.489067 0.294663 0)
(0.400575 0.313639 0)
(0.324937 0.333936 0)
(0.245643 0.355413 0)
(0.150245 0.375943 0)
(0.0619157 0.387677 0)
(3 1.03853e-07 0)
(2.99999 5.94712e-07 0)
(2.99998 2.26011e-06 0)
(2.99994 5.86298e-06 0)
(2.99985 1.67965e-05 0)
(2.99963 4.00155e-05 0)
(2.99906 0.000104001 0)
(2.99773 0.000253026 0)
(2.99433 0.00062833 0)
(2.98604 0.00156606 0)
(2.96473 0.00390675 0)
(2.90822 0.0100872 0)
(2.74873 0.0272487 0)
(2.27819 0.0777555 0)
(1.1882 0.230019 0)
(0.528288 0.295844 0)
(0.624342 0.309512 0)
(0.664624 0.317134 0)
(0.613319 0.329624 0)
(0.527337 0.351712 0)
(0.438411 0.376377 0)
(0.36063 0.403261 0)
(0.277874 0.432811 0)
(0.175251 0.463393 0)
(0.074394 0.484867 0)
(3 9.34866e-08 0)
(2.99999 5.99139e-07 0)
(2.99998 2.03088e-06 0)
(2.99994 5.8764e-06 0)
(2.99986 1.50624e-05 0)
(2.99966 3.88578e-05 0)
(2.99916 9.45329e-05 0)
(2.99791 0.000237016 0)
(2.99488 0.000575798 0)
(2.98725 0.00142882 0)
(2.96801 0.00353941 0)
(2.91703 0.00901964 0)
(2.77354 0.0240359 0)
(2.3508 0.0673257 0)
(1.29107 0.198615 0)
(0.575077 0.336699 0)
(0.639014 0.370439 0)
(0.678766 0.368916 0)
(0.640223 0.381604 0)
(0.564961 0.408068 0)
(0.480568 0.440463 0)
(0.403996 0.476205 0)
(0.320587 0.516869 0)
(0.212502 0.562976 0)
(0.0955669 0.605554 0)
(3 1.00871e-07 0)
(2.99999 5.74272e-07 0)
(2.99998 2.08184e-06 0)
(2.99995 5.576e-06 0)
(2.99987 1.53594e-05 0)
(2.99969 3.63037e-05 0)
(2.99923 9.78323e-05 0)
(2.99813 0.000219057 0)
(2.99532 0.000596402 0)
(2.9885 0.0013389 0)
(2.97105 0.0035551 0)
(2.92526 0.00868608 0)
(2.79707 0.0234107 0)
(2.42014 0.0650721 0)
(1.421 0.191949 0)
(0.655792 0.38631 0)
(0.646996 0.418739 0)
(0.677222 0.415023 0)
(0.660436 0.431643 0)
(0.601198 0.461371 0)
(0.526287 0.503085 0)
(0.455208 0.550204 0)
(0.376562 0.605364 0)
(0.270532 0.677078 0)
(0.134071 0.764789 0)
(3 9.01221e-08 0)
(2.99999 5.96393e-07 0)
(2.99998 1.98517e-06 0)
(2.99995 5.79418e-06 0)
(2.99989 1.48059e-05 0)
(2.99972 3.81657e-05 0)
(2.99931 9.3634e-05 0)
(2.99832 0.000234844 0)
(2.99581 0.000572925 0)
(2.98971 0.00142478 0)
(2.97414 0.00352511 0)
(2.93353 0.00895165 0)
(2.82052 0.0236146 0)
(2.49002 0.065906 0)
(1.57469 0.192762 0)
(0.756616 0.43457 0)
(0.654335 0.451085 0)
(0.682464 0.453347 0)
(0.680502 0.476475 0)
(0.6372 0.510435 0)
(0.5769 0.560744 0)
(0.515842 0.620051 0)
(0.452125 0.696667 0)
(0.366607 0.813481 0)
(0.206813 1.02446 0)
(3 9.57334e-08 0)
(2.99999 5.98226e-07 0)
(2.99998 2.08288e-06 0)
(2.99996 5.85552e-06 0)
(2.9999 1.5423e-05 0)
(2.99976 3.89876e-05 0)
(2.99939 9.66091e-05 0)
(2.99853 0.000241329 0)
(2.99631 0.000591449 0)
(2.99096 0.00147639 0)
(2.97732 0.00365302 0)
(2.94201 0.00927086 0)
(2.8445 0.0243347 0)
(2.561 0.0677367 0)
(1.7493 0.196623 0)
(0.876064 0.482961 0)
(0.663722 0.485365 0)
(0.694888 0.488039 0)
(0.705878 0.513025 0)
(0.676541 0.553034 0)
(0.632619 0.609106 0)
(0.590529 0.679952 0)
(0.561402 0.777083 0)
(0.561276 0.925553 0)
(0.603033 1.17649 0)
(3 8.86604e-08 0)
(2.99999 6.29791e-07 0)
(2.99999 2.01538e-06 0)
(2.99997 6.15345e-06 0)
(2.99991 1.50575e-05 0)
(2.99979 4.11292e-05 0)
(2.99948 9.47104e-05 0)
(2.99874 0.000256536 0)
(2.99684 0.000583321 0)
(2.99227 0.00156808 0)
(2.98063 0.00367247 0)
(2.95078 0.0096594 0)
(2.86924 0.024788 0)
(2.63407 0.0691527 0)
(1.9453 0.199852 0)
(1.0181 0.526054 0)
(0.683947 0.523585 0)
(0.716214 0.524318 0)
(0.73841 0.544344 0)
(0.72175 0.588014 0)
(0.693936 0.647647 0)
(0.674853 0.726172 0)
(0.682188 0.832232 0)
(0.745269 0.978372 0)
(0.900618 1.17041 0)
(3 8.97134e-08 0)
(3 6.02827e-07 0)
(2.99999 2.00838e-06 0)
(2.99997 5.8892e-06 0)
(2.99993 1.49674e-05 0)
(2.99982 3.9505e-05 0)
(2.99957 9.44289e-05 0)
(2.99893 0.000247487 0)
(2.99741 0.00058196 0)
(2.99354 0.00152354 0)
(2.98406 0.00363965 0)
(2.95962 0.00945001 0)
(2.89414 0.0242752 0)
(2.70788 0.0671151 0)
(2.15721 0.194107 0)
(1.19158 0.543803 0)
(0.735477 0.565818 0)
(0.754663 0.570718 0)
(0.781361 0.578259 0)
(0.776095 0.618484 0)
(0.761035 0.678533 0)
(0.762026 0.757095 0)
(0.795368 0.857955 0)
(0.885543 0.980526 0)
(1.06392 1.10173 0)
(3 8.79111e-08 0)
(3 5.08375e-07 0)
(2.99999 1.87149e-06 0)
(2.99998 4.96947e-06 0)
(2.99994 1.38306e-05 0)
(2.99986 3.30645e-05 0)
(2.99965 8.70474e-05 0)
(2.99914 0.000204497 0)
(2.9979 0.000530489 0)
(2.99482 0.00125861 0)
(2.98724 0.0032204 0)
(2.968 0.00789362 0)
(2.9174 0.0205045 0)
(2.77678 0.055031 0)
(2.36718 0.157381 0)
(1.41155 0.465021 0)
(0.836918 0.589402 0)
(0.81461 0.614107 0)
(0.832441 0.62033 0)
(0.839071 0.650394 0)
(0.833088 0.704349 0)
(0.845573 0.775507 0)
(0.892562 0.861554 0)
(0.989062 0.956755 0)
(1.15804 1.03437 0)
(3 6.68387e-08 0)
(3 4.49597e-07 0)
(2.99999 1.45731e-06 0)
(2.99998 4.38713e-06 0)
(2.99995 1.08458e-05 0)
(2.99988 2.86307e-05 0)
(2.99971 6.86008e-05 0)
(2.9993 0.00017314 0)
(2.99829 0.000418959 0)
(2.99578 0.00103629 0)
(2.98959 0.00254514 0)
(2.97402 0.00629875 0)
(2.93339 0.0158976 0)
(2.82127 0.0417293 0)
(2.49649 0.11578 0)
(1.62737 0.344299 0)
(0.935222 0.623602 0)
(0.855608 0.65595 0)
(0.872054 0.667816 0)
(0.892007 0.68465 0)
(0.899724 0.727419 0)
(0.920713 0.786968 0)
(0.97325 0.856273 0)
(1.06738 0.927839 0)
(1.21843 0.981143 0)
(3 5.76073e-08 0)
(3 3.89325e-07 0)
(2.99999 1.2667e-06 0)
(2.99998 3.7968e-06 0)
(2.99996 9.4076e-06 0)
(2.99991 2.49666e-05 0)
(2.99977 5.91221e-05 0)
(2.99943 0.000152606 0)
(2.99862 0.000361081 0)
(2.99659 0.000917595 0)
(2.99163 0.00220343 0)
(2.9791 0.00555349 0)
(2.94686 0.0138121 0)
(2.85871 0.0362013 0)
(2.60536 0.0994643 0)
(1.88133 0.29015 0)
(1.08532 0.665431 0)
(0.885933 0.691534 0)
(0.899093 0.704137 0)
(0.930011 0.71242 0)
(0.955419 0.74544 0)
(0.98511 0.794163 0)
(1.03973 0.849202 0)
(1.12848 0.9028 0)
(1.26097 0.940892 0)
(3 5.57208e-08 0)
(3 3.21171e-07 0)
(3 1.18644e-06 0)
(2.99999 3.13102e-06 0)
(2.99997 8.78537e-06 0)
(2.99993 2.08355e-05 0)
(2.99982 5.52816e-05 0)
(2.99955 0.000129326 0)
(2.99892 0.000336533 0)
(2.99732 0.000794074 0)
(2.99346 0.00204099 0)
(2.98369 0.00492022 0)
(2.95892 0.012623 0)
(2.89229 0.0324456 0)
(2.7032 0.089211 0)
(2.14683 0.257916 0)
(1.28068 0.679933 0)
(0.936829 0.723495 0)
(0.933818 0.732436 0)
(0.966324 0.736112 0)
(1.0049 0.757937 0)
(1.04135 0.797343 0)
(1.09573 0.841785 0)
(1.17784 0.882768 0)
(1.29364 0.910618 0)
(3 4.54425e-08 0)
(3 2.69477e-07 0)
(3 9.62024e-07 0)
(2.99999 2.62832e-06 0)
(2.99998 7.13523e-06 0)
(2.99994 1.73105e-05 0)
(2.99986 4.51947e-05 0)
(2.99967 0.000106046 0)
(2.99918 0.000276787 0)
(2.99801 0.000644554 0)
(2.99506 0.00167845 0)
(2.98792 0.00397478 0)
(2.96979 0.0102371 0)
(2.92259 0.0257882 0)
(2.79257 0.0698254 0)
(2.41579 0.198847 0)
(1.55065 0.575889 0)
(1.04765 0.730716 0)
(0.993947 0.755076 0)
(1.01194 0.763943 0)
(1.0535 0.7736 0)
(1.09477 0.801674 0)
(1.14644 0.83631 0)
(1.22047 0.867692 0)
(1.32128 0.888166 0)
(3 3.22769e-08 0)
(3 2.22509e-07 0)
(3 7.19195e-07 0)
(2.99999 2.16222e-06 0)
(2.99998 5.33115e-06 0)
(2.99996 1.41967e-05 0)
(2.9999 3.32604e-05 0)
(2.99975 8.64709e-05 0)
(2.99937 0.000201046 0)
(2.99848 0.000516908 0)
(2.99623 0.00121305 0)
(2.99082 0.00308154 0)
(2.97709 0.00740741 0)
(2.94183 0.0188735 0)
(2.84563 0.0487939 0)
(2.57029 0.134574 0)
(1.82158 0.3999 0)
(1.16809 0.736071 0)
(1.04279 0.775945 0)
(1.0506 0.793224 0)
(1.09184 0.795575 0)
(1.13994 0.810605 0)
(1.19097 0.835022 0)
(1.25795 0.858143 0)
(1.34605 0.872649 0)
(3 2.63058e-08 0)
(3 1.75499e-07 0)
(3 5.84215e-07 0)
(2.99999 1.71162e-06 0)
(2.99999 4.32853e-06 0)
(2.99997 1.13382e-05 0)
(2.99992 2.69853e-05 0)
(2.99981 6.9695e-05 0)
(2.99953 0.000163459 0)
(2.99885 0.000420886 0)
(2.9972 0.00098981 0)
(2.99308 0.00253352 0)
(2.98294 0.00608217 0)
(2.95689 0.0155218 0)
(2.88716 0.0397568 0)
(2.68954 0.108744 0)
(2.11447 0.316467 0)
(1.34971 0.755236 0)
(1.09243 0.807716 0)
(1.08575 0.820374 0)
(1.12143 0.819038 0)
(1.17552 0.821064 0)
(1.22906 0.836135 0)
(1.29103 0.852565 0)
(1.36881 0.862445 0)
(3 2.17304e-08 0)
(3 1.33742e-07 0)
(3 4.67945e-07 0)
(3 1.30601e-06 0)
(2.99999 3.46382e-06 0)
(2.99998 8.63304e-06 0)
(2.99994 2.17434e-05 0)
(2.99986 5.2886e-05 0)
(2.99966 0.000131919 0)
(2.99917 0.000320323 0)
(2.99799 0.000795901 0)
(2.99506 0.00194275 0)
(2.98791 0.00483079 0)
(2.96986 0.0119843 0)
(2.92295 0.0307223 0)
(2.79432 0.0823487 0)
(2.42093 0.235538 0)
(1.62643 0.652142 0)
(1.19737 0.809755 0)
(1.14175 0.834986 0)
(1.15872 0.841336 0)
(1.20914 0.835909 0)
(1.26493 0.840819 0)
(1.32251 0.850492 0)
(1.3912 0.856319 0)
(3 1.64391e-08 0)
(3 1.00252e-07 0)
(3 3.54391e-07 0)
(3 9.74699e-07 0)
(2.99999 2.611e-06 0)
(2.99998 6.41944e-06 0)
(2.99996 1.62334e-05 0)
(2.9999 3.92092e-05 0)
(2.99976 9.72615e-05 0)
(2.9994 0.000235853 0)
(2.99855 0.000578956 0)
(2.99644 0.00141393 0)
(2.9913 0.00345949 0)
(2.97845 0.00853866 0)
(2.94554 0.0213321 0)
(2.85665 0.0555515 0)
(2.60433 0.152473 0)
(1.92501 0.44932 0)
(1.32825 0.79713 0)
(1.19504 0.845478 0)
(1.19562 0.864106 0)
(1.2371 0.858807 0)
(1.29463 0.851609 0)
(1.35099 0.85277 0)
(1.41315 0.854311 0)
(3 1.25226e-08 0)
(3 7.48753e-08 0)
(3 2.69282e-07 0)
(3 7.27315e-07 0)
(3 1.98343e-06 0)
(2.99999 4.80141e-06 0)
(2.99997 1.23259e-05 0)
(2.99993 2.9448e-05 0)
(2.99983 7.38913e-05 0)
(2.99957 0.00017792 0)
(2.99898 0.000440371 0)
(2.99746 0.00107277 0)
(2.99384 0.00263438 0)
(2.98474 0.00650794 0)
(2.96188 0.0161462 0)
(2.9011 0.0415756 0)
(2.73159 0.111867 0)
(2.2385 0.32517 0)
(1.53046 0.772003 0)
(1.26106 0.863263 0)
(1.23698 0.882475 0)
(1.26102 0.881476 0)
(1.31532 0.867896 0)
(1.37458 0.860545 0)
(1.43385 0.857102 0)
(3 9.24895e-09 0)
(3 5.56238e-08 0)
(3 1.96899e-07 0)
(3 5.41145e-07 0)
(3 1.45257e-06 0)
(2.99999 3.54677e-06 0)
(2.99998 9.09628e-06 0)
(2.99995 2.15403e-05 0)
(2.99988 5.49033e-05 0)
(2.99971 0.000129282 0)
(2.9993 0.000328523 0)
(2.99827 0.000776076 0)
(2.99583 0.00196397 0)
(2.98971 0.00471301 0)
(2.97469 0.0118651 0)
(2.9358 0.0297678 0)
(2.83107 0.0790267 0)
(2.52954 0.223089 0)
(1.82825 0.620864 0)
(1.37947 0.854235 0)
(1.29434 0.887397 0)
(1.29725 0.898219 0)
(1.33904 0.886512 0)
(1.39662 0.871446 0)
(1.45369 0.863103 0)
(3 6.38605e-09 0)
(3 4.07822e-08 0)
(3 1.37552e-07 0)
(3 3.9626e-07 0)
(3 1.01737e-06 0)
(2.99999 2.57926e-06 0)
(2.99999 6.37448e-06 0)
(2.99997 1.55363e-05 0)
(2.99992 3.8527e-05 0)
(2.9998 9.21201e-05 0)
(2.99951 0.000230839 0)
(2.99883 0.000546227 0)
(2.99712 0.00137679 0)
(2.99299 0.00327091 0)
(2.98272 0.00823151 0)
(2.95674 0.0201362 0)
(2.88772 0.0522517 0)
(2.69473 0.140893 0)
(2.15223 0.411799 0)
(1.54278 0.833274 0)
(1.35101 0.90016 0)
(1.33441 0.913487 0)
(1.35954 0.905984 0)
(1.41359 0.885883 0)
(1.47174 0.871395 0)
(3 4.42461e-09 0)
(3 2.86225e-08 0)
(3 9.68023e-08 0)
(3 2.78001e-07 0)
(3 7.14178e-07 0)
(3 1.82291e-06 0)
(2.99999 4.43027e-06 0)
(2.99998 1.10687e-05 0)
(2.99995 2.65715e-05 0)
(2.99987 6.60015e-05 0)
(2.99968 0.000158415 0)
(2.99923 0.000392708 0)
(2.9981 0.00094504 0)
(2.99542 0.00233991 0)
(2.98872 0.00568509 0)
(2.97229 0.0141545 0)
(2.92966 0.0356966 0)
(2.81506 0.0946965 0)
(2.48324 0.27052 0)
(1.81651 0.697515 0)
(1.45198 0.882246 0)
(1.38728 0.912894 0)
(1.39137 0.919825 0)
(1.43303 0.903603 0)
(1.48923 0.881298 0)
(3 3.08998e-09 0)
(3 1.93573e-08 0)
(3 6.73512e-08 0)
(3 1.87673e-07 0)
(3 4.94489e-07 0)
(3 1.23311e-06 0)
(2.99999 3.04478e-06 0)
(2.99999 7.50615e-06 0)
(2.99996 1.80623e-05 0)
(2.99991 4.48009e-05 0)
(2.99979 0.000106575 0)
(2.99948 0.000265816 0)
(2.99875 0.000629141 0)
(2.99694 0.00157447 0)
(2.99256 0.00374506 0)
(2.98168 0.00937623 0)
(2.95421 0.0229527 0)
(2.88152 0.0594326 0)
(2.67748 0.161159 0)
(2.13034 0.461041 0)
(1.59359 0.84774 0)
(1.44161 0.914812 0)
(1.42639 0.929795 0)
(1.45009 0.922011 0)
(1.50132 0.896994 0)
(3 2.05885e-09 0)
(3 1.35159e-08 0)
(3 4.50716e-08 0)
(3 1.31028e-07 0)
(3 3.31937e-07 0)
(3 8.54425e-07 0)
(3 2.05811e-06 0)
(2.99999 5.15011e-06 0)
(2.99998 1.2298e-05 0)
(2.99994 3.05078e-05 0)
(2.99986 7.30419e-05 0)
(2.99966 0.000179747 0)
(2.99919 0.00043377 0)
(2.99802 0.0010602 0)
(2.99522 0.0025819 0)
(2.98825 0.00631572 0)
(2.97112 0.0155741 0)
(2.92675 0.0393829 0)
(2.807 0.104079 0)
(2.46195 0.296966 0)
(1.84299 0.727846 0)
(1.5286 0.898684 0)
(1.47219 0.929651 0)
(1.47624 0.936095 0)
(1.51535 0.918109 0)
(3 1.40629e-09 0)
(3 9.02667e-09 0)
(3 3.04754e-08 0)
(3 8.74765e-08 0)
(3 2.24209e-07 0)
(3 5.68409e-07 0)
(3 1.38954e-06 0)
(2.99999 3.4124e-06 0)
(2.99998 8.30026e-06 0)
(2.99996 2.01273e-05 0)
(2.99991 4.91733e-05 0)
(2.99978 0.00011827 0)
(2.99948 0.000290733 0)
(2.99873 0.00069576 0)
(2.99694 0.00171817 0)
(2.99249 0.00413091 0)
(2.98171 0.0102142 0)
(2.95425 0.0252508 0)
(2.88217 0.0650682 0)
(2.67982 0.177455 0)
(2.15472 0.498602 0)
(1.66739 0.862337 0)
(1.52666 0.930907 0)
(1.50924 0.945828 0)
(1.52854 0.93805 0)
(3 9.45095e-10 0)
(3 5.94261e-09 0)
(3 2.02983e-08 0)
(3 5.75668e-08 0)
(3 1.48757e-07 0)
(3 3.73476e-07 0)
(3 9.22422e-07 0)
(3 2.23496e-06 0)
(2.99999 5.52011e-06 0)
(2.99998 1.31275e-05 0)
(2.99994 3.26748e-05 0)
(2.99986 7.70354e-05 0)
(2.99967 0.000192601 0)
(2.9992 0.000453025 0)
(2.99809 0.00113299 0)
(2.99533 0.00268178 0)
(2.98869 0.00668981 0)
(2.97212 0.0161806 0)
(2.92976 0.0411709 0)
(2.81621 0.107861 0)
(2.49026 0.307558 0)
(1.91411 0.730397 0)
(1.61356 0.908825 0)
(1.5541 0.942549 0)
(1.55343 0.949532 0)
(3 6.00202e-10 0)
(3 3.86727e-09 0)
(3 1.30597e-08 0)
(3 3.74394e-08 0)
(3 9.57497e-08 0)
(3 2.4349e-07 0)
(3 5.89606e-07 0)
(3 1.46113e-06 0)
(2.99999 3.50357e-06 0)
(2.99999 8.60634e-06 0)
(2.99996 2.06335e-05 0)
(2.99992 5.04387e-05 0)
(2.99979 0.000121491 0)
(2.99951 0.000295103 0)
(2.9988 0.000715077 0)
(2.99712 0.00173168 0)
(2.99295 0.00422482 0)
(2.98287 0.0102973 0)
(2.95734 0.025504 0)
(2.89084 0.0652333 0)
(2.70519 0.176921 0)
(2.22471 0.490293 0)
(1.75585 0.864788 0)
(1.60833 0.940186 0)
(1.58586 0.955906 0)
(3 3.91688e-10 0)
(3 2.43251e-09 0)
(3 8.45602e-09 0)
(3 2.35576e-08 0)
(3 6.18473e-08 0)
(3 1.53554e-07 0)
(3 3.79124e-07 0)
(3 9.22401e-07 0)
(3 2.23672e-06 0)
(2.99999 5.44983e-06 0)
(2.99998 1.30785e-05 0)
(2.99995 3.20069e-05 0)
(2.99988 7.64396e-05 0)
(2.9997 0.000187779 0)
(2.99928 0.0004471 0)
(2.99825 0.00110071 0)
(2.99583 0.00263105 0)
(2.98981 0.006482 0)
(2.97522 0.0157504 0)
(2.93804 0.0396327 0)
(2.83977 0.103475 0)
(2.56039 0.291839 0)
(2.01604 0.701416 0)
(1.70266 0.903928 0)
(1.63385 0.946289 0)
(3 2.38571e-10 0)
(3 1.55875e-09 0)
(3 5.20362e-09 0)
(3 1.50524e-08 0)
(3 3.81591e-08 0)
(3 9.72706e-08 0)
(3 2.34355e-07 0)
(3 5.79957e-07 0)
(3 1.38332e-06 0)
(2.99999 3.38987e-06 0)
(2.99999 8.10411e-06 0)
(2.99997 1.96989e-05 0)
(2.99992 4.73435e-05 0)
(2.99982 0.000114147 0)
(2.99956 0.000276685 0)
(2.99894 0.000661292 0)
(2.99743 0.00161394 0)
(2.99378 0.00385862 0)
(2.98486 0.0094537 0)
(2.96265 0.0230519 0)
(2.9051 0.0583891 0)
(2.74725 0.155584 0)
(2.32649 0.429121 0)
(1.85607 0.82646 0)
(1.68903 0.930013 0)
(3 1.50882e-10 0)
(3 9.51327e-10 0)
(3 3.28368e-09 0)
(3 9.18943e-09 0)
(3 2.39576e-08 0)
(3 5.97973e-08 0)
(3 1.45941e-07 0)
(3 3.59086e-07 0)
(3 8.55403e-07 0)
(3 2.11108e-06 0)
(2.99999 4.9786e-06 0)
(2.99998 1.23323e-05 0)
(2.99996 2.89901e-05 0)
(2.99989 7.17075e-05 0)
(2.99974 0.000169346 0)
(2.99937 0.000416534 0)
(2.99849 0.000991118 0)
(2.99634 0.00242489 0)
(2.99119 0.0058414 0)
(2.97847 0.0143275 0)
(2.94664 0.035518 0)
(2.8631 0.091932 0)
(2.62683 0.254256 0)
(2.12603 0.640512 0)
(1.79235 0.890123 0)
(3 9.35555e-11 0)
(3 5.86383e-10 0)
(3 2.00607e-09 0)
(3 5.66211e-09 0)
(3 1.46259e-08 0)
(3 3.65124e-08 0)
(3 8.97854e-08 0)
(3 2.16481e-07 0)
(3 5.30595e-07 0)
(3 1.25698e-06 0)
(3 3.09969e-06 0)
(2.99999 7.28203e-06 0)
(2.99997 1.80213e-05 0)
(2.99993 4.22084e-05 0)
(2.99984 0.000104358 0)
(2.99962 0.000245317 0)
(2.9991 0.00060307 0)
(2.99782 0.00142775 0)
(2.99477 0.00349684 0)
(2.9873 0.00837327 0)
(2.96893 0.0206217 0)
(2.92182 0.0514699 0)
(2.79496 0.135592 0)
(2.44797 0.376547 0)
(1.97961 0.777252 0)
(3 5.62006e-11 0)
(3 3.5843e-10 0)
(3 1.21446e-09 0)
(3 3.45766e-09 0)
(3 8.87374e-09 0)
(3 2.22906e-08 0)
(3 5.44175e-08 0)
(3 1.3223e-07 0)
(3 3.20433e-07 0)
(3 7.69126e-07 0)
(3 1.86999e-06 0)
(2.99999 4.45614e-06 0)
(2.99998 1.08631e-05 0)
(2.99996 2.58496e-05 0)
(2.99991 6.29698e-05 0)
(2.99978 0.00015009 0)
(2.99947 0.000364709 0)
(2.99875 0.000873195 0)
(2.99697 0.00211771 0)
(2.99272 0.00510842 0)
(2.98229 0.0124522 0)
(2.95638 0.0306796 0)
(2.88921 0.0783037 0)
(2.70187 0.212831 0)
(2.26458 0.554683 0)
(3 3.4099e-11 0)
(3 2.11482e-10 0)
(3 7.35738e-10 0)
(3 2.04151e-09 0)
(3 5.35181e-09 0)
(3 1.32138e-08 0)
(3 3.25421e-08 0)
(3 7.86464e-08 0)
(3 1.89937e-07 0)
(3 4.59776e-07 0)
(3 1.09729e-06 0)
(3 2.67007e-06 0)
(2.99999 6.33247e-06 0)
(2.99998 1.54693e-05 0)
(2.99995 3.65535e-05 0)
(2.99988 8.93711e-05 0)
(2.9997 0.000211424 0)
(2.99929 0.000516108 0)
(2.9983 0.00122377 0)
(2.9959 0.00298846 0)
(2.99018 0.00714236 0)
(2.97613 0.0175434 0)
(2.94106 0.0433139 0)
(2.84884 0.112831 0)
(2.59309 0.311903 0)
(3 1.97764e-11 0)
(3 1.26976e-10 0)
(3 4.28033e-10 0)
(3 1.22361e-09 0)
(3 3.1182e-09 0)
(3 7.85817e-09 0)
(3 1.90281e-08 0)
(3 4.63503e-08 0)
(3 1.1139e-07 0)
(3 2.67671e-07 0)
(3 6.46243e-07 0)
(3 1.53728e-06 0)
(2.99999 3.73129e-06 0)
(2.99999 8.82442e-06 0)
(2.99997 2.14927e-05 0)
(2.99993 5.06508e-05 0)
(2.99983 0.000123379 0)
(2.99959 0.000291059 0)
(2.99903 0.000707447 0)
(2.99764 0.0016728 0)
(2.9944 0.00406601 0)
(2.98636 0.0096973 0)
(2.96684 0.023774 0)
(2.9168 0.0590533 0)
(2.7816 0.156143 0)
(3 1.14379e-11 0)
(3 7.45087e-11 0)
(3 2.49189e-10 0)
(3 7.17305e-10 0)
(3 1.81288e-09 0)
(3 4.61259e-09 0)
(3 1.101e-08 0)
(3 2.72713e-08 0)
(3 6.42505e-08 0)
(3 1.57629e-07 0)
(3 3.71733e-07 0)
(3 9.04828e-07 0)
(3 2.14751e-06 0)
(2.99999 5.17874e-06 0)
(2.99998 1.24046e-05 0)
(2.99996 2.96374e-05 0)
(2.9999 7.15673e-05 0)
(2.99977 0.000169639 0)
(2.99945 0.00041316 0)
(2.9987 0.000973541 0)
(2.99686 0.00238405 0)
(2.99252 0.00564465 0)
(2.98183 0.0138798 0)
(2.9555 0.0337809 0)
(2.88757 0.086344 0)
(3 6.81959e-12 0)
(3 4.22385e-11 0)
(3 1.45701e-10 0)
(3 4.06418e-10 0)
(3 1.05816e-09 0)
(3 2.60283e-09 0)
(3 6.43793e-09 0)
(3 1.53026e-08 0)
(3 3.75501e-08 0)
(3 8.81961e-08 0)
(3 2.16296e-07 0)
(3 5.06568e-07 0)
(3 1.23906e-06 0)
(3 2.909e-06 0)
(2.99999 7.08019e-06 0)
(2.99998 1.67235e-05 0)
(2.99995 4.03587e-05 0)
(2.99987 9.61342e-05 0)
(2.9997 0.000229988 0)
(2.99929 0.000552957 0)
(2.99829 0.0013118 0)
(2.99593 0.00318414 0)
(2.9902 0.0075676 0)
(2.97643 0.0185188 0)
(2.94194 0.0455214 0)
(3 3.83617e-12 0)
(3 2.39366e-11 0)
(3 8.30347e-11 0)
(3 2.30095e-10 0)
(3 6.0156e-10 0)
(3 1.47712e-09 0)
(3 3.62988e-09 0)
(3 8.71016e-09 0)
(3 2.09713e-08 0)
(3 5.03361e-08 0)
(3 1.19832e-07 0)
(3 2.88786e-07 0)
(3 6.82801e-07 0)
(3 1.65363e-06 0)
(2.99999 3.88737e-06 0)
(2.99999 9.438e-06 0)
(2.99997 2.21551e-05 0)
(2.99993 5.3719e-05 0)
(2.99983 0.000126337 0)
(2.9996 0.000304913 0)
(2.99905 0.00072082 0)
(2.99773 0.00173179 0)
(2.99458 0.0041221 0)
(2.98694 0.00991075 0)
(2.96834 0.0239801 0)
(3 2.16822e-12 0)
(3 1.34222e-11 0)
(3 4.65363e-11 0)
(3 1.28918e-10 0)
(3 3.36813e-10 0)
(3 8.27844e-10 0)
(3 2.02853e-09 0)
(3 4.86895e-09 0)
(3 1.16929e-08 0)
(3 2.80625e-08 0)
(3 6.66235e-08 0)
(3 1.60536e-07 0)
(3 3.78989e-07 0)
(3 9.16248e-07 0)
(3 2.15596e-06 0)
(2.99999 5.21167e-06 0)
(2.99998 1.22909e-05 0)
(2.99996 2.96162e-05 0)
(2.99991 7.00432e-05 0)
(2.99978 0.000168188 0)
(2.99947 0.000399595 0)
(2.99876 0.000956345 0)
(2.99702 0.00228336 0)
(2.99293 0.00547042 0)
(2.98288 0.0131842 0)
(3 1.18378e-12 0)
(3 7.28064e-12 0)
(3 2.52646e-11 0)
(3 6.98846e-11 0)
(3 1.82566e-10 0)
(3 4.45471e-10 0)
(3 1.10114e-09 0)
(3 2.59725e-09 0)
(3 6.35099e-09 0)
(3 1.48137e-08 0)
(3 3.61263e-08 0)
(3 8.41984e-08 0)
(3 2.04297e-07 0)
(3 4.78267e-07 0)
(3 1.15139e-06 0)
(3 2.71566e-06 0)
(2.99999 6.47764e-06 0)
(2.99998 1.54225e-05 0)
(2.99995 3.6359e-05 0)
(2.99988 8.74853e-05 0)
(2.99971 0.000204375 0)
(2.9993 0.000495231 0)
(2.99834 0.00115095 0)
(2.99601 0.00280408 0)
(2.99054 0.00655512 0)
(3 5.90007e-13 0)
(3 3.86297e-12 0)
(3 1.30587e-11 0)
(3 3.67497e-11 0)
(3 9.41335e-11 0)
(3 2.33626e-10 0)
(3 5.58953e-10 0)
(3 1.36107e-09 0)
(3 3.16917e-09 0)
(3 7.72403e-09 0)
(3 1.77696e-08 0)
(3 4.33511e-08 0)
(3 9.9317e-08 0)
(3 2.41535e-07 0)
(3 5.54431e-07 0)
(3 1.33823e-06 0)
(2.99999 3.0889e-06 0)
(2.99999 7.37042e-06 0)
(2.99997 1.71596e-05 0)
(2.99992 4.0359e-05 0)
(2.99981 9.49511e-05 0)
(2.99955 0.000219478 0)
(2.99894 0.000523103 0)
(2.99743 0.00118891 0)
(2.99388 0.00285829 0)
(3 3.17947e-13 0)
(3 1.91672e-12 0)
(3 6.4824e-12 0)
(3 1.80976e-11 0)
(3 4.62053e-11 0)
(3 1.13976e-10 0)
(3 2.72217e-10 0)
(3 6.53684e-10 0)
(3 1.52625e-09 0)
(3 3.64423e-09 0)
(3 8.41665e-09 0)
(3 2.00245e-08 0)
(3 4.61482e-08 0)
(3 1.08898e-07 0)
(3 2.51955e-07 0)
(3 5.87016e-07 0)
(3 1.36619e-06 0)
(2.99999 3.13632e-06 0)
(2.99998 7.35555e-06 0)
(2.99994 1.65834e-05 0)
(2.99986 3.91153e-05 0)
(2.99965 8.65099e-05 0)
(2.99915 0.000205283 0)
(2.99795 0.000445025 0)
(2.99497 0.0010516 0)
(3 1.56394e-13 0)
(3 8.86684e-13 0)
(3 3.10485e-12 0)
(3 8.40448e-12 0)
(3 2.16905e-11 0)
(3 5.25123e-11 0)
(3 1.26805e-10 0)
(3 2.95439e-10 0)
(3 7.05501e-10 0)
(3 1.61227e-09 0)
(3 3.8255e-09 0)
(3 8.71016e-09 0)
(3 2.0517e-08 0)
(3 4.66828e-08 0)
(3 1.08487e-07 0)
(3 2.48904e-07 0)
(3 5.68349e-07 0)
(2.99999 1.31047e-06 0)
(2.99998 2.94275e-06 0)
(2.99995 6.83945e-06 0)
(2.99987 1.49797e-05 0)
(2.99969 3.51359e-05 0)
(2.99924 7.53198e-05 0)
(2.99813 0.000177285 0)
(2.9954 0.000372722 0)
(3 6.57424e-14 0)
(3 3.51744e-13 0)
(3 1.41102e-12 0)
(3 3.64007e-12 0)
(3 1.01046e-11 0)
(3 2.27105e-11 0)
(3 5.7456e-11 0)
(3 1.28935e-10 0)
(3 3.03593e-10 0)
(3 7.13212e-10 0)
(3 1.55542e-09 0)
(3 3.90856e-09 0)
(3 7.81981e-09 0)
(3 2.11006e-08 0)
(3 3.91069e-08 0)
(3 1.12072e-07 0)
(3 1.94844e-07 0)
(2.99999 5.81286e-07 0)
(2.99998 9.77937e-07 0)
(2.99995 2.91813e-06 0)
(2.99988 4.94342e-06 0)
(2.9997 1.43008e-05 0)
(2.99927 2.48938e-05 0)
(2.9982 6.7798e-05 0)
(2.99555 0.000127455 0)
(3 2.19053e-14 0)
(3 1.38162e-13 0)
(3 5.71478e-13 0)
(3 1.53579e-12 0)
(3 4.23338e-12 0)
(3 9.47943e-12 0)
(3 2.43965e-11 0)
(3 5.09287e-11 0)
(3 1.32211e-10 0)
(3 2.6382e-10 0)
(3 7.00076e-10 0)
(3 1.34483e-09 0)
(3 3.62743e-09 0)
(3 6.93377e-09 0)
(3 1.81532e-08 0)
(3 3.63991e-08 0)
(3 8.79505e-08 0)
(2.99999 1.94846e-07 0)
(2.99998 4.08895e-07 0)
(2.99995 1.02809e-06 0)
(2.99988 1.87192e-06 0)
(2.99971 5.40275e-06 0)
(2.99928 8.03537e-06 0)
(2.99822 2.80527e-05 0)
(2.9956 3.38328e-05 0)
(3 -1.01598e-14 0)
(3 8.48671e-14 0)
(3 1.50801e-13 0)
(3 7.79825e-13 0)
(3 9.31884e-13 0)
(3 4.74942e-12 0)
(3 5.50656e-12 0)
(3 2.44688e-11 0)
(3 3.29542e-11 0)
(3 1.16329e-10 0)
(3 1.95231e-10 0)
(3 5.15092e-10 0)
(3 1.20266e-09 0)
(3 2.00364e-09 0)
(3 7.48915e-09 0)
(3 6.68136e-09 0)
(3 4.53401e-08 0)
(2.99999 1.4489e-08 0)
(2.99998 2.71836e-07 0)
(2.99995 -3.75604e-08 0)
(2.99988 1.53705e-06 0)
(2.99971 -5.90872e-07 0)
(2.99929 8.15633e-06 0)
(2.99822 -4.12467e-06 0)
(2.99563 3.90365e-05 0)
(3 -3.03697e-15 0)
(3 3.33618e-14 0)
(3 -2.93773e-14 0)
(3 3.92098e-13 0)
(3 -2.98208e-13 0)
(3 2.11379e-12 0)
(3 -1.30143e-12 0)
(3 1.05858e-11 0)
(3 -5.50074e-12 0)
(3 4.6011e-11 0)
(3 -1.08659e-11 0)
(3 1.71443e-10 0)
(3 6.19988e-11 0)
(3 2.74419e-10 0)
(3 1.79926e-09 0)
(3 -2.89643e-09 0)
(3 1.77577e-08 0)
(2.99999 -3.94629e-08 0)
(2.99998 1.48819e-07 0)
(2.99995 -3.45071e-07 0)
(2.99988 1.04866e-06 0)
(2.99971 -2.31436e-06 0)
(2.99928 6.20597e-06 0)
(2.99824 -1.30738e-05 0)
(2.9956 3.13481e-05 0)
(1.27773 1.08147 0)
(1.68901 0.881439 0)
(1.8708 0.617179 0)
(1.89442 0.35562 0)
(1.83901 0.137602 0)
(1.73192 -0.00954311 0)
(1.60568 -0.0469263 0)
(1.50166 -0.00256491 0)
(1.38807 0.0580284 0)
(1.17606 0.109392 0)
(0.771198 0.147639 0)
(0.367905 0.174522 0)
(0.136597 0.159114 0)
(-0.0412208 0.124968 0)
(-0.260707 0.0907073 0)
(-0.41891 0.0455521 0)
(-0.555506 0.0152409 0)
(-0.66292 -0.00351676 0)
(-0.731849 -0.00879595 0)
(-0.773862 -0.00147531 0)
(-0.808844 0.00678117 0)
(-0.845967 0.0123472 0)
(-0.884961 0.0139443 0)
(-0.92256 0.0112268 0)
(-0.95885 0.00686659 0)
(-0.990353 0.00457572 0)
(-1.0109 0.00284421 0)
(-1.02173 0.000895252 0)
(-1.02411 -0.00107143 0)
(-1.01013 -0.00328153 0)
(-0.97254 -0.00739734 0)
(-0.91327 -0.0129164 0)
(-0.83676 -0.0183728 0)
(-0.748399 -0.0235068 0)
(-0.655562 -0.0268479 0)
(-0.56319 -0.0288776 0)
(-0.473839 -0.0306737 0)
(-0.388455 -0.0325462 0)
(-0.304919 -0.0356658 0)
(-0.226561 -0.036463 0)
(-0.151908 -0.0366781 0)
(-0.0810738 -0.0383344 0)
(-0.0110869 -0.0411068 0)
(0.0611541 -0.0354158 0)
(0.120564 -0.0315322 0)
(0.179115 -0.0297827 0)
(0.233957 -0.0283693 0)
(0.285267 -0.0268263 0)
(0.332816 -0.0252173 0)
(0.379039 -0.0242684 0)
(0.426646 -0.024266 0)
(0.473373 -0.0234299 0)
(0.517711 -0.0223343 0)
(0.55996 -0.0212215 0)
(0.600675 -0.0202606 0)
(0.639999 -0.0193543 0)
(0.67809 -0.0185175 0)
(0.714986 -0.0176846 0)
(0.75079 -0.016898 0)
(0.785541 -0.0161103 0)
(0.819331 -0.0153714 0)
(0.85218 -0.0146359 0)
(0.884176 -0.0139466 0)
(0.915337 -0.0132656 0)
(0.945734 -0.0126294 0)
(0.975372 -0.0120077 0)
(1.00431 -0.0114277 0)
(1.03254 -0.0108607 0)
(1.06012 -0.0103249 0)
(1.08705 -0.00979941 0)
(1.11337 -0.00929949 0)
(1.13911 -0.00880761 0)
(1.16428 -0.00833653 0)
(1.18891 -0.00787164 0)
(1.21303 -0.00742378 0)
(1.23665 -0.00698181 0)
(1.25978 -0.00655512 0)
(1.28244 -0.00613582 0)
(1.30464 -0.00573236 0)
(1.32637 -0.00533902 0)
(1.34767 -0.00496332 0)
(1.36851 -0.00460031 0)
(1.38892 -0.00425662 0)
(1.4089 -0.0039279 0)
(1.42846 -0.00361879 0)
(1.4476 -0.00332631 0)
(1.46634 -0.003054 0)
(1.48467 -0.00280049 0)
(1.50259 -0.00256967 0)
(1.5201 -0.00236422 0)
(1.53717 -0.00218627 0)
(1.55378 -0.00203677 0)
(1.56987 -0.00191739 0)
(1.58537 -0.00182853 0)
(1.60014 -0.00176964 0)
(1.61399 -0.00173597 0)
(1.62657 -0.00171432 0)
(1.63742 -0.00169577 0)
(1.64522 -0.00159267 0)
(1.65258 -0.00165283 0)
(1.37159 0.992701 0)
(1.68472 0.71 0)
(1.85758 0.397396 0)
(1.94051 0.131453 0)
(1.98528 -0.058378 0)
(2.00406 -0.156879 0)
(1.99924 -0.165497 0)
(1.96835 -0.114334 0)
(1.8807 -0.0406877 0)
(1.67393 0.0494196 0)
(1.32335 0.156281 0)
(0.971648 0.238769 0)
(0.753156 0.242218 0)
(0.605938 0.228235 0)
(0.461596 0.218764 0)
(0.330508 0.197555 0)
(0.209191 0.169709 0)
(0.0832807 0.138807 0)