/*--------------------------------*- C++ -*----------------------------------*\
  =========                 |
  \\      /  F ield         | OpenFOAM: The Open Source CFD Toolbox
   \\    /   O peration     | Website:  https://openfoam.org
    \\  /    A nd           | Version:  13
     \\/     M anipulation  |
\*---------------------------------------------------------------------------*/
FoamFile
{
    format      ascii;
    class       volScalarField;
    location    "3.2";
    object      T;
}
// * * * * * * * * * * * * * * * * * * * * * * * * * * * * * * * * * * * * * //

dimensions      [0 0 0 1 0 0 0];

internalField   nonuniform List<scalar> 
1000
(
3.68201e-68
5.31259e-68
9.28674e-68
1.73381e-67
3.29675e-67
6.29456e-67
1.20207e-66
2.2936e-66
4.37121e-66
8.32046e-66
1.58178e-65
3.00326e-65
5.69495e-65
1.07854e-64
2.03998e-64
3.85359e-64
7.27027e-64
1.36988e-63
2.57786e-63
4.84487e-63
9.0939e-63
1.70476e-62
3.19168e-62
5.96787e-62
1.11446e-61
2.0785e-61
3.87149e-61
7.20193e-61
1.33802e-60
2.48265e-60
4.60056e-60
8.51423e-60
1.57369e-59
2.90493e-59
5.35537e-59
9.86011e-59
1.81306e-58
3.32952e-58
6.10644e-58
1.11849e-57
2.04603e-57
3.73791e-57
6.81996e-57
1.24271e-56
2.26148e-56
4.11008e-56
7.46006e-56
1.35229e-55
2.44809e-55
4.42609e-55
7.9918e-55
1.44113e-54
2.59532e-54
4.66779e-54
8.38421e-54
1.50399e-53
2.69436e-53
4.82057e-53
8.61329e-53
1.53698e-52
2.73904e-52
4.87477e-52
8.66441e-52
1.53798e-51
2.7264e-51
4.82675e-51
8.53387e-51
1.50683e-50
2.65708e-50
4.67921e-50
8.22932e-50
1.44537e-49
2.53524e-49
4.44101e-49
7.76904e-49
1.3573e-48
2.36813e-48
4.12627e-48
7.1801e-48
1.24774e-47
2.1654e-47
3.75296e-47
6.49573e-47
1.1228e-46
1.93818e-46
3.34121e-46
5.75219e-46
9.88962e-46
1.69802e-45
2.91155e-45
4.98565e-45
8.52579e-45
1.45601e-44
2.48318e-44
4.22929e-44
7.19351e-44
1.22188e-43
2.07267e-43
3.51112e-43
5.93982e-43
1.00349e-42
1.69304e-42
2.85253e-42
4.79962e-42
8.0648e-42
1.35329e-41
2.26777e-41
3.79504e-41
6.34224e-41
1.05847e-40
1.7641e-40
2.93614e-40
4.88019e-40
8.10038e-40
1.3427e-39
2.22261e-39
3.6741e-39
6.06521e-39
9.99875e-39
1.64608e-38
2.70621e-38
4.443e-38
7.28441e-38
1.19266e-37
1.95004e-37
3.18399e-37
5.19162e-37
8.45349e-37
1.37458e-36
2.23207e-36
3.61948e-36
5.86117e-36
9.47814e-36
1.5306e-35
2.46831e-35
3.975e-35
6.39254e-35
1.02662e-34
1.64642e-34
2.63677e-34
4.21697e-34
6.73481e-34
1.0741e-33
1.71066e-33
2.72069e-33
4.32104e-33
6.85318e-33
1.0854e-32
1.71666e-32
2.71127e-32
4.27617e-32
6.73489e-32
1.05925e-31
1.66364e-31
2.60923e-31
4.08655e-31
6.39137e-31
9.98209e-31
1.55683e-30
2.42465e-30
3.77094e-30
5.85651e-30
9.08276e-30
1.40665e-29
2.17542e-29
3.3596e-29
5.18109e-29
7.97889e-29
1.22702e-28
1.88429e-28
2.88955e-28
4.42485e-28
6.76634e-28
1.03322e-27
1.57551e-27
2.39901e-27
3.64777e-27
5.5387e-27
8.39793e-27
1.27151e-26
1.92244e-26
2.90246e-26
4.37587e-26
6.58786e-26
9.9039e-26
1.48679e-25
2.22882e-25
3.33643e-25
4.98734e-25
7.44452e-25
1.10965e-24
1.65163e-24
2.45482e-24
3.64339e-24
5.39972e-24
7.99126e-24
1.18097e-23
1.74276e-23
2.56812e-23
3.77895e-23
5.5527e-23
8.14729e-23
1.19371e-22
1.74647e-22
2.55152e-22
3.7223e-22
5.42251e-22
7.88795e-22
1.14578e-21
1.66194e-21
2.40714e-21
3.48147e-21
5.02802e-21
7.2511e-21
1.0442e-20
1.50154e-20
2.15607e-20
3.09144e-20
4.42619e-20
6.32806e-20
9.03406e-20
1.28785e-19
1.83324e-19
2.60582e-19
3.69862e-19
5.24209e-19
7.41889e-19
1.04844e-18
1.4795e-18
2.08477e-18
2.93338e-18
4.12142e-18
5.78221e-18
8.10044e-18
1.13316e-17
1.58285e-17
2.20779e-17
3.07498e-17
4.27654e-17
5.93895e-17
8.23555e-17
1.14036e-16
1.57673e-16
2.17689e-16
3.00111e-16
4.13136e-16
5.67896e-16
7.79486e-16
1.06835e-15
1.46211e-15
1.99808e-15
2.72653e-15
3.71509e-15
5.05467e-15
6.86718e-15
9.31595e-15
1.26194e-14
1.70692e-14
2.30542e-14
3.10919e-14
4.18705e-14
5.63028e-14
7.55986e-14
1.01358e-13
1.35695e-13
1.81398e-13
2.42136e-13
3.22736e-13
4.29533e-13
5.70829e-13
7.57487e-13
1.0037e-12
1.32799e-12
1.75446e-12
2.31447e-12
3.04873e-12
4.01001e-12
5.26662e-12
6.9068e-12
9.04441e-12
1.18261e-11
1.54406e-11
2.013e-11
2.62048e-11
3.40625e-11
4.4211e-11
5.72983e-11
7.41501e-11
9.58162e-11
1.2363e-10
1.59282e-10
2.04911e-10
2.63223e-10
3.37628e-10
4.32424e-10
5.53017e-10
7.06195e-10
9.00466e-10
1.14648e-09
1.45755e-09
1.85028e-09
2.34535e-09
2.96848e-09
3.75161e-09
4.73432e-09
5.9656e-09
7.50597e-09
9.43011e-09
1.18299e-08
1.48185e-08
1.85347e-08
2.31484e-08
2.88677e-08
3.59469e-08
4.46958e-08
5.54917e-08
6.87934e-08
8.51572e-08
1.05258e-07
1.2991e-07
1.60098e-07
1.9701e-07
2.42073e-07
2.97004e-07
3.6386e-07
4.45107e-07
5.4369e-07
6.63125e-07
8.07601e-07
9.82101e-07
1.19254e-06
1.44593e-06
1.75057e-06
2.11626e-06
2.55457e-06
3.07911e-06
3.70587e-06
4.45363e-06
5.34437e-06
6.40381e-06
7.66196e-06
9.15378e-06
1.092e-05
1.30077e-05
1.54718e-05
1.83756e-05
2.17924e-05
2.58064e-05
3.05148e-05
3.60293e-05
4.24779e-05
5.00073e-05
5.87848e-05
6.90018e-05
8.08758e-05
9.46543e-05
0.000110618
0.000129085
0.000150415
0.000175014
0.000203338
0.000235901
0.00027328
0.000316122
0.000365147
0.000421162
0.000485064
0.000557852
0.000640631
0.000734628
0.000841197
0.000961834
0.00109818
0.00125205
0.00142542
0.00162046
0.00183954
0.00208523
0.00236036
0.00266795
0.00301132
0.00339402
0.0038199
0.00429309
0.00481804
0.00539949
0.00604254
0.00675261
0.00753544
0.00839717
0.00934426
0.0103836
0.0115223
0.012768
0.0141286
0.0156123
0.0172279
0.0189843
0.0208909
0.0229571
0.0251929
0.0276084
0.0302141
0.0330205
0.0360384
0.0392786
0.0427521
0.0464699
0.050443
0.0546823
0.0591986
0.0640024
0.0691041
0.0745138
0.080241
0.086295
0.0926844
0.0994173
0.106501
0.113942
0.121747
0.12992
0.138465
0.147386
0.156684
0.16636
0.176414
0.186844
0.197648
0.20882
0.220357
0.232251
0.244494
0.257076
0.269988
0.283216
0.296747
0.310567
0.324659
0.339007
0.353592
0.368396
0.383397
0.398575
0.413907
0.429372
0.444945
0.460604
0.476323
0.492078
0.507844
0.523597
0.539312
0.554964
0.570529
0.585982
0.601301
0.616463
0.631445
0.646225
0.660783
0.6751
0.689156
0.702933
0.716416
0.729589
0.742436
0.754946
0.767107
0.778907
0.790337
0.80139
0.812057
0.822334
0.832214
0.841695
0.850774
0.859449
0.86772
0.875585
0.883046
0.890105
0.896763
0.903022
0.908887
0.914359
0.919444
0.924143
0.928462
0.932404
0.935973
0.939173
0.942008
0.94448
0.946593
0.948349
0.949752
0.950802
0.951501
0.95185
0.95185
0.951501
0.950802
0.949752
0.948349
0.946593
0.94448
0.942008
0.939173
0.935973
0.932404
0.928462
0.924143
0.919444
0.914359
0.908887
0.903022
0.896763
0.890105
0.883046
0.875585
0.86772
0.859449
0.850774
0.841695
0.832214
0.822334
0.812057
0.80139
0.790337
0.778907
0.767107
0.754946
0.742436
0.729589
0.716416
0.702933
0.689156
0.6751
0.660783
0.646225
0.631445
0.616463
0.601301
0.585982
0.570529
0.554964
0.539312
0.523597
0.507844
0.492078
0.476323
0.460604
0.444945
0.429372
0.413907
0.398575
0.383397
0.368396
0.353592
0.339007
0.324659
0.310567
0.296747
0.283216
0.269988
0.257076
0.244494
0.232251
0.220357
0.20882
0.197648
0.186844
0.176414
0.16636
0.156684
0.147386
0.138465
0.12992
0.121747
0.113942
0.106501
0.0994173
0.0926844
0.086295
0.080241
0.0745138
0.0691041
0.0640024
0.0591986
0.0546823
0.050443
0.0464699
0.0427521
0.0392786
0.0360384
0.0330205
0.0302141
0.0276084
0.0251929
0.0229571
0.0208909
0.0189843
0.0172279
0.0156123
0.0141286
0.012768
0.0115223
0.0103836
0.00934426
0.00839717
0.00753544
0.00675261
0.00604254
0.00539949
0.00481804
0.00429309
0.0038199
0.00339402
0.00301132
0.00266795
0.00236036
0.00208523
0.00183954
0.00162046
0.00142542
0.00125205
0.00109818
0.000961834
0.000841197
0.000734628
0.000640631
0.000557852
0.000485064
0.000421162
0.000365147
0.000316122
0.00027328
0.000235901
0.000203338
0.000175014
0.000150415
0.000129085
0.000110618
9.46543e-05
8.08758e-05
6.90018e-05
5.87848e-05
5.00073e-05
4.24779e-05
3.60293e-05
3.05148e-05
2.58064e-05
2.17924e-05
1.83756e-05
1.54718e-05
1.30077e-05
1.092e-05
9.15378e-06
7.66196e-06
6.40381e-06
5.34437e-06
4.45363e-06
3.70587e-06
3.07911e-06
2.55457e-06
2.11626e-06
1.75057e-06
1.44593e-06
1.19254e-06
9.82101e-07
8.07601e-07
6.63125e-07
5.4369e-07
4.45107e-07
3.6386e-07
2.97004e-07
2.42073e-07
1.9701e-07
1.60098e-07
1.2991e-07
1.05258e-07
8.51572e-08
6.87934e-08
5.54917e-08
4.46958e-08
3.59469e-08
2.88677e-08
2.31484e-08
1.85347e-08
1.48185e-08
1.18299e-08
9.43011e-09
7.50597e-09
5.9656e-09
4.73432e-09
3.75161e-09
2.96848e-09
2.34535e-09
1.85028e-09
1.45755e-09
1.14648e-09
9.00466e-10
7.06195e-10
5.53017e-10
4.32424e-10
3.37628e-10
2.63223e-10
2.04911e-10
1.59282e-10
1.2363e-10
9.58162e-11
7.41501e-11
5.72983e-11
4.4211e-11
3.40625e-11
2.62048e-11
2.013e-11
1.54406e-11
1.18261e-11
9.04441e-12
6.9068e-12
5.26662e-12
4.01001e-12
3.04873e-12
2.31447e-12
1.75446e-12
1.32799e-12
1.0037e-12
7.57487e-13
5.70829e-13
4.29533e-13
3.22736e-13
2.42136e-13
1.81398e-13
1.35695e-13
1.01358e-13
7.55986e-14
5.63028e-14
4.18705e-14
3.10919e-14
2.30542e-14
1.70692e-14
1.26194e-14
9.31595e-15
6.86718e-15
5.05467e-15
3.71509e-15
2.72653e-15
1.99808e-15
1.46211e-15
1.06835e-15
7.79486e-16
5.67896e-16
4.13136e-16
3.00111e-16
2.17689e-16
1.57673e-16
1.14036e-16
8.23555e-17
5.93895e-17
4.27654e-17
3.07498e-17
2.20779e-17
1.58285e-17
1.13316e-17
8.10044e-18
5.78221e-18
4.12142e-18
2.93338e-18
2.08477e-18
1.4795e-18
1.04844e-18
7.41889e-19
5.24209e-19
3.69862e-19
2.60582e-19
1.83324e-19
1.28785e-19
9.03406e-20
6.32806e-20
4.42619e-20
3.09144e-20
2.15607e-20
1.50154e-20
1.0442e-20
7.2511e-21
5.02802e-21
3.48147e-21
2.40714e-21
1.66194e-21
1.14578e-21
7.88795e-22
5.42251e-22
3.7223e-22
2.55152e-22
1.74647e-22
1.19371e-22
8.14729e-23
5.5527e-23
3.77895e-23
2.56812e-23
1.74276e-23
1.18097e-23
7.99126e-24
5.39972e-24
3.64339e-24
2.45482e-24
1.65163e-24
1.10965e-24
7.44452e-25
4.98734e-25
3.33643e-25
2.22882e-25
1.48679e-25
9.9039e-26
6.58786e-26
4.37587e-26
2.90246e-26
1.92244e-26
1.27151e-26
8.39793e-27
5.5387e-27
3.64777e-27
2.39901e-27
1.57551e-27
1.03322e-27
6.76634e-28
4.42485e-28
2.88955e-28
1.88429e-28
1.22702e-28
7.97889e-29
5.18109e-29
3.3596e-29
2.17542e-29
1.40665e-29
9.08276e-30
5.85651e-30
3.77094e-30
2.42465e-30
1.55683e-30
9.98209e-31
6.39137e-31
4.08655e-31
2.60923e-31
1.66364e-31
1.05925e-31
6.73489e-32
4.27617e-32
2.71127e-32
1.71666e-32
1.0854e-32
6.85318e-33
4.32104e-33
2.72069e-33
1.71066e-33
1.0741e-33
6.73481e-34
4.21697e-34
2.63677e-34
1.64642e-34
1.02662e-34
6.39254e-35
3.975e-35
2.46831e-35
1.5306e-35
9.47814e-36
5.86117e-36
3.61948e-36
2.23207e-36
1.37458e-36
8.45349e-37
5.19162e-37
3.18399e-37
1.95004e-37
1.19266e-37
7.28441e-38
4.443e-38
2.70621e-38
1.64608e-38
9.99875e-39
6.06521e-39
3.6741e-39
2.22261e-39
1.3427e-39
8.10038e-40
4.88019e-40
2.93614e-40
1.7641e-40
1.05847e-40
6.34224e-41
3.79504e-41
2.26777e-41
1.35329e-41
8.0648e-42
4.79962e-42
2.85253e-42
1.69304e-42
1.00349e-42
5.93982e-43
3.51112e-43
2.07267e-43
1.22188e-43
7.19351e-44
4.22929e-44
2.48318e-44
1.45601e-44
8.52579e-45
4.98565e-45
2.91155e-45
1.69802e-45
9.88962e-46
5.75219e-46
3.34121e-46
1.93818e-46
1.1228e-46
6.49573e-47
3.75296e-47
2.1654e-47
1.24774e-47
7.1801e-48
4.12627e-48
2.36813e-48
1.3573e-48
7.76904e-49
4.44101e-49
2.53524e-49
1.44537e-49
8.22932e-50
4.67921e-50
2.65708e-50
1.50683e-50
8.53387e-51
4.82675e-51
2.7264e-51
1.53798e-51
8.66441e-52
4.87477e-52
2.73904e-52
1.53698e-52
8.61329e-53
4.82057e-53
2.69436e-53
1.50399e-53
8.38421e-54
4.66779e-54
2.59532e-54
1.44113e-54
7.9918e-55
4.42609e-55
2.44809e-55
1.35229e-55
7.46006e-56
4.11008e-56
2.26148e-56
1.24271e-56
6.81996e-57
3.73791e-57
2.04603e-57
1.11849e-57
6.10644e-58
3.32952e-58
1.81306e-58
9.86011e-59
5.35537e-59
2.90493e-59
1.57369e-59
8.51423e-60
4.60056e-60
2.48265e-60
1.33802e-60
7.20193e-61
3.87149e-61
2.0785e-61
1.11446e-61
5.96787e-62
3.19168e-62
1.70476e-62
9.0939e-63
4.84487e-63
2.57786e-63
1.36988e-63
7.27027e-64
3.85359e-64
2.03998e-64
1.07854e-64
5.69495e-65
3.00326e-65
1.58178e-65
8.32046e-66
4.37121e-66
2.2936e-66
1.20207e-66
6.29456e-67
3.29675e-67
1.73381e-67
9.28674e-68
5.31259e-68
3.68201e-68
)
;

boundaryField
{
    sides
    {
        type            zeroGradient;
    }
    empty
    {
        type            empty;
    }
}


// ************************************************************************* //
