/*--------------------------------*- C++ -*----------------------------------*\
  =========                 |
  \\      /  F ield         | OpenFOAM: The Open Source CFD Toolbox
   \\    /   O peration     | Website:  https://openfoam.org
    \\  /    A nd           | Version:  13
     \\/     M anipulation  |
\*---------------------------------------------------------------------------*/
FoamFile
{
    format      ascii;
    class       volScalarField;
    location    "5";
    object      p;
}
// * * * * * * * * * * * * * * * * * * * * * * * * * * * * * * * * * * * * * //

dimensions      [1 -1 -2 0 0 0 0];

internalField   nonuniform List<scalar> 
5250
(
1.00001
1.00003
1.00008
1.0002
1.00055
1.00128
1.00328
1.00796
1.01972
1.049
1.12228
1.31524
1.85074
3.42393
8.01332
11.6855
11.2844
11.041
11.1246
11.3535
11.5817
11.72
11.8254
11.9079
11.9704
1.00001
1.00003
1.00008
1.00022
1.00051
1.00133
1.00312
1.00796
1.01932
1.04822
1.12035
1.30966
1.83652
3.37858
7.89855
11.6991
11.2841
11.0312
11.1158
11.3456
11.5737
11.7124
11.8193
11.9031
11.9672
1.00001
1.00003
1.00008
1.0002
1.00051
1.00122
1.00316
1.00739
1.01925
1.04566
1.11738
1.29717
1.80555
3.28305
7.64133
11.7263
11.2799
11.0013
11.0844
11.3121
11.5381
11.675
11.7814
11.8648
11.9292
1
1.00003
1.00007
1.0002
1.00046
1.00123
1.0028
1.0075
1.01718
1.04514
1.10846
1.28359
1.7551
3.14253
7.24402
11.7663
11.2745
10.9519
11.0304
11.2516
11.4747
11.6079
11.7114
11.7931
11.8589
1
1.00002
1.00007
1.00017
1.00046
1.00108
1.00276
1.00666
1.01654
1.04101
1.10191
1.26092
1.69542
2.96116
6.72158
11.8035
11.2678
10.8861
10.9567
11.1664
11.3858
11.5135
11.612
11.6908
11.759
1
1.00002
1.00006
1.00017
1.00039
1.00104
1.00244
1.0062
1.01505
1.03739
1.09301
1.23638
1.62708
2.75234
6.09691
11.7892
11.2491
10.8047
10.8631
11.0538
11.2663
11.3849
11.474
11.5461
11.6162
1
1.00002
1.00006
1.00014
1.00039
1.00088
1.00236
1.00533
1.01423
1.03287
1.08547
1.21102
1.56152
2.55286
5.4942
11.6378
11.1762
10.702
10.7473
10.9105
11.1094
11.213
11.2851
11.3416
11.4082
1
1.00002
1.00005
1.00014
1.00032
1.00087
1.00197
1.00526
1.012
1.03172
1.0749
1.19474
1.50372
2.39909
5.04622
11.199
10.9841
10.5864
10.6118
10.732
10.9068
10.9869
11.0292
11.0512
11.0939
1
1.00002
1.00005
1.00012
1.00031
1.00074
1.0019
1.00447
1.01158
1.0273
1.07005
1.1731
1.45567
2.2507
4.60594
10.4963
10.6978
10.512
10.4662
10.527
10.6553
10.6971
10.6877
10.6369
10.5869
1
1.00001
1.00004
1.00011
1.00027
1.0007
1.0016
1.00427
1.00969
1.02584
1.06039
1.15741
1.40152
2.10671
4.16181
9.6188
10.538
10.412
10.2864
10.3078
10.3613
10.3447
10.2554
10.0358
9.69656
1
1.00001
1.00004
1.0001
1.00023
1.00062
1.00141
1.00375
1.00862
1.02247
1.05357
1.13727
1.3506
1.95552
3.71528
8.58185
10.4265
10.3133
10.0994
10.0677
10.0437
9.95052
9.69354
9.09361
7.53853
1
1.00001
1.00003
1.00008
1.00021
1.0005
1.00128
1.00306
1.00764
1.01887
1.04634
1.11652
1.29751
1.80115
3.2556
7.38748
10.3435
10.2156
9.9319
9.82027
9.73177
9.53785
9.12336
8.29362
6.65139
1
1.00001
1.00003
1.00007
1.00017
1.00044
1.00101
1.00268
1.00607
1.01621
1.03748
1.09742
1.24184
1.64722
2.79332
6.08614
10.236
10.1099
9.78997
9.57914
9.42412
9.14714
8.63095
7.77219
6.43449
1
1.00001
1.00002
1.00006
1.00013
1.00036
1.00081
1.00218
1.00491
1.01304
1.03009
1.07792
1.19085
1.50265
2.36335
4.80195
9.92496
9.9092
9.67769
9.35793
9.12948
8.80603
8.27176
7.47587
6.40621
1
1.00001
1.00002
1.00005
1.00011
1.00029
1.00066
1.00177
1.004
1.01064
1.02448
1.0636
1.15456
1.40523
2.09316
4.07623
9.03632
9.63375
9.48023
9.15351
8.86751
8.51993
8.00817
7.29513
6.40349
1
1.00001
1.00001
1.00004
1.00009
1.00024
1.00054
1.00143
1.00324
1.00855
1.01985
1.05104
1.12439
1.32245
1.86193
3.41131
7.56243
9.35668
9.26328
8.99761
8.65009
8.28394
7.80253
7.16614
6.39794
1
1
1.00001
1.00003
1.00008
1.00017
1.00045
1.00105
1.00269
1.00645
1.01595
1.03942
1.09749
1.24816
1.65444
2.80692
6.00468
9.16844
9.12016
8.89321
8.48239
8.09175
7.63546
7.0634
6.38899
1
1
1.00001
1.00002
1.00006
1.00013
1.00034
1.00082
1.00198
1.00496
1.01175
1.02988
1.07163
1.18235
1.46653
2.25381
4.38677
8.75808
8.98206
8.7974
8.38276
7.94415
7.49895
6.97858
6.37904
1
1
1.00001
1.00002
1.00004
1.00011
1.00024
1.00065
1.00146
1.00387
1.00885
1.0229
1.05437
1.13832
1.35031
1.93911
3.5824
7.69898
8.73014
8.6094
8.28456
7.82329
7.38477
6.90624
6.36789
1
1
1.00001
1.00001
1.00003
1.00008
1.00019
1.00047
1.00112
1.00286
1.00665
1.01726
1.04045
1.10377
1.25805
1.68639
2.87124
6.0582
8.45636
8.41382
8.19674
7.74556
7.2958
6.84472
6.35615
1
1
1
1.00001
1.00002
1.00006
1.00014
1.00034
1.00083
1.00198
1.00504
1.01173
1.03011
1.07146
1.18225
1.46344
2.23326
4.26245
8.00328
8.2752
8.11573
7.72632
7.24152
6.79846
6.34725
1
1
1
1.00001
1.00002
1.00004
1.0001
1.00025
1.00059
1.00144
1.0036
1.0085
1.02165
1.05131
1.13021
1.32669
1.86678
3.33116
6.92175
8.05121
7.96031
7.68584
7.21636
6.7702
6.343
1
1
1
1
1.00001
1.00003
1.00007
1.00018
1.00041
1.00107
1.00245
1.00632
1.01482
1.0373
1.09079
1.22974
1.59641
2.59993
5.23718
7.72226
7.7498
7.60178
7.23067
6.77114
6.34544
1
1
1
1
1.00001
1.00002
1.00005
1.00012
1.00028
1.00074
1.00165
1.00439
1.00985
1.02584
1.05996
1.15342
1.38332
2.00325
3.60424
7.02668
7.62004
7.51716
7.22983
6.78533
6.35625
1
1
1
1
1.00001
1.00001
1.00003
1.00008
1.0002
1.00048
1.00118
1.00292
1.00691
1.01746
1.04133
1.10432
1.25845
1.67556
2.78553
5.58686
7.36912
7.35569
7.20627
6.84006
6.38459
1
1
1
1
1
1.00001
1.00002
1.00005
1.00014
1.00031
1.00082
1.00185
1.00478
1.01105
1.0278
1.06681
1.16661
1.42077
2.08657
3.76057
6.8398
7.25158
7.15241
6.88643
6.44188
1
1
1
1
1
1.00001
1.00002
1.00004
1.00009
1.00022
1.00051
1.00131
1.00298
1.00776
1.01766
1.04567
1.10773
1.2766
1.70564
2.85228
5.6337
7.0294
7.01847
6.87618
6.54199
1
1
1
1
1
1
1.00001
1.00002
1.00006
1.00015
1.00033
1.00086
1.00192
1.00505
1.01132
1.02961
1.06839
1.175
1.43563
2.12741
3.84423
6.52863
6.90697
6.82523
6.59451
1
1
1
1
1
1
1.00001
1.00002
1.00004
1.00009
1.00021
1.00055
1.00124
1.00321
1.00739
1.01863
1.04428
1.10994
1.27277
1.69879
2.79722
5.39792
6.67753
6.68888
6.57913
1
1
1
1
1
1
1
1.00001
1.00002
1.00006
1.00014
1.00034
1.00079
1.00202
1.00457
1.01184
1.02696
1.06909
1.16415
1.42019
2.05964
3.63763
6.15667
6.57876
6.52435
1
1
1
1
1
1
1
1.00001
1.00002
1.00003
1.00009
1.0002
1.00052
1.00118
1.00303
1.00699
1.01746
1.04172
1.10256
1.25418
1.64414
2.63927
4.99342
6.33511
6.40688
1
1
1
1
1
1
1
1
1.00001
1.00002
1.00005
1.00013
1.0003
1.00077
1.00171
1.00447
1.00996
1.02579
1.05923
1.1495
1.36522
1.91607
3.21596
5.77197
6.29346
1
1
1
1
1
1
1
1
1.00001
1.00001
1.00003
1.00008
1.00019
1.00044
1.0011
1.00263
1.00628
1.01552
1.03658
1.09102
1.22131
1.56194
2.4159
4.49155
5.99503
1
1
1
1
1
1
1
1
1
1.00001
1.00002
1.00004
1.00012
1.00026
1.00067
1.0015
1.00388
1.00875
1.02227
1.0517
1.12894
1.31471
1.78534
2.91098
5.28668
1
1
1
1
1
1
1
1
1
1
1.00001
1.00003
1.00007
1.00016
1.00039
1.00091
1.00229
1.00519
1.01333
1.03025
1.07722
1.18231
1.4634
2.14751
3.8014
1
1
1
1
1
1
1
1
1
1
1.00001
1.00002
1.00004
1.00009
1.00023
1.00053
1.00131
1.00311
1.00744
1.01816
1.04305
1.10567
1.25768
1.64085
2.56706
1
1
1
1
1
1
1
1
1
1
1
1.00001
1.00002
1.00006
1.00013
1.00032
1.00073
1.00178
1.00426
1.01002
1.02466
1.05779
1.14235
1.3448
1.84324
1
1
1
1
1
1
1
1
1
1
1
1.00001
1.00001
1.00003
1.00007
1.00018
1.00041
1.00105
1.00233
1.00604
1.01345
1.03447
1.07928
1.19886
1.48408
1
1
1
1
1
1
1
1
1
1
1
1
1.00001
1.00002
1.00004
1.0001
1.00025
1.00055
1.00141
1.00314
1.00799
1.01821
1.04522
1.10677
1.26306
1
1
1
1
1
1
1
1
1
1
1
1
1
1.00001
1.00002
1.00006
1.00013
1.00032
1.00075
1.00177
1.00435
1.00991
1.02488
1.0569
1.14162
1
1
1
1
1
1
1
1
1
1
1
1
1
1.00001
1.00001
1.00003
1.00007
1.00018
1.00041
1.00102
1.00231
1.00587
1.01308
1.03348
1.07603
1
1
1
1
1
1
1
1
1
1
1
1
1
1
1.00001
1.00002
1.00004
1.0001
1.00024
1.00054
1.00138
1.00307
1.00779
1.01761
1.04385
1
1
1
1
1
1
1
1
1
1
1
1
1
1
1
1.00001
1.00002
1.00006
1.00013
1.00033
1.00078
1.00184
1.00449
1.01028
1.02566
1
1
1
1
1
1
1
1
1
1
1
1
1
1
1
1.00001
1.00002
1.00004
1.00009
1.00023
1.00051
1.00133
1.00296
1.00767
1.01728
1
1
1
1
1
1
1
1
1
1
1
1
1
1
1
1
1.00001
1.00003
1.00008
1.00017
1.00044
1.00105
1.00254
1.00633
1.01496
1
1
1
1
1
1
1
1
1
1
1
1
1
1
1
1
1.00001
1.00003
1.00007
1.00016
1.00041
1.00094
1.00244
1.00575
1.01444
1
1
1
1
1
1
1
1
1
1
1
1
1
1
1
1
1.00001
1.00003
1.00007
1.00015
1.0004
1.0009
1.00241
1.00545
1.01458
1
1
1
1
1
1
1
1
1
1
1
1
1
1
1
1
1.00001
1.00002
1.00006
1.00015
1.00038
1.00093
1.00228
1.00571
1.01376
1
1
1
1
1
1
1
1
1
1
1
1
1
1
1
1
1.00001
1.00002
1.00006
1.00015
1.00038
1.00093
1.00224
1.00572
1.01358
1
1
1
1
1
1
1
1
1
1
1
1
1
1
1
1
1.00001
1.00003
1.00006
1.00016
1.00036
1.00096
1.00219
1.0058
1.01348
3.04805
1.58042
1.20595
1.2968
1.66106
2.51408
3.00827
3.07489
3.12892
3.13907
3.13914
3.12765
3.11564
3.1069
3.09586
3.07637
3.04739
3.01269
2.97627
2.93917
2.90206
2.86301
2.81864
2.78563
2.77108
2.76698
2.76937
2.79877
2.8616
2.95987
3.08502
3.22607
3.37371
3.52077
3.65928
3.78517
3.89747
3.99697
4.08627
4.16362
4.22881
4.28344
4.32926
4.36935
4.39926
4.41942
4.43183
4.43778
4.43741
4.43361
4.42346
4.40621
4.38492
4.3609
4.33326
4.303
4.26968
4.23436
4.19662
4.15744
4.11645
4.07444
4.03111
3.98715
3.94229
3.8971
3.85138
3.80562
3.75968
3.71397
3.66843
3.62343
3.57899
3.53546
3.49294
3.45175
3.41213
3.37441
3.3389
3.30597
3.276
3.24941
3.22666
3.20824
3.19471
3.18742
3.18807
3.19003
3.19424
3.2028
3.2188
3.23907
3.2615
3.28422
3.3058
3.32443
3.33889
3.34881
3.35462
3.36246
3.7542
2.40323
1.86384
1.8683
1.98227
2.33871
2.96465
3.12143
3.1405
3.14091
3.13747
3.12988
3.12741
3.12206
3.10796
3.08483
3.05045
3.00984
2.97133
2.93331
2.89562
2.85844
2.82083
2.78597
2.76867
2.76312
2.76388
2.78941
2.84945
2.94658
3.07176
3.21268
3.35939
3.50611
3.64465
3.77007
3.88215
3.98048
4.07276
4.15145
4.21691
4.27258
4.31939
4.35947
4.38953
4.41054
4.42346
4.42981
4.42966
4.42686
4.4182
4.40049
4.37879
4.35493
4.3279
4.29801
4.26511
4.22998
4.19258
4.15356
4.11284
4.07096
4.02787
3.98401
3.93935
3.89427
3.84875
3.8031
3.75735
3.71177
3.66643
3.62158
3.57735
3.53399
3.4917
3.45073
3.41137
3.37393
3.33873
3.30614
3.27655
3.25037
3.22805
3.21004
3.19684
3.18965
3.19029
3.19237
3.19665
3.20489
3.21993
3.23881
3.2597
3.2809
3.30108
3.31856
3.33219
3.34146
3.34714
3.35619
4.58503
3.31359
2.55084
2.12989
2.10809
2.23182
2.60331
3.04247
3.13768
3.14691
3.14443
3.13833
3.1319
3.11998
3.10256
3.078
3.04597
3.00971
2.97433
2.93496
2.89508
2.85576
2.81746
2.78288
2.76033
2.75142
2.7529
2.77615
2.83125
2.92424
3.04759
3.18814
3.33299
3.4824
3.62388
3.75125
3.86533
3.96646
4.05815
4.13699
4.20342
4.25982
4.30709
4.34651
4.37687
4.39859
4.41216
4.41891
4.41889
4.41684
4.40977
4.39399
4.37097
4.34661
4.32002
4.29068
4.25833
4.22357
4.18655
4.1478
4.10739
4.06574
4.02293
3.97927
3.93487
3.89
3.84473
3.79932
3.75386
3.70855
3.66354
3.61902
3.57517
3.53221
3.49037
3.4499
3.41113
3.37434
3.33988
3.30811
3.27943
3.25423
3.23292
3.21588
3.20352
3.19673
3.19732
3.19935
3.20344
3.211
3.22413
3.24011
3.25759
3.27521
3.29192
3.30639
3.31776
3.32553
3.33068
3.34068
5.03812
3.88281
3.04982
2.50877
2.27522
2.30518
2.45907
2.82122
3.10137
3.16868
3.1679
3.1613
3.14674
3.12741
3.10546
3.07851
3.04596
3.00859
2.9696
2.9296
2.88939
2.84929
2.8119
2.7814
2.76095
2.74791
2.74783
2.76585
2.81366
2.90682
3.02952
3.16552
3.3112
3.45858
3.59851
3.72564
3.83962
3.94151
4.03263
4.11234
4.18023
4.23784
4.28594
4.32567
4.35662
4.37921
4.39366
4.40108
4.40154
4.40006
4.39462
4.3817
4.35845
4.33349
4.30705
4.27832
4.24676
4.21267
4.17627
4.13802
4.09813
4.05691
4.01455
3.9713
3.92733
3.88285
3.83803
3.79305
3.74807
3.70326
3.6588
3.61487
3.57168
3.52943
3.48838
3.44884
3.41109
3.37545
3.34229
3.31197
3.28488
3.26137
3.24177
3.22636
3.21542
3.20934
3.20985
3.21158
3.21502
3.22137
3.23138
3.24284
3.25507
3.26703
3.27801
3.28728
3.29466
3.29981
3.30414
3.31325
5.31153
4.2946
3.4795
2.89829
2.52225
2.42772
2.47433
2.62841
2.9597
3.14671
3.18699
3.18365
3.17139
3.14567
3.11562
3.08417
3.05029
3.0122
2.97208
2.93163
2.89121
2.85185
2.81678
2.78834
2.76849
2.75876
2.76157
2.78079
2.83098
2.91739
3.02743
3.1544
3.2873
3.42736
3.56368
3.69014
3.8046
3.90761
3.99952
4.08051
4.15014
4.20933
4.2587
4.29925
4.33105
4.35459
4.37007
4.37838
4.37957
4.37847
4.3743
4.36401
4.34304
4.31766
4.29094
4.26257
4.23179
4.19855
4.16297
4.12544
4.08621
4.04561
4.00385
3.96117
3.91778
3.87388
3.82967
3.78532
3.74101
3.69693
3.65325
3.61018
3.56793
3.52675
3.48688
3.44873
3.41252
3.37863
3.34741
3.31924
3.29445
3.27334
3.25613
3.24291
3.23377
3.22845
3.22877
3.22979
3.23184
3.2359
3.24135
3.24704
3.25256
3.25705
3.26042
3.26276
3.26448
3.26574
3.26835
3.27452
5.49541
4.60916
3.84998
3.25302
2.82471
2.56481
2.54549
2.59682
2.74223
3.03946
3.16895
3.1912
3.18651
3.1708
3.13773
3.09869
3.06134
3.02192
2.98051
2.93993
2.90001
2.86325
2.8331
2.81076
2.79842
2.79952
2.80947
2.83987
2.9011
2.97311
3.059
3.15985
3.27166
3.3886
3.51448
3.63921
3.75582
3.86182
3.95608
4.03894
4.11043
4.17144
4.22248
4.26449
4.29767
4.32258
4.33944
4.349
4.35131
4.35052
4.34736
4.33935
4.32241
4.29758
4.27075
4.24259
4.21251
4.18021
4.14565
4.10906
4.07074
4.03096
3.99001
3.94811
3.90551
3.86241
3.81902
3.77553
3.73214
3.68904
3.64644
3.60456
3.56363
3.52392
3.48582
3.44954
3.41547
3.38399
3.35545
3.33017
3.30843
3.29039
3.2761
3.26542
3.25818
3.25374
3.25272
3.25282
3.25305
3.25295
3.25259
3.25166
3.24956
3.24539
3.24021
3.23476
3.22981
3.22597
3.22597
3.22761
5.62289
4.85037
4.15192
3.5692
3.11258
2.78774
2.62191
2.62905
2.68362
2.82459
3.08405
3.17737
3.18836
3.18257
3.16431
3.12593
3.08142
3.03835
2.99629
2.95616
2.91791
2.88588
2.86374
2.85286
2.85438
2.86516
2.89691
2.9632
3.02938
3.08185
3.13452
3.19564
3.26761
3.34655
3.44417
3.56035
3.68181
3.79659
3.89863
3.98682
4.06173
4.12508
4.17803
4.22178
4.25669
4.28337
4.30203
4.31333
4.31735
4.31686
4.31465
4.30877
4.29596
4.2733
4.24713
4.21926
4.18975
4.15834
4.12488
4.08944
4.05224
4.01353
3.97361
3.93273
3.89114
3.84907
3.80673
3.76436
3.72217
3.68036
3.63918
3.59887
3.55969
3.52198
3.48613
3.45241
3.42121
3.39289
3.36779
3.34613
3.32805
3.31353
3.30239
3.29423
3.28857
3.28464
3.28195
3.27957
3.27639
3.27141
3.26449
3.25579
3.24463
3.23205
3.21878
3.20565
3.19365
3.18393
3.17833
3.17936
5.71337
5.03408
4.39713
3.84006
3.37818
3.02193
2.77447
2.68055
2.69527
2.75594
2.90187
3.10997
3.17848
3.18183
3.17474
3.15383
3.11056
3.06168
3.01654
2.97636
2.94148
2.91695
2.90758
2.91022
2.92373
2.96223
3.04798
3.15643
3.22091
3.24771
3.26347
3.27548
3.29209
3.32862
3.38056
3.45634
3.57362
3.69841
3.81533
3.91634
4.00014
4.0689
4.12516
4.17104
4.20777
4.23631
4.25702
4.27048
4.27697
4.2769
4.27568
4.27178
4.26268
4.24415
4.21945
4.19226
4.1634
4.13287
4.10053
4.06636
4.03047
3.99307
3.95443
3.91481
3.87448
3.83369
3.7927
3.75173
3.71104
3.67088
3.63151
3.59322
3.5563
3.52128
3.48832
3.45785
3.43027
3.40587
3.38489
3.36742
3.35338
3.34248
3.33429
3.32817
3.32335
3.31891
3.31396
3.30768
3.29942
3.28833
3.27469
3.25737
3.23824
3.21786
3.19718
3.17704
3.15836
3.14266
3.13021
3.13058
5.78046
5.17544
4.59552
4.06941
3.61542
3.24231
2.95903
2.77427
2.72817
2.74896
2.8141
2.96026
3.12465
3.17382
3.17301
3.16431
3.14113
3.09423
3.04448
3.00255
2.97122
2.95984
2.96267
2.97641
3.01551
3.10438
3.28238
3.42033
3.4658
3.46274
3.44642
3.40496
3.34848
3.34263
3.35548
3.38963
3.45779
3.56719
3.69303
3.8114
3.91245
3.99446
4.05972
4.11077
4.15075
4.18162
4.20456
4.22035
4.22945
4.23164
4.23098
4.22851
4.22235
4.20926
4.1874
4.16171
4.13385
4.10429
4.0731
4.04026
4.00584
3.96997
3.93286
3.89478
3.856
3.8168
3.77744
3.73822
3.69941
3.66131
3.62423
3.58847
3.55459
3.52278
3.49347
3.46706
3.44385
3.42405
3.40772
3.3947
3.38464
3.377
3.37106
3.36601
3.36084
3.35454
3.34613
3.33487
3.3204
3.30268
3.28122
3.25655
3.23032
3.20325
3.17622
3.15003
3.12542
3.10422
3.08532
3.08235
5.82894
5.28612
4.75611
4.26339
3.82413
3.44841
3.14292
2.9167
2.78032
2.76666
2.78921
2.85554
2.99864
3.13023
3.16501
3.16316
3.15336
3.12874
3.08025
3.03647
3.01141
3.01301
3.0241
3.05886
3.14332
3.32395
3.59777
3.74471
3.75144
3.73261
3.67539
3.55556
3.44005
3.37302
3.36265
3.37251
3.40131
3.45949
3.55204
3.67058
3.78643
3.88758
3.97007
4.03416
4.08254
4.11854
4.145
4.16355
4.17533
4.18078
4.18066
4.17945
4.17579
4.1674
4.15035
4.12715
4.1009
4.07262
4.04269
4.01127
3.97841
3.94424
3.90891
3.87265
3.83573
3.79844
3.7611
3.72401
3.68753
3.652
3.61776
3.58532
3.55504
3.52729
3.50246
3.48088
3.46272
3.44799
3.43646
3.42768
3.42103
3.41573
3.41093
3.40557
3.39857
3.38884
3.3756
3.35841
3.33746
3.31224
3.28315
3.25255
3.22077
3.18841
3.15627
3.12506
3.09544
3.06931
3.0454
3.03712
5.86855
5.37526
4.8885
4.42756
4.00712
3.63596
3.32118
3.06968
2.88707
2.79589
2.79857
2.82177
2.88758
3.02455
3.13019
3.15642
3.15388
3.14358
3.11898
3.07835
3.06623
3.07254
3.09826
3.16777
3.32528
3.65187
3.99142
4.09745
4.08395
4.03082
3.90739
3.71918
3.56271
3.45542
3.39642
3.38366
3.39045
3.41288
3.45836
3.53067
3.63465
3.74324
3.84361
3.92741
3.99251
4.04064
4.0751
4.09899
4.11463
4.1235
4.12593
4.12541
4.1234
4.11828
4.10733
4.08799
4.06425
4.0378
4.00947
3.97964
3.94852
3.91622
3.88289
3.84873
3.81401
3.77903
3.74413
3.70968
3.67607
3.64371
3.61304
3.58469
3.55886
3.53601
3.51646
3.50034
3.48761
3.47796
3.47084
3.46551
3.46119
3.45691
3.45184
3.44453
3.43394
3.41929
3.40008
3.37653
3.34807
3.31566
3.28168
3.24624
3.20997
3.17341
3.13723
3.10204
3.06841
3.03812
3.01024
2.99667
5.90044
5.44784
4.9987
4.56787
4.16751
3.80583
3.48951
3.22305
3.01565
2.86446
2.81382
2.82027
2.84722
2.91354
3.0463
3.1287
3.14983
3.14838
3.14175
3.12626
3.1282
3.14378
3.1952
3.32308
3.59926
4.11679
4.42938
4.45505
4.4231
4.32607
4.12149
3.89441
3.71087
3.57509
3.48195
3.4265
3.40433
3.40735
3.42138
3.45201
3.50393
3.58755
3.6871
3.78419
3.86871
3.93616
3.98636
4.02169
4.04512
4.05931
4.06629
4.0669
4.0661
4.06341
4.05701
4.04373
4.0234
3.99949
3.97329
3.94545
3.9163
3.88609
3.855
3.82326
3.79111
3.75888
3.72694
3.69571
3.66566
3.6372
3.61115
3.58764
3.56715
3.55002
3.53633
3.52599
3.51859
3.51344
3.50971
3.50655
3.50314
3.49845
3.4912
3.48005
3.46418
3.44346
3.41753
3.38638
3.35158
3.31505
3.27691
3.23763
3.19784
3.158
3.1187
3.08046
3.04379
3.01025
2.97932
2.96118
5.92747
5.50875
5.0923
4.68958
4.30909
3.9596
3.64601
3.37323
3.14713
2.97211
2.85447
2.82622
2.83481
2.86525
2.93597
3.05849
3.12812
3.1474
3.15714
3.16416
3.18212
3.22821
3.33775
3.57826
4.07573
4.64267
4.8359
4.81851
4.74666
4.57873
4.31193
4.07119
3.87547
3.72171
3.60368
3.51667
3.45789
3.42261
3.41797
3.42297
3.43915
3.47479
3.53732
3.62276
3.71334
3.79726
3.86762
3.9216
3.95968
3.98433
3.99854
4.00451
4.00442
4.00331
4
3.99252
3.97742
3.95712
3.93382
3.9085
3.88176
3.85399
3.82549
3.79651
3.76737
3.73841
3.71007
3.68281
3.65709
3.63376
3.61302
3.59533
3.58103
3.57022
3.56255
3.55779
3.55493
3.55302
3.55125
3.54882
3.54486
3.5378
3.52628
3.50938
3.48698
3.45868
3.42546
3.38905
3.35069
3.31048
3.26899
3.22672
3.18421
3.14192
3.10034
3.05992
3.0211
2.9852
2.95212
2.93026
5.95602
5.56433
5.17668
4.79778
4.43648
4.09904
3.79127
3.5165
3.27985
3.08548
2.93816
2.84917
2.8375
2.84797
2.88084
2.95492
3.06977
3.1333
3.16607
3.19358
3.24274
3.34506
3.55992
4.00514
4.72141
5.15319
5.1866
5.1469
5.02702
4.77515
4.4919
4.24959
4.04971
3.88481
3.74873
3.63772
3.54959
3.48328
3.43908
3.41683
3.41735
3.42259
3.44142
3.48312
3.5531
3.63405
3.71662
3.78975
3.84801
3.8901
3.91752
3.93276
3.93869
3.93854
3.93723
3.93356
3.92548
3.91018
3.89063
3.8685
3.84476
3.81998
3.79455
3.76886
3.7433
3.71827
3.69432
3.67183
3.65175
3.63426
3.62
3.6089
3.60153
3.59703
3.59481
3.59484
3.59475
3.5943
3.59307
3.5902
3.58416
3.57207
3.55407
3.52962
3.49919
3.46424
3.42674
3.38685
3.34506
3.30184
3.25775
3.21326
3.16886
3.12492
3.08187
3.04008
2.99993
2.96248
2.92803
2.9033
5.99158
5.61955
5.25407
4.89595
4.55154
4.22634
3.92516
3.65183
3.40965
3.2021
3.0357
2.90658
2.84747
2.84865
2.86063
2.89815
2.97746
3.09139
3.16416
3.23163
3.32778
3.52199
3.91534
4.7022
5.35831
5.54268
5.51937
5.43093
5.22885
4.93208
4.66038
4.42771
4.22866
4.05647
3.90684
3.77722
3.66649
3.57427
3.50052
3.44604
3.41293
3.40126
3.3992
3.40557
3.42801
3.47687
3.54997
3.62856
3.70306
3.76576
3.81276
3.84395
3.8614
3.86917
3.86923
3.86827
3.86509
3.85781
3.84323
3.82521
3.80518
3.784
3.76229
3.74063
3.71942
3.69925
3.68062
3.6642
3.65077
3.64017
3.6333
3.629
3.6292
3.63004
3.6319
3.63552
3.63581
3.63509
3.63287
3.62755
3.61665
3.59707
3.57046
3.53837
3.50254
3.46388
3.42266
3.37945
3.33483
3.28929
3.24337
3.19742
3.15189
3.10705
3.06326
3.0208
2.98001
2.94173
2.90658
2.87979
6.04174
5.67697
5.32686
4.98607
4.65591
4.34238
4.04849
3.77836
3.53407
3.3193
3.13714
2.9937
2.88316
2.85363
2.85887
2.87818
2.9258
3.02402
3.15354
3.27931
3.45844
3.81888
4.55048
5.45853
5.86335
5.85753
5.80106
5.65189
5.36019
5.07568
4.82461
4.60357
4.40657
4.22927
4.06936
3.92551
3.79737
3.68487
3.58827
3.50791
3.44539
3.40065
3.38076
3.36523
3.36655
3.37716
3.40521
3.46295
3.53463
3.60896
3.67471
3.72642
3.76263
3.78493
3.79569
3.7986
3.79805
3.79575
3.79005
3.77836
3.76344
3.74653
3.72923
3.71243
3.69651
3.68245
3.67018
3.66162
3.65544
3.653
3.65362
3.65572
3.66051
3.66817
3.67416
3.67627
3.67556
3.67337
3.668
3.6569
3.6362
3.60838
3.57561
3.53924
3.49956
3.45719
3.41281
3.36698
3.32031
3.27322
3.22619
3.17949
3.13349
3.08839
3.04447
3.00194
2.96111
2.92261
2.88735
2.85927
6.1096
5.73691
5.39543
5.06781
4.75175
4.44848
4.16269
3.89645
3.65295
3.43388
3.24275
3.08334
2.95717
2.87607
2.86934
2.88117
2.91659
2.99537
3.15357
3.34827
3.66791
4.31262
5.39946
6.07126
6.17095
6.13227
6.01454
5.7689
5.48065
5.2194
4.98636
4.77454
4.57917
4.39813
4.23051
4.07593
3.9345
3.80621
3.69192
3.59167
3.5063
3.43667
3.38409
3.35222
3.32982
3.31864
3.32254
3.33864
3.37527
3.43897
3.50753
3.57455
3.63189
3.67513
3.70354
3.71958
3.72717
3.72831
3.7276
3.72498
3.71889
3.70775
3.69654
3.68556
3.67627
3.6694
3.66502
3.66546
3.66704
3.67073
3.67813
3.68971
3.70072
3.7095
3.71353
3.71287
3.71063
3.70504
3.69324
3.67174
3.64311
3.61009
3.57308
3.53258
3.4894
3.44412
3.39746
3.34993
3.30206
3.2542
3.20676
3.15994
3.11405
3.0692
3.02565
2.98354
2.94317
2.90498
2.87008
2.84147
6.17927
5.80012
5.46147
5.14366
4.83894
4.54631
4.26864
4.00735
3.76599
3.54533
3.34862
3.17784
3.04118
2.93021
2.89665
2.90447
2.93507
3.0135
3.17855
3.47479
4.02145
5.1236
6.13186
6.43717
6.41452
6.32879
6.13672
5.86131
5.60024
5.36298
5.14396
4.93849
4.74411
4.56019
4.38663
4.22406
4.07262
3.93279
3.80483
3.68918
3.58629
3.49678
3.42156
3.36174
3.3202
3.29082
3.26826
3.26804
3.27484
3.29539
3.33935
3.40282
3.47073
3.53241
3.5822
3.6184
3.64202
3.65581
3.66271
3.6664
3.66646
3.66597
3.66447
3.66125
3.66145
3.66258
3.66562
3.67229
3.68429
3.69843
3.7129
3.72871
3.74022
3.74603
3.74543
3.74314
3.73761
3.72572
3.70304
3.67463
3.64114
3.60331
3.56215
3.51829
3.47249
3.42531
3.37734
3.329
3.28073
3.2328
3.18556
3.13915
3.09383
3.04968
3.00692
2.96564
2.92609
2.88869
2.85457
2.82622
6.30063
5.88634
5.53291
5.21793
4.9218
4.63838
4.36817
4.11217
3.87352
3.65346
3.45404
3.27723
3.13079
3.01374
2.95758
2.96478
2.99751
3.08884
3.2926
3.72524
4.61685
5.94782
6.58626
6.61185
6.5685
6.44939
6.20815
5.95685
5.72216
5.50228
5.29312
5.09237
4.89917
4.7137
4.53646
4.36815
4.2093
4.06056
3.92206
3.79461
3.67816
3.57335
3.48054
3.40067
3.33466
3.28474
3.24845
3.2206
3.20455
3.20719
3.21913
3.24714
3.30302
3.36551
3.42943
3.4867
3.53242
3.56559
3.58798
3.60319
3.61395
3.62313
3.63117
3.63925
3.64835
3.66092
3.67509
3.69167
3.71051
3.73041
3.74933
3.76536
3.77302
3.77252
3.77029
3.76486
3.75275
3.73011
3.70167
3.66774
3.62948
3.58774
3.54346
3.49729
3.4499
3.40172
3.35328
3.30485
3.25684
3.20942
3.16289
3.11737
3.07304
3.02998
2.98841
2.94837
2.91019
2.87408
2.84119
2.81376
6.34443
5.97624
5.61204
5.29383
5.00222
4.7262
4.46243
4.21302
3.97685
3.75856
3.55861
3.3795
3.23059
3.10954
3.07194
3.0849
3.13382
3.26521
3.56084
4.18508
5.43856
6.42893
6.72858
6.71028
6.6452
6.5046
6.28643
6.06284
5.84655
5.63845
5.43696
5.24044
5.0487
4.86215
4.68195
4.50892
4.34413
4.18809
4.04155
3.90444
3.77733
3.6603
3.55383
3.45836
3.37456
3.30364
3.24598
3.20538
3.16981
3.145
3.1433
3.14886
3.16614
3.20366
3.26347
3.33011
3.39401
3.44934
3.49396
3.52867
3.55611
3.5792
3.60035
3.6212
3.64271
3.66582
3.69044
3.7158
3.74057
3.76311
3.78296
3.79327
3.79334
3.79144
3.78598
3.77373
3.75187
3.72315
3.68906
3.65057
3.60873
3.56432
3.51814
3.47073
3.42266
3.37427
3.32602
3.2781
3.23086
3.18443
3.13909
3.09491
3.05213
3.01071
2.97081
2.93243
2.89584
2.86136
2.82995
2.80394
6.32418
6.10117
5.71509
5.37873
5.08325
4.81118
4.55268
4.30827
4.07665
3.86099
3.66332
3.48639
3.34325
3.23601
3.23818
3.26596
3.35695
3.57851
4.05117
5.00416
5.94261
6.49758
6.6994
6.69114
6.65325
6.56283
6.38348
6.1776
5.9727
5.77291
5.57685
5.38313
5.1919
5.00411
4.82123
4.64441
4.47483
4.31305
4.15973
4.01503
3.8793
3.75268
3.63549
3.5279
3.43052
3.34382
3.26889
3.20594
3.15891
3.11923
3.09108
3.07671
3.0795
3.09115
3.11833
3.17289
3.2379
3.30756
3.37459
3.4344
3.48594
3.53023
3.5695
3.606
3.64114
3.67598
3.7095
3.74117
3.76878
3.79181
3.80463
3.8059
3.80422
3.79928
3.78845
3.76738
3.73874
3.70449
3.66603
3.62434
3.58026
3.53441
3.48742
3.43969
3.39171
3.34376
3.29624
3.24934
3.20344
3.15865
3.11514
3.07284
3.03188
2.99223
2.95405
2.91742
2.88261
2.85011
2.82053
2.79673
6.26422
6.12904
5.8333
5.47707
5.16911
4.89608
4.64087
4.40102
4.17389
3.96288
3.77067
3.60514
3.47544
3.43375
3.45221
3.5229
3.70694
4.104
4.90472
5.63455
6.12258
6.43105
6.59576
6.61956
6.60595
6.56326
6.46553
6.2939
6.10352
5.90874
5.71355
5.51934
5.32695
5.13766
4.95253
4.77286
4.59952
4.43326
4.27454
4.12377
3.98108
3.84683
3.72106
3.6041
3.49617
3.39769
3.30925
3.23147
3.1655
3.11271
3.07203
3.03936
3.01969
3.02047
3.02802
3.0481
3.09002
3.15671
3.2356
3.31786
3.39674
3.4683
3.532
3.58875
3.63991
3.68561
3.72698
3.76158
3.78837
3.80583
3.81035
3.80908
3.80482
3.79507
3.7754
3.74693
3.71291
3.6748
3.63369
3.59029
3.54529
3.49908
3.45218
3.40488
3.35764
3.31078
3.26476
3.21973
3.17582
3.13299
3.09137
3.05089
3.01173
2.9739
2.93763
2.90311
2.87054
2.84067
2.81355
2.79303
6.16565
6.10159
5.92575
5.57964
5.26021
4.98206
4.72812
4.49204
4.27083
4.06734
3.88873
3.74421
3.67464
3.68768
3.7487
3.9154
4.28233
5.02074
5.64533
5.97989
6.15868
6.30032
6.42142
6.50217
6.52083
6.51095
6.47696
6.39615
6.23744
6.0488
5.84993
5.65075
5.45453
5.26258
5.07531
4.89337
4.71728
4.54758
4.3847
4.22901
4.08079
3.94029
3.80771
3.68325
3.56711
3.45961
3.36106
3.27203
3.1931
3.12537
3.06949
3.02756
2.99496
2.97424
2.97431
2.97957
2.99608
3.03229
3.09801
3.18715
3.28476
3.3828
3.47506
3.55762
3.62874
3.68752
3.7343
3.76931
3.79477
3.80498
3.80405
3.80033
3.79131
3.77267
3.74543
3.71262
3.67575
3.63585
3.59379
3.55005
3.50519
3.45944
3.41331
3.36719
3.32167
3.27685
3.23297
3.18998
3.14804
3.1071
3.06734
3.02877
2.9916
2.95593
2.922
2.89013
2.86042
2.83402
2.8101
2.79388
6.00338
6.00586
5.92106
5.71046
5.37195
5.07607
4.81769
4.58437
4.37126
4.18261
4.0295
3.9457
3.95653
4.01507
4.18005
4.54478
5.27585
5.84838
6.08775
6.15334
6.16326
6.18603
6.23731
6.33292
6.41486
6.45249
6.44548
6.41518
6.33943
6.18598
5.98725
5.7812
5.57845
5.38172
5.19117
5.00661
4.82795
4.65525
4.48897
4.32921
4.17653
4.03101
3.89298
3.76267
3.64014
3.5258
3.41974
3.32243
3.23432
3.15601
3.08847
3.0325
2.98962
2.96076
2.94646
2.94833
2.95561
2.97374
3.01162
3.07906
3.16725
3.2748
3.38677
3.49315
3.58663
3.66262
3.72009
3.75841
3.78274
3.78352
3.7811
3.77427
3.75947
3.73353
3.70235
3.66745
3.62969
3.58966
3.54796
3.50487
3.46086
3.41629
3.37195
3.328
3.28477
3.24219
3.20046
3.15952
3.11961
3.08071
3.04307
3.00673
2.97196
2.93892
2.9079
2.87935
2.85329
2.83134
2.8113
2.79992
5.58556
5.904
5.87533
5.75361
5.49057
5.18005
4.91337
4.6832
4.48448
4.32437
4.2362
4.24754
4.31034
4.48763
4.87826
5.62951
6.17023
6.33143
6.32104
6.27428
6.17147
6.11769
6.12887
6.16879
6.256
6.35804
6.3953
6.38673
6.35354
6.27281
6.11062
5.90953
5.70254
5.49973
5.30375
5.11492
4.93267
4.75668
4.58704
4.42381
4.26734
4.11781
3.97544
3.84058
3.71318
3.59378
3.48226
3.37917
3.28476
3.19949
3.12416
3.05953
3.0065
2.9672
2.94056
2.94077
2.94448
2.95569
2.98085
3.02815
3.09631
3.18128
3.28676
3.39697
3.50172
3.59192
3.66266
3.71022
3.7395
3.73988
3.73699
3.72902
3.71175
3.68281
3.64979
3.61415
3.57662
3.53748
3.49697
3.45526
3.41311
3.37094
3.32912
3.28766
3.24681
3.20652
3.16704
3.12835
3.09072
3.05418
3.01901
2.98533
2.95345
2.92363
2.89621
2.87183
2.85056
2.8336
2.81812
2.81343
4.64204
5.67075
5.78351
5.73258
5.58924
5.29869
5.02408
4.80021
4.62731
4.53998
4.55432
4.62801
4.83116
5.27521
6.05775
6.5733
6.66849
6.63917
6.53981
6.33495
6.16031
6.07168
6.07311
6.08882
6.13263
6.22334
6.30739
6.32115
6.30977
6.27245
6.18464
6.01785
5.82008
5.6161
5.41511
5.2207
5.03331
4.85291
4.67935
4.51254
4.35269
4.19979
4.05413
3.91588
3.78508
3.66219
3.54708
3.44034
3.34204
3.25274
3.17301
3.10356
3.04517
2.99962
2.96663
2.95454
2.95648
2.96342
2.97983
3.01393
3.06991
3.13287
3.21014
3.2983
3.39091
3.47931
3.55602
3.6144
3.654
3.66838
3.6669
3.66125
3.64822
3.62209
3.58981
3.55467
3.51804
3.48027
3.4415
3.40229
3.36301
3.32371
3.28466
3.24586
3.20757
3.1698
3.13282
3.09669
3.06168
3.0279
2.99567
2.96518
2.93684
2.91104
2.88822
2.86929
2.85338
2.84207
2.83435
2.83477
2.98254
5.11405
5.65912
5.66493
5.60117
5.44022
5.17059
4.95581
4.85593
4.87425
4.96338
5.20361
5.72362
6.55276
7.05274
7.08815
7.03937
6.89663
6.60922
6.35903
6.18352
6.08117
6.05346
6.05688
6.07165
6.108
6.17961
6.22741
6.22515
6.21048
6.16995
6.0817
5.91665
5.7238
5.52314
5.32423
5.13105
4.94507
4.76679
4.59595
4.43284
4.27708
4.129
3.98841
3.85554
3.73058
3.61362
3.50511
3.40517
3.31443
3.23333
3.1625
3.10312
3.05556
3.02143
3.00004
3.00046
3.0038
3.01269
3.03161
3.06677
3.11383
3.16029
3.21677
3.28061
3.34847
3.4151
3.47527
3.52401
3.55666
3.56783
3.56653
3.56119
3.54818
3.52216
3.49072
3.45576
3.41962
3.38332
3.347
3.31075
3.27452
3.23845
3.20259
3.16714
3.13223
3.09807
3.06487
3.03288
3.00236
2.97365
2.94709
2.92323
2.9025
2.88588
2.87274
2.86336
2.8604
2.86115
2.86454
2.19482
3.86009
5.30961
5.58592
5.57501