/*--------------------------------*- C++ -*----------------------------------*\
  =========                 |
  \\      /  F ield         | OpenFOAM: The Open Source CFD Toolbox
   \\    /   O peration     | Website:  https://openfoam.org
    \\  /    A nd           | Version:  13
     \\/     M anipulation  |
\*---------------------------------------------------------------------------*/
FoamFile
{
    format      ascii;
    class       surfaceScalarField;
    location    "5";
    object      phi;
}
// * * * * * * * * * * * * * * * * * * * * * * * * * * * * * * * * * * * * * //

dimensions      [1 0 -1 0 0 0 0];

internalField   nonuniform List<scalar> 
10325
(
0.00840003
6.86555e-11
0.00840004
4.70492e-10
0.00839998
1.97723e-09
0.00840015
4.78462e-09
0.00839977
1.48226e-08
0.00840044
3.96313e-08
0.008399
7.0974e-08
0.00840091
3.0147e-07
0.00839659
3.62963e-07
0.00840129
1.78002e-06
0.00838871
2.77909e-06
0.00838997
1.04416e-05
0.00835241
2.93637e-05
0.00824246
0.00011297
0.00767003
0.000571242
0.00700474
0.000665375
0.00637468
0.000630093
0.00572478
0.000649837
0.00504313
0.000681473
0.00432135
0.000721784
0.00355017
0.000771111
0.00273013
0.00082001
0.00186608
0.000864245
0.000957314
0.000908682
0.000957198
0.00840003
1.18493e-10
0.00840002
1.36002e-09
0.00840008
2.8715e-09
0.00839991
1.29244e-08
0.0084003
2.13893e-08
0.00839939
8.08533e-08
0.00840114
1.45058e-07
0.00839727
4.68762e-07
0.00840332
9.98647e-07
0.0083913
2.74721e-06
0.00840231
6.95472e-06
0.00837632
1.9541e-05
0.00835638
6.17537e-05
0.00823908
0.000224967
0.0076813
0.00112955
0.00700091
0.00134608
0.00637866
0.0012523
0.00573805
0.00129037
0.00506087
0.00135848
0.00433154
0.00145112
0.00355112
0.00155146
0.0027225
0.0016486
0.0018466
0.00174035
0.000931226
0.00182397
0.00188831
0.00840003
3.95077e-10
0.00840004
1.06042e-09
0.00840002
7.23562e-09
0.00840002
1.04409e-08
0.00839993
5.16422e-08
0.00840017
7.4437e-08
0.00839906
3.18733e-07
0.00840139
4.94849e-07
0.00839531
1.85401e-06
0.00840335
3.54781e-06
0.00838833
1.09183e-05
0.00838987
2.8277e-05
0.00835233
9.09608e-05
0.00825413
0.000327886
0.00775688
0.00162556
0.00706538
0.00203759
0.00644097
0.00187663
0.00580506
0.00192621
0.00513156
0.00203187
0.00440075
0.00218177
0.00361398
0.00233834
0.00277423
0.00248823
0.00188347
0.00263131
0.000948436
0.00275899
0.00283657
0.00840003
2.75849e-10
0.00840001
2.18837e-09
0.00840008
6.04947e-09
0.0083999
2.16048e-08
0.00840034
4.66804e-08
0.00839917
1.36394e-07
0.008402
3.15677e-07
0.00839541
8.03527e-07
0.00840858
2.0477e-06
0.00838393
4.92768e-06
0.00841328
1.33465e-05
0.00837252
3.6181e-05
0.00837407
0.000114044
0.00828203
0.000407659
0.00791234
0.00199696
0.0072152
0.00273516
0.00657716
0.00251471
0.00593841
0.00256488
0.00526743
0.00270275
0.00453485
0.00291442
0.00374193
0.00313101
0.0028901
0.00334006
0.00197317
0.0035485
0.000999907
0.00373208
0.0038362
0.00840003
3.23298e-10
0.00840004
2.22135e-09
0.00839999
7.43499e-09
0.00840013
2.17749e-08
0.00839982
5.56118e-08
0.00840044
1.50676e-07
0.00839917
3.36304e-07
0.00840099
9.87709e-07
0.00839741
2.03225e-06
0.00840205
6.16081e-06
0.00839213
1.40925e-05
0.00839786
4.193e-05
0.00837711
0.000125829
0.00833752
0.00045082
0.00818417
0.00214933
0.00748152
0.00343783
0.0068057
0.00319057
0.00615259
0.00321795
0.00547641
0.00337862
0.00474409
0.00364682
0.00394225
0.00393284
0.00306983
0.00421242
0.00211939
0.004499
0.00108606
0.00476543
0.00492218
0.00840003
3.17129e-10
0.00840002
2.40395e-09
0.00840007
7.02204e-09
0.00839994
2.34256e-08
0.00840025
5.26839e-08
0.00839959
1.51686e-07
0.00840092
3.48031e-07
0.00839835
9.11278e-07
0.00840275
2.24483e-06
0.00839547
5.61604e-06
0.00840628
1.47258e-05
0.00839431
3.98467e-05
0.00841031
0.000121821
0.00843346
0.000422109
0.00866409
0.00191904
0.00794736
0.00415493
0.00717031
0.00396766
0.00648029
0.00390791
0.0057872
0.0040716
0.00504789
0.00438604
0.00423237
0.00474829
0.00333225
0.00511256
0.00233377
0.00549768
0.00121897
0.00587994
0.00614097
0.00840003
4.3563e-10
0.00840004
1.66952e-09
0.0084
8.55842e-09
0.0084001
1.63576e-08
0.00839983
6.24542e-08
0.00840057
1.12122e-07
0.00839876
3.82959e-07
0.00840333
7.19981e-07
0.0083939
2.25097e-06
0.00841233
4.73128e-06
0.00838781
1.34184e-05
0.00842263
3.40238e-05
0.00841769
0.000102403
0.00851133
0.000341778
0.00894941
0.00147709
0.00839752
0.00470661
0.0075487
0.00481626
0.00684673
0.00460981
0.00616577
0.00475228
0.00543075
0.00512126
0.00460679
0.00557216
0.00368397
0.00603502
0.00263681
0.00654487
0.00142166
0.00709508
0.00756257
0.00840003
2.27252e-10
0.00840002
2.30393e-09
0.00840006
5.64259e-09
0.00839996
2.23489e-08
0.00840022
4.25694e-08
0.00839954
1.46002e-07
0.0084013
2.69659e-07
0.00839722
8.8503e-07
0.00840676
1.70637e-06
0.00838899
5.19497e-06
0.00841757
1.15465e-05
0.00838758
3.29277e-05
0.00842316
9.31735e-05
0.00843924
0.000310533
0.00861264
0.00130802
0.00831977
0.00499888
0.00764723
0.00548869
0.00709914
0.00515779
0.00648214
0.00536908
0.00580883
0.00579443
0.00502319
0.00635779
0.00411251
0.00694547
0.00304542
0.0076123
0.00173736
0.00840329
0.00929983
0.00840003
3.9698e-10
0.00840004
1.69976e-09
0.00840003
7.83738e-09
0.00840003
1.6441e-08
0.0084
5.725e-08
0.00840012
1.08728e-07
0.00839958
3.61194e-07
0.00840103
6.73916e-07
0.00839738
2.17011e-06
0.00840432
4.33971e-06
0.00839422
1.28073e-05
0.00840544
3.11422e-05
0.00839837
9.29555e-05
0.00841261
0.000301375
0.00850042
0.00121762
0.00819892
0.0053002
0.00791845
0.00576903
0.00733261
0.00574356
0.00673495
0.00596659
0.00615343
0.00637584
0.00546146
0.00704965
0.004638
0.00776884
0.00364397
0.00860634
0.00225957
0.00978716
0.0115591
0.00840003
2.9666e-10
0.00840003
2.06428e-09
0.00840004
6.66891e-09
0.0084
2.02839e-08
0.00840013
4.96065e-08
0.00839969
1.3483e-07
0.00840088
3.06719e-07
0.0083978
8.37987e-07
0.00840513
1.86537e-06
0.00839
5.14035e-06
0.00841438
1.20447e-05
0.0083833
3.31158e-05
0.00841124
9.24029e-05
0.00839066
0.000301025
0.00845777
0.00116052
0.00830681
0.00544919
0.00789727
0.00617832
0.00747176
0.00616902
0.00702419
0.00641406
0.00651902
0.00688085
0.00597663
0.00759168
0.00533487
0.0084102
0.00444386
0.00949708
0.00313658
0.0110946
0.0146941
0.00840003
3.25856e-10
0.00840002
2.13388e-09
0.00840007
6.91515e-09
0.00839995
2.08499e-08
0.00840022
5.15528e-08
0.00839961
1.35956e-07
0.00840104
3.35094e-07
0.0083979
8.13834e-07
0.00840445
2.11639e-06
0.00839194
4.93482e-06
0.00841091
1.31687e-05
0.00838497
3.31555e-05
0.00840817
9.49798e-05
0.00839043
0.000299989
0.00844026
0.00111941
0.00849669
0.00539049
0.00807483
0.00659997
0.00765167
0.00659215
0.00730979
0.00675564
0.00693535
0.00725513
0.00657222
0.00795475
0.00614161
0.0088408
0.00572726
0.00991115
0.00569254
0.011128
0.0115108
0.00887633
0.00840003
3.3531e-10
0.00840004
1.97264e-09
0.00840001
7.29068e-09
0.00840008
1.923e-08
0.00839993
5.42019e-08
0.00840028
1.29579e-07
0.00839959
3.39417e-07
0.00840071
8.21366e-07
0.00839873
2.05638e-06
0.00840166
5.16275e-06
0.00839669
1.28866e-05
0.00840383
3.38193e-05
0.00839597
9.33511e-05
0.00841067
0.000292173
0.00847478
0.00105292
0.00890435
0.00496077
0.00844717
0.00705717
0.00797454
0.00706453
0.00762625
0.00710427
0.0073404
0.00754067
0.0070814
0.00821326
0.00688226
0.00903893
0.00684607
0.00994677
0.00729278
0.0106815
0.0104895
0.00831261
0.00840003
2.97657e-10
0.00840003
1.93945e-09
0.00840004
6.49945e-09
0.00840001
1.88976e-08
0.0084001
4.8066e-08
0.00839985
1.26501e-07
0.00840058
3.03646e-07
0.00839873
7.91966e-07
0.0084036
1.88546e-06
0.00839372
4.90077e-06
0.00841313
1.19542e-05
0.00838935
3.14349e-05
0.00842588
8.50425e-05
0.00843581
0.00025889
0.00859872
0.000902671
0.00964382
0.00391228
0.009069
0.00763167
0.00847096
0.00766268
0.00807967
0.0074949
0.00781261
0.00780769
0.00763796
0.00838783
0.00760628
0.00907204
0.00783076
0.00972015
0.00837392
0.0101375
0.00986431
0.00899772
0.00840003
2.49317e-10
0.00840003
1.61678e-09
0.00840005
5.46107e-09
0.00840001
1.57739e-08
0.00840013
4.06187e-08
0.00839984
1.03706e-07
0.00840072
2.55285e-07
0.00839887
6.35588e-07
0.00840408
1.55268e-06
0.00839486
3.8582e-06
0.0084167
9.52768e-06
0.00839412
2.41583e-05
0.00845087
6.38055e-05
0.00849378
0.00018434
0.00880938
0.000605074
0.0102598
0.00245651
0.00976435
0.00812696
0.0092964
0.00813064
0.00869186
0.00809949
0.00836969
0.00812972
0.0082418
0.00851509
0.00828808
0.00902434
0.00853901
0.00946967
0.00901482
0.00965988
0.00936613
0.00951368
0.00840003
2.07111e-10
0.00840003
1.38039e-09
0.00840004
4.58987e-09
0.00840001
1.34879e-08
0.00840011
3.41817e-08
0.00839987
8.89438e-08
0.00840058
2.14717e-07
0.00839903
5.43066e-07
0.00840335
1.30091e-06
0.00839515
3.28833e-06
0.00841414
7.95988e-06
0.00838966
2.03554e-05
0.00843678
5.25107e-05
0.00843723
0.000148794
0.00859069
0.000476468
0.00919391
0.0018412
0.00990165
0.00742152
0.00957392
0.00845844
0.00914971
0.00852414
0.00887504
0.00840339
0.00877659
0.00861386
0.00884979
0.00894924
0.00908032
0.00923939
0.00946207
0.00927576
0.00895638
0.00987198
0.00840003
1.84635e-10
0.00840003
1.24337e-09
0.00840004
3.99499e-09
0.00840001
1.21044e-08
0.00840011
2.98032e-08
0.00839988
7.89269e-08
0.00840049
1.90144e-07
0.00839925
4.77617e-07
0.00840249
1.18157e-06
0.00839626
2.85205e-06
0.00840992
7.31666e-06
0.00839146
1.77251e-05
0.00842438
4.70259e-05
0.00841607
0.000128542
0.00851041
0.000403541
0.00887015
0.00147093
0.00987799
0.00641536
0.00975118
0.0085853
0.00952374
0.00875101
0.00929013
0.00863719
0.00921625
0.00868649
0.00929884
0.00886806
0.00950399
0.00903101
0.0098031
0.0089774
0.00863648
0.0101211
0.00840003
1.67442e-10
0.00840004
1.01891e-09
0.00840002
3.58945e-09
0.00840006
9.97133e-09
0.0084
2.66113e-08
0.00840016
6.61761e-08
0.00839986
1.68324e-07
0.00840057
4.09749e-07
0.00839951
1.03266e-06
0.00840175
2.53206e-06
0.00839936
6.33374e-06
0.00840666
1.58598e-05
0.0084042
4.08455e-05
0.00843276
0.000111145
0.00849139
0.000335833
0.00879171
0.00117464
0.0103587
0.00484669
0.0102022
0.00874174
0.00995844
0.00899447
0.00968986
0.00890685
0.00961342
0.00876091
0.0096772
0.00880569
0.00984457
0.00886123
0.0100735
0.00874615
0.00839948
0.010312
0.00840003
1.28817e-10
0.00840003
7.94308e-10
0.00840003
2.83838e-09
0.00840005
7.75625e-09
0.00840002
2.09349e-08
0.0084001
5.19212e-08
0.00840002
1.28967e-07
0.00840022
3.22897e-07
0.00840044
7.67831e-07
0.00840044
1.97251e-06
0.00840368
4.61042e-06
0.00840411
1.20161e-05
0.00842089
2.90931e-05
0.00844908
7.81463e-05
0.00856834
0.000220614
0.00902175
0.000717404
0.011086
0.00278427
0.0109092
0.0089174
0.0106604
0.00924308
0.0102988
0.0092685
0.0100737
0.00898329
0.010052
0.00883057
0.0101533
0.00875811
0.0103119
0.00858491
0.00823426
0.010478
0.00840003
1.0097e-10
0.00840003
6.64892e-10
0.00840004
2.18922e-09
0.00840002
6.47288e-09
0.00840007
1.62953e-08
0.00839998
4.19835e-08
0.00840026
1.03282e-07
0.00839973
2.52873e-07
0.00840132
6.33056e-07
0.00839863
1.50305e-06
0.00840616
3.84347e-06
0.00839645
9.07698e-06
0.00842215
2.34813e-05
0.00841488
5.91933e-05
0.00849628
0.000165851
0.00867605
0.000517681
0.00953129
0.00193822
0.0109698
0.00747668
0.0109085
0.00930405
0.0106971
0.00948003
0.010461
0.00921581
0.0103915
0.00890389
0.0104355
0.00871233
0.0105314
0.00848598
0.00812964
0.0106377
0.00840003
7.85847e-11
0.00840003
5.2689e-10
0.00840003
1.76104e-09
0.00840004
5.14596e-09
0.00840003
1.30309e-08
0.00840006
3.4377e-08
0.00840005
8.04995e-08
0.00840007
2.14202e-07
0.0084004
4.83846e-07
0.0083997
1.30892e-06
0.00840302
2.93804e-06
0.00839839
7.95654e-06
0.00841388
1.85424e-05
0.00840848
4.99185e-05
0.00845793
0.000132093
0.00855733
0.00040396
0.0090848
0.00141968
0.0110024
0.00555607
0.0111429
0.00916318
0.0110553
0.00956763
0.0108261
0.00944291
0.0107058
0.00902758
0.0106944
0.00872218
0.0107392
0.00843743
0.00807553
0.0107955
0.00840003
6.26177e-11
0.00840003
3.89818e-10
0.00840004
1.35906e-09
0.00840003
3.80355e-09
0.00840005
1.00791e-08
0.00840003
2.50178e-08
0.00840009
6.31971e-08
0.0084001
1.52226e-07
0.00840015
3.81196e-07
0.00840088
9.17825e-07
0.00840012
2.28452e-06
0.00840597
5.55235e-06
0.00840362
1.38308e-05
0.00842981
3.45825e-05
0.008459
9.08373e-05
0.00861556
0.000257916
0.00919199
0.000836248
0.0116228
0.00312594
0.0117082
0.00907775
0.0116152
0.00966066
0.0113601
0.00969753
0.011084
0.00930534
0.0109771
0.00882721
0.0109613
0.00845257
0.00806853
0.0109677
0.00840003
4.8546e-11
0.00840003
2.89787e-10
0.00840004
1.03766e-09
0.00840003
2.82685e-09
0.00840005
7.64555e-09
0.00840002
1.85864e-08
0.0084001
4.78008e-08
0.00840003
1.129e-07
0.00840026
2.88649e-07
0.0084004
6.74664e-07
0.00840058
1.72796e-06
0.00840332
4.05456e-06
0.00840342
1.03604e-05
0.00841883
2.51256e-05
0.00843688
6.54114e-05
0.00852404
0.000177957
0.0088003
0.000552395
0.0099189
0.00201197
0.011734
0.00726183
0.0118354
0.00955897
0.0116837
0.00984885
0.0114009
0.00958851
0.0112735
0.00895343
0.0111961
0.00853121
0.00810429
0.0111578
0.00840003
3.53731e-11
0.00840003
2.2332e-10
0.00840003
7.61527e-10
0.00840003
2.17784e-09
0.00840004
5.64127e-09
0.00840002
1.42627e-08
0.0084001
3.54725e-08
0.00839997
8.66451e-08
0.00840043
2.16066e-07
0.00839975
5.1863e-07
0.00840209
1.30722e-06
0.00839896
3.11529e-06
0.00840919
7.93463e-06
0.00840189
1.91991e-05
0.0084366
4.9703e-05
0.00846026
0.000131332
0.00864239
0.000389786
0.00930449
0.00133958
0.0117092
0.00485902
0.0119952
0.00927251
0.0120654
0.00977844
0.0119122
0.00974115
0.0115812
0.00928517
0.0114502
0.00866311
0.00819044
0.0113612
0.00840003
2.37382e-11
0.00840003
1.65342e-10
0.00840003
5.29951e-10
0.00840003
1.61189e-09
0.00840004
3.93503e-09
0.00840003
1.04976e-08
0.00840007
2.46445e-08
0.00840001
6.33003e-08
0.00840032
1.4937e-07
0.00839982
3.73826e-07
0.0084019
9.00531e-07
0.00839897
2.20701e-06
0.0084104
5.42597e-06
0.00839881
1.32186e-05
0.00844406
3.33253e-05
0.00845292
8.52208e-05
0.00864032
0.000237775
0.00921134
0.000746284
0.0114151
0.00266151
0.0124213
0.00826571
0.0124136
0.00978581
0.0122292
0.0099251
0.011886
0.00962899
0.0117252
0.00882329
0.00833074
0.0115831
0.00840003
1.77581e-11
0.00840003
1.14884e-10
0.00840003
3.90225e-10
0.00840004
1.12275e-09
0.00840003
2.88117e-09
0.00840005
7.40079e-09
0.00840003
1.78363e-08
0.0084001
4.51399e-08
0.00840004
1.06765e-07
0.00840029
2.71227e-07
0.00840039
6.35779e-07
0.00840083
1.62292e-06
0.00840315
3.81527e-06
0.00840422
9.72889e-06
0.00841859
2.35377e-05
0.00843709
6.06179e-05
0.00851943
0.000161528
0.00877305
0.000486214
0.00973332
0.00170525
0.0121832
0.00581434
0.0125163
0.00945228
0.0125867
0.00985418
0.0124398
0.00977561
0.012049
0.00921402
0.00855075
0.0118284
0.00840003
1.30679e-11
0.00840003
7.6099e-11
0.00840003
2.78654e-10
0.00840003
7.43419e-10
0.00840003
2.05055e-09
0.00840004
4.88401e-09
0.00840003
1.27151e-08
0.00840009
2.95756e-08
0.0084
7.58833e-08
0.00840039
1.76575e-07
0.00839994
4.47382e-07
0.00840203
1.05385e-06
0.0084
2.63515e-06
0.00840965
6.32513e-06
0.00840632
1.56967e-05
0.00844561
3.89654e-05
0.00848171
0.000100842
0.00871056
0.000281968
0.00950052
0.00089985
0.0122308
0.0030876
0.0129347
0.00874795
0.0129548
0.00983379
0.012738
0.00999222
0.0123936
0.00955758
0.00880792
0.0121376
0.00840003
8.54282e-12
0.00840003
5.38668e-11
0.00840003
1.86993e-10
0.00840003
5.23923e-10
0.00840003
1.37977e-09
0.00840004
3.4338e-09
0.00840004
8.52889e-09
0.00840005
2.08751e-08
0.00840007
5.07402e-08
0.00840009
1.24336e-07
0.00840041
3.00025e-07
0.00840007
7.39518e-07
0.00840271
1.7738e-06
0.00840021
4.39995e-06
0.00841507
1.06192e-05
0.00840938
2.66126e-05
0.00846974
6.67519e-05
0.00854179
0.000180148
0.00892847
0.00054015
0.0101177
0.00188218
0.0126817
0.00618586
0.0129828
0.00953284
0.0131547
0.00982021
0.0128841
0.00982791
0.00917759
0.0125141
0.00840003
5.75882e-12
0.00840003
3.61881e-11
0.00840003
1.26659e-10
0.00840003
3.5397e-10
0.00840003
9.29042e-10
0.00840003
2.33088e-09
0.00840004
5.7014e-09
0.00840004
1.41319e-08
0.00840008
3.37663e-08
0.00840004
8.41846e-08
0.00840038
1.98929e-07
0.00839996
4.97588e-07
0.00840229
1.17436e-06
0.00839964
2.93967e-06
0.00841308
6.98158e-06
0.00840244
1.75633e-05
0.00845872
4.29215e-05
0.00848472
0.000112405
0.00875165
0.00031349
0.00959681
0.00101037
0.0124126
0.00337639
0.013277
0.00866833
0.0133607
0.00973642
0.0132149
0.00997357
0.00955534
0.0128354
0.00840003
3.70826e-12
0.00840003
2.51492e-11
0.00840003
8.19004e-11
0.00840003
2.44387e-10
0.00840003
6.05156e-10
0.00840003
1.58403e-09
0.00840004
3.76581e-09
0.00840003
9.47608e-09
0.00840008
2.26337e-08
0.00840002
5.55541e-08
0.00840028
1.34831e-07
0.00840002
3.24768e-07
0.00840143
8.01397e-07
0.00840024
1.90538e-06
0.00840704
4.75965e-06
0.00840459
1.13199e-05
0.00843347
2.86415e-05
0.00845344
7.09388e-05
0.00860018
0.000192081
0.00901758
0.000571448
0.0104565
0.00194878
0.0130136
0.00610737
0.0133286
0.00942112
0.0135631
0.00973889
0.00976495
0.013353
0.00840003
2.47497e-12
0.00840003
1.60015e-11
0.00840003
5.46315e-11
0.00840003
1.5632e-10
0.00840003
4.00771e-10
0.00840003
1.02238e-09
0.00840003
2.45729e-09
0.00840004
6.17589e-09
0.00840004
1.45143e-08
0.00840007
3.66148e-08
0.00840012
8.51047e-08
0.00840014
2.15164e-07
0.00840078
5.00967e-07
0.00840032
1.25784e-06
0.00840503
2.96132e-06
0.00840206
7.37578e-06
0.00842739
1.7762e-05
0.00842928
4.45051e-05
0.00854011
0.000113752
0.00876049
0.000317951
0.00971922
0.00101176
0.0125562
0.00326382
0.0135904
0.00838501
0.0136578
0.00967118
0.00978805
0.0136346
0.00840003
1.70523e-12
0.00840003
1.00147e-11
0.00840003
3.62865e-11
0.00840003
9.76199e-11
0.00840003
2.66754e-10
0.00840003
6.35125e-10
0.00840003
1.64868e-09
0.00840004
3.81073e-09
0.00840003
9.76128e-09
0.00840008
2.25668e-08
0.00840003
5.71676e-08
0.0084003
1.3342e-07
0.00840006
3.33125e-07
0.00840148
7.92265e-07
0.00840051
1.9426e-06
0.00840705
4.71404e-06
0.00840622
1.14442e-05
0.00843377
2.84607e-05
0.00845988
7.08477e-05
0.00860852
0.000189185
0.00904581
0.000558015
0.0104532
0.0018661
0.0132045
0.00562913
0.0136913
0.00918406
0.00961483
0.0138644
0.00840003
9.79916e-13
0.00840003
6.6105e-12
0.00840003
2.18787e-11
0.00840003
6.44671e-11
0.00840003
1.60546e-10
0.00840003
4.19522e-10
0.00840003
9.82208e-10
0.00840003
2.51017e-09
0.00840004
5.79705e-09
0.00840004
1.47046e-08
0.00840009
3.40148e-08
0.00840005
8.53934e-08
0.00840043
1.99663e-07
0.0084001
4.94046e-07
0.00840247
1.17286e-06
0.00840067
2.85896e-06
0.00841369
6.9099e-06
0.0084085
1.67485e-05
0.00846622
4.15248e-05
0.00851231
0.000105002
0.00881998
0.000288307
0.00976664
0.00089458
0.0126139
0.00278683
0.0139057
0.00789319
0.00956417
0.0139563
0.00840003
6.56093e-13
0.00840003
3.98322e-12
0.00840003
1.42664e-11
0.00840003
3.87984e-11
0.00840003
1.04236e-10
0.00840003
2.5339e-10
0.00840003
6.35254e-10
0.00840004
1.52584e-09
0.00840003
3.72182e-09
0.00840005
9.00292e-09
0.00840004
2.16016e-08
0.00840013
5.28903e-08
0.00840008
1.25416e-07
0.00840048
3.09456e-07
0.0084006
7.2817e-07
0.00840187
1.81465e-06
0.00840452
4.25087e-06
0.00840946
1.06522e-05
0.00842799
2.54307e-05
0.008465
6.45977e-05
0.0085896
0.00016698
0.0089923
0.000487317
0.0101856
0.00159624
0.0132464
0.00483195
0.00879926
0.0140104
0.00840003
4.04751e-13
0.00840003
2.45314e-12
0.00840003
8.72175e-12
0.00840003
2.38706e-11
0.00840003
6.39051e-11
0.00840003
1.54595e-10
0.00840003
3.9299e-10
0.00840003
9.19648e-10
0.00840003
2.31151e-09
0.00840004
5.38887e-09
0.00840004
1.34247e-08
0.00840009
3.1501e-08
0.00840005
7.74304e-08
0.00840042
1.84407e-07
0.00840012
4.46541e-07
0.00840225
1.0775e-06
0.00840089
2.58014e-06
0.00841201
6.31487e-06
0.00840893
1.50923e-05
0.00845885
3.76057e-05
0.00849991
9.36116e-05
0.00876706
0.000253716
0.00957737
0.000763887
0.0120137
0.00240078
0.00683988
0.013973
0.00840003
2.28251e-13
0.00840003
1.56622e-12
0.00840003
5.07588e-12
0.00840003
1.52433e-11
0.00840003
3.74095e-11
0.00840003
9.81078e-11
0.00840003
2.3019e-10
0.00840003
5.80851e-10
0.00840004
1.36449e-09
0.00840003
3.3614e-09
0.00840005
8.01728e-09
0.00840005
1.93426e-08
0.00840009
4.70388e-08
0.00840015
1.11188e-07
0.00840026
2.74938e-07
0.008401
6.41781e-07
0.00840083
1.60341e-06
0.00840655
3.72166e-06
0.00840466
9.37049e-06
0.00843646
2.20316e-05
0.00844587
5.61352e-05
0.00859631
0.000141631
0.00891727
0.000402221
0.0100658
0.0012792
0.00382986
0.0130676
0.00840003
1.52717e-13
0.00840003
8.95161e-13
0.00840003
3.25609e-12
0.00840003
8.72984e-12
0.00840003
2.37726e-11
0.00840003
5.65605e-11
0.00840003
1.45336e-10
0.00840003
3.36758e-10
0.00840003
8.50193e-10
0.00840004
1.975e-09
0.00840003
4.91352e-09
0.00840006
1.15379e-08
0.00840004
2.82773e-08
0.00840016
6.75197e-08
0.00840013
1.62467e-07
0.00840065
3.94571e-07
0.00840086
9.34063e-07
0.00840279
2.31217e-06
0.00840608
5.39495e-06
0.00841507
1.35816e-05
0.00843765
3.20945e-05
0.00850089
8.22651e-05
0.00868315
0.000213739
0.00933415
0.000632195
0.00198389
0.0111812
0.00840003
8.27509e-14
0.00840003
5.58413e-13
0.00840003
1.84189e-12
0.00840003
5.42871e-12
0.00840003
1.35041e-11
0.00840003
3.49941e-11
0.00840003
8.24467e-11
0.00840003
2.06659e-10
0.00840003
4.84326e-10
0.00840003
1.19245e-09
0.00840004
2.82534e-09
0.00840004
6.83118e-09
0.00840007
1.64235e-08
0.00840005
3.90827e-08
0.00840021
9.52429e-08
0.00840021
2.23588e-07
0.00840088
5.5076e-07
0.00840151
1.28054e-06
0.0084039
3.18297e-06
0.0084103
7.37899e-06
0.00842237
1.84671e-05
0.00846314
4.3942e-05
0.0085621
0.000112828
0.00889357
0.000302447
0.00092577
0.00995093
0.00840003
5.12853e-14
0.00840003
3.16867e-13
0.00840003
1.12134e-12
0.00840003
3.08658e-12
0.00840003
8.18028e-12
0.00840003
2.00094e-11
0.00840003
4.95012e-11
0.00840003
1.19414e-10
0.00840003
2.86046e-10
0.00840003
6.98737e-10
0.00840003
1.63644e-09
0.00840004
4.06297e-09
0.00840005
9.35632e-09
0.00840005
2.34483e-08
0.00840013
5.37863e-08
0.00840011
1.34687e-07
0.00840066
3.09997e-07
0.00840035
7.70634e-07
0.00840384
1.79529e-06
0.00840205
4.40996e-06
0.00842095
1.04716e-05
0.008418
2.56052e-05
0.00850261
6.30266e-05
0.00859687
0.000162059
0.000458461
0.00910971
0.00840003
2.98228e-14
0.00840003
1.85129e-13
0.00840003
6.4546e-13
0.00840003
1.79928e-12
0.00840003
4.71274e-12
0.00840003
1.15543e-11
0.00840003
2.87655e-11
0.00840003
6.79249e-11
0.00840003
1.68575e-10
0.00840003
3.91227e-10
0.00840003
9.73982e-10
0.00840004
2.24855e-09
0.00840004
5.59606e-09
0.00840006
1.29555e-08
0.00840005
3.1956e-08
0.00840019
7.48923e-08
0.00840012
1.82384e-07
0.00840093
4.33021e-07
0.00840065
1.03985e-06
0.008405
2.51179e-06
0.00840425
5.95567e-06
0.00842561
1.46347e-05
0.0084357
3.49675e-05
0.00853548
8.83807e-05
0.000230109
0.00873437
0.00840003
1.6002e-14
0.00840003
1.08099e-13
0.00840003
3.57195e-13
0.00840003
1.05153e-12
0.00840003
2.60928e-12
0.00840003
6.76482e-12
0.00840003
1.57871e-11
0.00840003
3.98945e-11
0.00840003
9.1837e-11
0.00840003
2.29079e-10
0.00840003
5.30161e-10
0.00840003
1.30563e-09
0.00840004
3.05663e-09
0.00840004
7.40551e-09
0.00840007
1.76381e-08
0.00840007
4.1939e-08
0.00840021
1.01589e-07
0.00840032
2.37129e-07
0.00840081
5.84446e-07
0.00840216
1.3443e-06
0.00840357
3.34845e-06
0.00841399
7.68898e-06
0.00842121
1.92712e-05
0.00847997
4.53628e-05
0.000116661
0.00857045
0.00840003
9.79555e-15
0.00840003
5.84964e-14
0.00840003
2.10505e-13
0.00840003
5.67608e-13
0.00840003
1.53089e-12
0.00840003
3.65223e-12
0.00840003
9.2485e-12
0.00840003
2.15456e-11
0.00840003
5.32296e-11
0.00840003
1.24768e-10
0.00840003
3.02755e-10
0.00840003
7.18561e-10
0.00840003
1.71288e-09
0.00840004
4.13415e-09
0.00840004
9.69107e-09
0.00840007
2.36916e-08
0.0084001
5.48412e-08
0.00840021
1.35559e-07
0.00840054
3.1108e-07
0.00840077
7.72186e-07
0.00840342
1.77338e-06
0.00840367
4.39233e-06
0.00842045
1.02052e-05
0.00842392
2.5257e-05
6.08648e-05
0.00850865
0.00840003
5.18026e-15
0.00840003
3.29045e-14
0.00840003
1.11425e-13
0.00840003
3.20562e-13
0.00840003
8.09872e-13
0.00840003
2.04338e-12
0.00840003
4.92244e-12
0.00840003
1.18738e-11
0.00840003
2.8672e-11
0.00840003
6.74139e-11
0.00840003
1.64659e-10
0.00840003
3.81389e-10
0.00840003
9.4062e-10
0.00840004
2.15814e-09
0.00840004
5.34378e-09
0.00840006
1.22657e-08
0.00840006
3.01845e-08
0.00840019
6.99412e-08
0.00840015
1.7013e-07
0.008401
3.99293e-07
0.00840073
9.5749e-07
0.00840539
2.28709e-06
0.00840472
5.40839e-06
0.00842791
1.31726e-05
3.13165e-05
0.00843755
0.00840003
2.55004e-15
0.00840003
1.73678e-14
0.00840003
5.81977e-14
0.00840003
1.68776e-13
0.00840003
4.22472e-13
0.00840003
1.07852e-12
0.00840003
2.52008e-12
0.00840003
6.28801e-12
0.00840003
1.43759e-11
0.00840003
3.56611e-11
0.00840003
8.12915e-11
0.00840003
1.99528e-10
0.00840003
4.59596e-10
0.00840003
1.1089e-09
0.00840004
2.59698e-09
0.00840004
6.12905e-09
0.00840007
1.46558e-08
0.00840007
3.37985e-08
0.00840022
8.20844e-08
0.00840034
1.86208e-07
0.0084009
4.57526e-07
0.00840227
1.0249e-06
0.00840411
2.53239e-06
0.00841464
5.67351e-06
1.40391e-05
0.00842419
0.00840003
1.37612e-15
0.00840003
8.4371e-15
0.00840003
3.02416e-14
0.00840003
8.1065e-14
0.00840003
2.18216e-13
0.00840003
5.1736e-13
0.00840003
1.28271e-12
0.00840003
3.01075e-12
0.00840003
7.15957e-12
0.00840003
1.70214e-11
0.00840003
3.92984e-11
0.00840003
9.51359e-11
0.00840003
2.14788e-10
0.00840003
5.26304e-10
0.00840003
1.16687e-09
0.00840004
2.8918e-09
0.00840005
6.32757e-09
0.00840005
1.56531e-08
0.00840015
3.43366e-08
0.0084001
8.34927e-08
0.00840079
1.86342e-07
0.00840029
4.3696e-07
0.0084045
1.00418e-06
0.00840183
2.27495e-06
5.34653e-06
0.00842338
0.00840003
7.29072e-16
0.00840003
3.99642e-15
0.00840003
1.40612e-14
0.00840003
3.94257e-14
0.00840003
1.01435e-13
0.00840003
2.47232e-13
0.00840003
5.99277e-13
0.00840003
1.39906e-12
0.00840003
3.33303e-12
0.00840003
7.69372e-12
0.00840003
1.81526e-11
0.00840003
4.18815e-11
0.00840003
9.70575e-11
0.00840003
2.26819e-10
0.00840003
5.1561e-10
0.00840004
1.21321e-09
0.00840003
2.70148e-09
0.00840007
6.45942e-09
0.00840003
1.40019e-08
0.00840018
3.36865e-08
0.00840013
7.13841e-08
0.00840053
1.7488e-07
0.00840109
3.57316e-07
0.0084018
8.73731e-07
1.80276e-06
0.00840681
0.00840003
2.67771e-16
0.00840003
1.76668e-15
0.00840003
6.85042e-15
0.00840003
1.67429e-14
0.00840003
4.91044e-14
0.00840003
1.04875e-13
0.00840003
2.86724e-13
0.00840003
5.75727e-13
0.00840003
1.59719e-12
0.00840003
3.05506e-12
0.00840003
8.54974e-12
0.00840003
1.6345e-11
0.00840003
4.4854e-11
0.00840003
8.82168e-11
0.00840003
2.26499e-10
0.00840004
4.86701e-10
0.00840003
1.11441e-09
0.00840006
2.66173e-09
0.00840001
5.32819e-09
0.00840017
1.44288e-08
0.0083999
2.48003e-08
0.00840067
7.63418e-08
0.00839948
1.12793e-07
0.0084025
3.96194e-07
4.96003e-07
0.00839876
0.00840003
3.75405e-17
0.00840003
1.04129e-15
0.00840003
2.28197e-15
0.00840003
9.87174e-15
0.00840003
1.56906e-14
0.00840003
6.08649e-14
0.00840003
8.92224e-14
0.00840003
3.39092e-13
0.00840003
4.69593e-13
0.00840003
1.80015e-12
0.00840003
2.51164e-12
0.00840003
9.05421e-12
0.00840003
1.40166e-11
0.00840003
4.34094e-11
0.00840003
8.17699e-11
0.00840003
1.96733e-10
0.00840003
4.87757e-10
0.00840004
8.36375e-10
0.00840001
2.87572e-09
0.00840011
3.38309e-09
0.00839984
1.68139e-08
0.00840064
1.36607e-08
0.00839869
9.72511e-08
0.00840381
4.21671e-08
5.01459e-07
0.0083932
0.00840003
9.99905e-17
0.00840003
4.16984e-16
0.00840003
1.1498e-15
0.00840003
3.39968e-15
0.00840003
8.8476e-15
0.00840003
2.135e-14
0.00840003
4.88471e-14
0.00840003
1.16668e-13
0.00840003
2.62793e-13
0.00840003
5.96996e-13
0.00840003
1.44315e-12
0.00840003
2.89145e-12
0.00840003
7.73012e-12
0.00840003
1.4255e-11
0.00840003
4.1418e-11
0.00840004
6.66981e-11
0.00840003
2.1926e-10
0.00840005
3.44451e-10
0.0084
1.11262e-09
0.0084001
1.69075e-09
0.00839993
5.71462e-09
0.00840015
9.10652e-09
0.00839989
2.50578e-08
0.00839987
5.12229e-08
1.16434e-07
0.00839989
0.00840003
6.02274e-17
0.00840003
1.5336e-16
0.00840003
6.19838e-16
0.00840003
1.15408e-15
0.00840003
4.43349e-15
0.00840003
5.51718e-15
0.00840003
3.09552e-14
0.00840003
1.42042e-14
0.00840003
2.18559e-13
0.00840003
-4.08116e-14
0.00840003
1.42047e-12
0.00840003
-6.73582e-13
0.00840003
8.43865e-12
0.00840003
-5.28686e-12
0.00840003
4.56286e-11
0.00840004
-3.38568e-11
0.00840003
2.25605e-10
0.00840005
-1.09595e-10
0.00840001
9.18294e-10
0.00840007
1.69723e-10
0.00839999
2.29341e-09
0.00839998
6.3897e-09
0.00840016
-3.90725e-09
0.00839903
6.30239e-08
-6.75019e-08
0.00840137
0.00840003
0.00840003
0.00840003
0.00840003
0.00840003
0.00840003
0.00840003
0.00840003
0.00840003
0.00840003
0.00840003
0.00840003
0.00840003
0.00840003
0.00840003
0.00840003
0.00840004
0.00840002
0.00840008
0.00839992
0.0084003
0.00839942
0.0084015
0.00839688
0.00840602
0.00479944
0.00407005
0.00315018
0.00164325
0.00232217
0.000797286
0.00191415
0.000372157
0.00170083
0.000132457
0.000908249
0.000628615
3.00669e-05
0.000792779
-0.000589923
0.000617225
-0.00108493
0.000487313
-0.00148258
0.000407093
-0.00179901
0.000333542
-0.00203724
0.000249936
-0.00221341
0.000179953
-0.00232826
0.000123113
-0.00241163
9.41775e-05
-0.00248957
8.80619e-05
-0.00257742
9.7945e-05
-0.00266979
0.000102214
-0.00275844
9.56633e-05
-0.00283927
8.82523e-05
-0.00291274
7.95689e-05
-0.00297308
6.5915e-05
-0.00301788
5.11911e-05
-0.00306755
5.32513e-05
-0.00311604
5.2278e-05
-0.00315174
3.93672e-05
-0.00316991
2.06663e-05
-0.00316788
-8.90997e-07
-0.00313873
-2.93321e-05
-0.00306695
-7.33445e-05
-0.00294761
-0.000121345
-0.00278491
-0.000165287
-0.00258458
-0.000202733
-0.002351
-0.000235568
-0.00209747
-0.000255241
-0.00183325
-0.000265518
-0.00156507
-0.000269438
-0.00129347
-0.000272415
-0.00101607
-0.000277975
-0.000739713
-0.00027688
-0.000466228
-0.000273861
-0.000189351
-0.000277233
9.07378e-05
-0.000280293
0.000352062
-0.000261547
0.000598334
-0.000246519
0.000834559
-0.000236576
0.00106144
-0.00022729
0.00127827
-0.000217367
0.00148416
-0.000206417
0.00168155
-0.00019801
0.00187546
-0.000194643
0.00206317
-0.000188511
0.00224268
-0.000180315
0.00241255
-0.000170709
0.00257404
-0.000162304
0.00272697
-0.000153734
0.00287234
-0.000146177
0.00300981
-0.000138233
0.00314033
-0.000131156
0.00326358
-0.000123779
0.00338023
-0.000117145
0.00349013
-0.000110337
0.00359395
-0.000104217
0.00369151
-9.80112e-05
0.0037834
-9.24326e-05
0.00386953
-8.68423e-05
0.00395045
-8.1821e-05