/*--------------------------------*- C++ -*----------------------------------*\
  =========                 |
  \\      /  F ield         | OpenFOAM: The Open Source CFD Toolbox
   \\    /   O peration     | Website:  https://openfoam.org
    \\  /    A nd           | Version:  13
     \\/     M anipulation  |
\*---------------------------------------------------------------------------*/
FoamFile
{
    format      ascii;
    class       volScalarField;
    location    "5";
    object      rho;
}
// * * * * * * * * * * * * * * * * * * * * * * * * * * * * * * * * * * * * * //

dimensions      [1 -3 0 0 0 0 0];

internalField   nonuniform List<scalar> 
5250
(
1.40001
1.40002
1.40006
1.40016
1.40037
1.40097
1.4022
1.40591
1.41325
1.43447
1.4785
1.58444
1.80152
2.28387
4.23553
5.92598
5.76018
5.64721
5.66592
5.74738
5.83671
5.88862
5.9292
5.96066
5.98666
1.40001
1.40002
1.40006
1.40015
1.40039
1.40088
1.40237
1.40529
1.41416
1.43205
1.47977
1.57939
1.7979
2.26867
4.18268
5.93347
5.76167
5.64451
5.66368
5.74575
5.83518
5.88731
5.92868
5.9609
5.9878
1.40001
1.40002
1.40006
1.40013
1.40039
1.40082
1.40235
1.405
1.41387
1.4307
1.47762
1.57347
1.7867
2.23917
4.06431
5.95031
5.76473
5.636
5.65487
5.73553
5.82413
5.87605
5.91654
5.94919
5.97634
1.40001
1.40002
1.40005
1.40015
1.40033
1.40088
1.402
1.40524
1.41218
1.43078
1.47155
1.56768
1.76758
2.19701
3.88068
5.97675
5.77122
5.62245
5.63851
5.71766
5.80429
5.85321
5.89406
5.92482
5.95241
1.40001
1.40002
1.40005
1.40013
1.40031
1.40082
1.40184
1.40497
1.41109
1.42914
1.46613
1.55757
1.74474
2.14392
3.63773
6.00751
5.78256
5.60619
5.61848
5.69045
5.77691
5.82318
5.86012
5.89076
5.91925
1.40001
1.40002
1.40005
1.40012
1.4003
1.40069
1.40185
1.40413
1.41109
1.425
1.46304
1.54262
1.72084
2.08418
3.34672
6.023
5.79667
5.58962
5.59562
5.65769
5.73849
5.78186
5.81447
5.84184
5.87224
1.40001
1.40002
1.40005
1.4001
1.40029
1.40061
1.40171
1.40373
1.41006
1.42275
1.45734
1.53019
1.69458
2.0282
3.06718
5.97545
5.78873
5.56633
5.566
5.61604
5.69016
5.72523
5.75101
5.77201
5.80303
1.40001
1.40002
1.40004
1.40011
1.40023
1.40064
1.40138
1.40376
1.40842
1.42204
1.45041
1.52172
1.6692
1.98085
2.87219
5.78245
5.71476
5.52894
5.52483
5.55855
5.62396
5.64997
5.66377
5.67277
5.69952
1.40001
1.40001
1.40004
1.40008
1.40024
1.4005
1.40143
1.40302
1.40845
1.41851
1.44812
1.50837
1.64931
1.93445
2.69793
5.47396
5.58608
5.50418
5.47656
5.48807
5.53765
5.54983
5.54493
5.52832
5.53113
1.40001
1.40002
1.40003
1.40009
1.40018
1.40052
1.4011
1.4031
1.4067
1.41823
1.44071
1.50095
1.62336
1.89
2.53561
5.08508
5.51808
5.46823
5.4099
5.41112
5.43179
5.42399
5.39266
5.31994
5.26026
1.40001
1.40001
1.40003
1.40008
1.40017
1.40044
1.40103
1.40258
1.40628
1.41532
1.43719
1.48801
1.60081
1.83892
2.38403
4.62015
5.47784
5.43692
5.34002
5.32385
5.3142
5.28085
5.18687
4.96136
4.30291
1.40001
1.40001
1.40003
1.40007
1.40015
1.40038
1.40085
1.40232
1.40509
1.41382
1.43087
1.47753
1.57353
1.78594
2.23735
4.07493
5.46103
5.41206
5.28362
5.23407
5.20026
5.12822
4.97209
4.64776
3.9384
1.40001
1.40001
1.40002
1.40006
1.40012
1.40033
1.40069
1.40196
1.40421
1.41152
1.42572
1.46501
1.54625
1.72868
2.09848
3.46672
5.4529
5.39977
5.2492
5.15148
5.08951
4.9838
4.78179
4.43842
3.86477
1.40001
1.40001
1.40002
1.40005
1.4001
1.40026
1.40058
1.40154
1.40353
1.40906
1.42124
1.4522
1.52008
1.67121
1.97499
2.84949
5.36331
5.3521
5.2416
5.08895
4.98861
4.86123
4.64394
4.31866
3.87155
1.40001
1.40001
1.40002
1.40004
1.40008
1.40022
1.40047
1.40125
1.40289
1.40739
1.41738
1.44288
1.49943
1.62688
1.88921
2.53818
4.96539
5.25273
5.18727
5.02997
4.90294
4.75641
4.5538
4.24766
3.88111
1.40001
1.40001
1.40001
1.40003
1.40007
1.40017
1.40039
1.40099
1.40239
1.40584
1.41433
1.43436
1.48192
1.58699
1.80918
2.29923
4.27508
5.14198
5.10785
4.98656
4.83307
4.6729
4.48093
4.2068
3.88434
1.40001
1.40001
1.40001
1.40003
1.40006
1.40013
1.40031
1.4008
1.4018
1.40482
1.41073
1.42813
1.46358
1.55154
1.73075
2.10513
3.53149
5.09335
5.06984
4.96862
4.78444
4.60961
4.42187
4.17589
3.88721
1.40001
1.40001
1.40001
1.40002
1.40004
1.40011
1.40023
1.40063
1.40133
1.40372
1.40793
1.42157
1.44754
1.51671
1.6555
1.9403
2.72486
4.95579
5.05296
4.96864
4.77433
4.57183
4.37988
4.1524
3.89248
1.40001
1.40001
1.40001
1.40002
1.40003
1.40008
1.40018
1.40046
1.40107
1.40267
1.40648
1.41566
1.43791
1.48908
1.6027
1.83829
2.38163
4.45474
4.96362
4.91244
4.762
4.54739
4.35015
4.1367
3.89808
1.40001
1.40001
1.40001
1.40001
1.40003
1.40006
1.40013
1.40036
1.40076
1.40214
1.40452
1.41252
1.42737
1.4697
1.55472
1.74619
2.12931
3.65162
4.86963
4.84785
4.7503
4.53981
4.33289
4.12705
3.90668
1.40001
1.40001
1.40001
1.40001
1.40002
1.40004
1.40011
1.40023
1.40064
1.40134
1.40375
1.408
1.42161
1.44771
1.51663
1.65494
1.93074
2.72807
4.70253
4.82692
4.75314
4.56672
4.33573
4.12709
3.92054
1.40001
1.40001
1.40001
1.40001
1.40002
1.40003
1.40008
1.40017
1.40046
1.40097
1.40272
1.40573
1.41579
1.43443
1.48636
1.59026
1.81461
2.30888
4.17584
4.75259
4.71204
4.58474
4.35413
4.1394
3.93787
1.40001
1.40001
1.40001
1.40001
1.40001
1.40003
1.40005
1.40013
1.40031
1.40073
1.40185
1.40426
1.41095
1.42512
1.46197
1.54025
1.71216
2.04609
3.31294
4.63345
4.63942
4.57354
4.39337
4.16834
3.96204
1.40001
1.40001
1.40001
1.40001
1.40001
1.40002
1.40004
1.4001
1.4002
1.40054
1.40119
1.4031
1.40711
1.41789
1.44162
1.49876
1.62034
1.85441
2.45487
4.32584
4.62249
4.5707
4.43023
4.20624
3.99224
1.40001
1.40001
1.40001
1.40001
1.40001
1.40002
1.40003
1.40007
1.40014
1.40037
1.4008
1.40221
1.40467
1.41282
1.4279
1.47064
1.55592
1.74432
2.11748
3.57756
4.53799
4.52179
4.45118
4.26824
4.03442
1.40001
1.40001
1.40001
1.40001
1.40001
1.40001
1.40002
1.40004
1.4001
1.40023
1.40057
1.40139
1.40325
1.40824
1.41883
1.44691
1.50566
1.63952
1.87822
2.5752
4.30675
4.51425
4.46225
4.33041
4.09656
1.40001
1.40001
1.40001
1.40001
1.40001
1.40001
1.40002
1.40003
1.40007
1.40017
1.40035
1.40098
1.40207
1.40565
1.41228
1.43208
1.47115
1.56813
1.75351
2.15603
3.66992
4.43818
4.42495
4.35619
4.18549
1.40001
1.40001
1.40001
1.40001
1.40001
1.40001
1.40001
1.40002
1.40004
1.40011
1.40023
1.40063
1.40137
1.4036
1.40813
1.42062
1.4471
1.51185
1.6449
1.89319
2.66963
4.20871
4.40713
4.36462
4.24958
1.40001
1.40001
1.40001
1.40001
1.40001
1.40001
1.40001
1.40002
1.40003
1.40007
1.40016
1.40039
1.40094
1.4022
1.40553
1.41269
1.43168
1.4721
1.56695
1.74929
2.14814
3.60538
4.32623
4.32368
4.27002
1.40001
1.40001
1.40001
1.40001
1.40001
1.40001
1.40001
1.40001
1.40002
1.40005
1.4001
1.40026
1.40055
1.40149
1.4032
1.40857
1.41879
1.44775
1.50542
1.63901
1.86911
2.59572
4.07607
4.30454
4.27343
1.40001
1.40001
1.40001
1.40001
1.40001
1.40001
1.40001
1.40001
1.40002
1.40003
1.40007
1.40015
1.40037
1.40089
1.40206
1.40527
1.41185
1.43011
1.46739
1.55784
1.72771
2.09531
3.43571
4.21093
4.24176
1.40001
1.40001
1.40001
1.40001
1.40001
1.40001
1.40001
1.40001
1.40001
1.40002
1.40004
1.4001
1.40021
1.40056
1.40124
1.40318
1.40724
1.41798
1.44146
1.49729
1.61324
1.81886
2.38214
3.92772
4.22092
1.40001
1.40001
1.40001
1.40001
1.40001
1.40001
1.40001
1.40001
1.40001
1.40001
1.40003
1.40006
1.40014
1.40034
1.40075
1.402
1.40428
1.41151
1.42487
1.46285
1.53724
1.69958
2.01019
3.18368
4.08056
1.40001
1.40001
1.40001
1.40001
1.40001
1.40001
1.40001
1.40001
1.40001
1.40001
1.40002
1.40004
1.40009
1.40019
1.40048
1.40111
1.40271
1.4065
1.41532
1.43685
1.48435
1.58933
1.7739
2.24543
3.7013
1.40001
1.40001
1.40001
1.40001
1.40001
1.40001
1.40001
1.40001
1.40001
1.40001
1.40001
1.40002
1.40006
1.40011
1.4003
1.40063
1.40171
1.40364
1.40968
1.4211
1.45329
1.51635
1.65789
1.90925
2.80582
1.40001
1.40001
1.40001
1.40001
1.40001
1.40001
1.40001
1.40001
1.40001
1.40001
1.40001
1.40002
1.40003
1.40007
1.40016
1.40041
1.4009
1.40236
1.40509
1.41346
1.42929
1.47237
1.55752
1.72477
2.09604
1.40001
1.40001
1.40001
1.40001
1.40001
1.40001
1.40001
1.40001
1.40001
1.40001
1.40001
1.40001
1.40002
1.40004
1.4001
1.40022
1.40056
1.40122
1.40324
1.40686
1.41819
1.43916
1.49545
1.60132
1.79495
1.40001
1.40001
1.40001
1.40001
1.40001
1.40001
1.40001
1.40001
1.40001
1.40001
1.40001
1.40001
1.40001
1.40003
1.40006
1.40014
1.40029
1.40077
1.40169
1.4043
1.4098
1.42394
1.45505
1.52616
1.66568
1.40001
1.40001
1.40001
1.40001
1.40001
1.40001
1.40001
1.40001
1.40001
1.40001
1.40001
1.40001
1.40001
1.40002
1.40004
1.40007
1.40018
1.40041
1.40099
1.40236
1.40552
1.41351
1.43091
1.47315
1.561
1.40001
1.40001
1.40001
1.40001
1.40001
1.40001
1.40001
1.40001
1.40001
1.40001
1.40001
1.40001
1.40001
1.40001
1.40002
1.40004
1.4001
1.40022
1.40058
1.40122
1.40327
1.4069
1.41818
1.43901
1.49492
1.40001
1.40001
1.40001
1.40001
1.40001
1.40001
1.40001
1.40001
1.40001
1.40001
1.40001
1.40001
1.40001
1.40001
1.40001
1.40003
1.40006
1.40014
1.40029
1.40078
1.40162
1.40435
1.40922
1.424
1.452
1.40001
1.40001
1.40001
1.40001
1.40001
1.40001
1.40001
1.40001
1.40001
1.40001
1.40001
1.40001
1.40001
1.40001
1.40001
1.40002
1.40004
1.40007
1.40018
1.4004
1.40099
1.40229
1.40544
1.41306
1.43013
1.40001
1.40001
1.40001
1.40001
1.40001
1.40001
1.40001
1.40001
1.40001
1.40001
1.40001
1.40001
1.40001
1.40001
1.40001
1.40001
1.40002
1.40005
1.40011
1.40023
1.4006
1.40127
1.40339
1.40716
1.4188
1.40001
1.40001
1.40001
1.40001
1.40001
1.40001
1.40001
1.40001
1.40001
1.40001
1.40001
1.40001
1.40001
1.40001
1.40001
1.40001
1.40002
1.40004
1.40007
1.40017
1.40037
1.40096
1.40216
1.40544
1.41255
1.40001
1.40001
1.40001
1.40001
1.40001
1.40001
1.40001
1.40001
1.40001
1.40001
1.40001
1.40001
1.40001
1.40001
1.40001
1.40001
1.40001
1.40003
1.40006
1.40014
1.4003
1.40081
1.40172
1.40475
1.41018
1.40001
1.40001
1.40001
1.40001
1.40001
1.40001
1.40001
1.40001
1.40001
1.40001
1.40001
1.40001
1.40001
1.40001
1.40001
1.40001
1.40001
1.40002
1.40005
1.40012
1.40028
1.40072
1.40164
1.40432
1.40976
1.40001
1.40001
1.40001
1.40001
1.40001
1.40001
1.40001
1.40001
1.40001
1.40001
1.40001
1.40001
1.40001
1.40001
1.40001
1.40001
1.40001
1.40002
1.40005
1.40011
1.4003
1.40063
1.40175
1.40383
1.41031
1.40001
1.40001
1.40001
1.40001
1.40001
1.40001
1.40001
1.40001
1.40001
1.40001
1.40001
1.40001
1.40001
1.40001
1.40001
1.40001
1.40001
1.40002
1.40005
1.40012
1.40026
1.40071
1.40153
1.40427
1.40926
1.40001
1.40001
1.40001
1.40001
1.40001
1.40001
1.40001
1.40001
1.40001
1.40001
1.40001
1.40001
1.40001
1.40001
1.40001
1.40001
1.40001
1.40002
1.40005
1.40012
1.40026
1.40071
1.4015
1.40426
1.40917
1.40001
1.40001
1.40001
1.40001
1.40001
1.40001
1.40001
1.40001
1.40001
1.40001
1.40001
1.40001
1.40001
1.40001
1.40001
1.40001
1.40001
1.40002
1.40005
1.40012
1.40027
1.40067
1.40162
1.40396
1.40984
1.90568
1.05627
0.801766
0.790648
0.9093
1.22093
1.42336
1.46036
1.51263
1.54639
1.55287
1.54878
1.54685
1.55058
1.54842
1.54158
1.53288
1.52014
1.50829
1.49652
1.48289
1.47059
1.45402
1.44372
1.44131
1.44147
1.44359
1.45797
1.48468
1.52585
1.57669
1.63346
1.69288
1.75153
1.80749
1.85851
1.9039
1.94577
1.98197
2.01569
2.04515
2.07062
2.09355
2.11315
2.12963
2.14119
2.15145
2.15695
2.16229
2.16375
2.16597
2.16163
2.15966
2.15226
2.14769
2.13741
2.13044
2.11775
2.1087
2.09444
2.08369
2.06808
2.056
2.03941
2.02627
2.00895
1.99503
1.97727
1.96279
1.94487
1.93008
1.91238
1.89749
1.88036
1.86555
1.84944
1.83504
1.82054
1.80709
1.7946
1.78301
1.77289
1.76415
1.75706
1.75189
1.7491
1.7496
1.75054
1.7524
1.75605
1.76235
1.77146
1.77962
1.79001
1.79783
1.80658
1.81214
1.81664
1.81921
1.82402
2.3519
1.56812
1.21945
1.19202
1.21263
1.30183
1.51092
1.54073
1.53408
1.53114
1.52567
1.52051
1.51591
1.50981
1.50247
1.49085
1.47348
1.45901
1.45035
1.43618
1.42259
1.41151
1.39639
1.38468
1.38048
1.37936
1.38015
1.39242
1.4183
1.46068
1.51504
1.57581
1.64096
1.70614
1.77003
1.82818
1.88203
1.93124
1.97881
2.02111
2.06143
2.09364
2.12467
2.14975
2.17292
2.1895
2.20486
2.21514
2.22415
2.22986
2.23538
2.23471
2.23426
2.23027
2.22698
2.21988
2.21358
2.20359
2.19486
2.18268
2.17195
2.15815
2.14585
2.13075
2.11733
2.10117
2.08702
2.07014
2.05547
2.03816
2.02318
2.00588
1.99081
1.97403
1.95907
1.94339
1.92889
1.91478
1.90141
1.88923
1.87798
1.86816
1.85987
1.85326
1.84864
1.84651
1.84775
1.84969
1.85247
1.85684
1.86423
1.87375
1.88293
1.8938
1.90281
1.91182
1.91852
1.92312
1.92666
1.93294
2.87511
2.15284
1.7098
1.4357
1.40013
1.41051
1.49428
1.65501
1.65196
1.60983
1.59023
1.57129
1.55384
1.53542
1.51507
1.49231
1.47038
1.44874
1.42996
1.41302
1.39624
1.37691
1.35556
1.33853
1.33188
1.33115
1.3326
1.34413
1.36945
1.41136
1.46949
1.53814
1.61001
1.68488
1.75865
1.82905
1.89359
1.95134
2.00511
2.05261
2.09442
2.13091
2.16361
2.19174
2.21682
2.23646
2.25399
2.26644
2.2772
2.28494
2.29233
2.29412
2.29409
2.291
2.28846
2.2823
2.27636
2.26709
2.25825
2.24649
2.23541
2.22161
2.2089
2.19352
2.17958
2.16303
2.14811
2.13075
2.1151
2.09736
2.08126
2.06365
2.04741
2.03039
2.01438
1.99837
1.9831
1.96856
1.95478
1.94216
1.93073
1.92073
1.91243
1.90592
1.90139
1.89933
1.90059
1.90254
1.90548
1.90973
1.91671
1.92524
1.93369
1.94313
1.95149
1.95928
1.96556
1.96962
1.97296
1.97999
3.17091
2.54027
2.05693
1.73328
1.56955
1.5551
1.57604
1.67909
1.76926
1.76194
1.72429
1.67968
1.64294
1.61683
1.58598
1.55105
1.51904
1.48825
1.45676
1.42864
1.40383
1.37942
1.35603
1.33821
1.32681
1.32036
1.32058
1.32893
1.35274
1.40039
1.46702
1.54205
1.62403
1.70592
1.78698
1.8592
1.92625
1.98579
2.04172
2.09046
2.13559
2.17393
2.20989
2.23976
2.26734
2.28896
2.30831
2.32225
2.33398
2.34263
2.35104
2.35448
2.35442
2.35149
2.3491
2.34381
2.33833
2.32979
2.32131
2.30997
2.29915
2.28564
2.27301
2.25792
2.24384
2.22762
2.21242
2.19544
2.17944
2.16205
2.1456
2.12818
2.11162
2.09461
2.07834
2.06226
2.04691
2.03231
2.01868
2.00621
1.99508
1.98553
1.97768
1.97168
1.96772
1.96591
1.96722
1.96919
1.972
1.97608
1.98207
1.98867
1.99585
2.00274
2.00943
2.01517
2.02002
2.02327
2.02646
2.03371
3.34685
2.81199
2.35276
2.01882
1.77329
1.69799
1.68919
1.71343
1.82346
1.86801
1.85393
1.81747
1.77484
1.73066
1.68541
1.64405
1.60992
1.56937
1.52679
1.49071
1.45889
1.42576
1.39725
1.37599
1.36015
1.351
1.35071
1.36071
1.38939
1.44051
1.50628
1.58353
1.66305
1.74633
1.82708
1.90223
1.97209
2.03515
2.0935
2.14562
2.1928
2.23402
2.27083
2.30241
2.33027
2.35292
2.37247
2.38706
2.39884
2.40757
2.41574
2.41985
2.41967
2.41571
2.41181
2.40548
2.39903
2.38951
2.38022
2.36796
2.35634
2.34202
2.32856
2.31271
2.29782
2.28098
2.26498
2.24764
2.23087
2.2134
2.19621
2.17904
2.16187
2.14534
2.12885
2.11335
2.09832
2.08439
2.07143
2.0598
2.04961
2.04091
2.03413
2.0289
2.02581
2.02424
2.02565
2.02726
2.02969
2.03287
2.03708
2.0411
2.04548
2.04895
2.05241
2.05454
2.05702
2.05811
2.06057
2.06618
3.46108
3.00756
2.59801
2.25815
2.00698
1.82583
1.79658
1.78808
1.81849
1.92658
1.95503
1.92984
1.88979
1.85511
1.80797
1.75598
1.71114
1.6659
1.62239
1.58588
1.54426
1.50344
1.47583
1.45464
1.43077
1.42361
1.42335
1.43925
1.47462
1.52229
1.58251
1.65114
1.72684
1.80167
1.87998
1.95577
2.02781
2.0927
2.15275
2.20528
2.25362
2.29472
2.33238
2.36353
2.39186
2.41404
2.4338
2.44776
2.45957
2.46717
2.47522
2.479
2.48045
2.47563
2.47131
2.46406
2.45754
2.44753
2.43818
2.42534
2.41328
2.39842
2.38417
2.36797
2.35216
2.33505
2.31821
2.30063
2.28308
2.26536
2.24747
2.22991
2.21228
2.1953
2.17865
2.16294
2.1479
2.13419
2.12161
2.11053
2.10125
2.09335
2.08772
2.08322
2.08114
2.07966
2.08073
2.08172
2.08373
2.08476
2.08675
2.08746
2.08877
2.08771
2.08762
2.08563
2.0851
2.08334
2.08481
2.0881
3.53798
3.15374
2.7876
2.46908
2.20443
2.00714
1.88611
1.87102
1.86567
1.89755
2.0041
2.02407
1.99062
1.95679
1.92099
1.87128
1.8233
1.77411
1.72239
1.68354
1.64325
1.60553
1.57486
1.54922
1.53081
1.52768
1.52978
1.55924
1.59827
1.6404
1.68911
1.74388
1.80337
1.86268
1.92832
2.00009
2.07316
2.14175
2.20437
2.25929
2.30843
2.35042
2.38819
2.41955
2.44757
2.46974
2.48913
2.50302
2.5145
2.52143
2.52875
2.53243
2.53462
2.52984
2.52462
2.5164
2.50868
2.49824
2.48785
2.47501
2.46196
2.44699
2.43176
2.41534
2.39857
2.38128
2.36356
2.34577
2.32774
2.30979
2.29199
2.27429
2.25704
2.24022
2.22414
2.2089
2.19485
2.18182
2.17059
2.16046
2.1525
2.1457
2.14108
2.13739
2.13555
2.13402
2.13384
2.13328
2.13321
2.13145
2.13003
2.12636
2.12298
2.11744
2.11275
2.10653
2.10221
2.09703
2.09504
2.09712
3.59102
3.26332
2.93601
2.64105
2.38031
2.17432
2.01398
1.94346
1.93316
1.93507
1.96876
2.06156
2.07332
2.0449
2.0155
1.97541
1.92852
1.87957
1.82941
1.78388
1.74245
1.7063
1.6789
1.66287
1.64658
1.64487
1.66821
1.71989
1.76096
1.79378
1.82836
1.86167
1.89667
1.93665
1.98182
2.03332
2.10377
2.17639
2.2454
2.30572
2.35812
2.40167
2.44022
2.47148
2.49953
2.52131
2.54042
2.55389
2.56518
2.57086
2.5773
2.58044
2.58273
2.57867
2.5723
2.56329
2.55393
2.543
2.53136
2.51841
2.50447
2.4895
2.47357
2.45699
2.43967
2.42203
2.40401
2.38582
2.36763
2.34942
2.33146
2.31384
2.29669
2.28024
2.26473
2.25008
2.23704
2.22515
2.21536
2.20684
2.20051
2.19523
2.19187
2.18897
2.18747
2.18553
2.18424
2.18155
2.17906
2.17406
2.16906
2.16135
2.15358
2.14418
2.13556
2.12592
2.11795
2.11
2.10386
2.10559
3.63379
3.34132
3.05548
2.77753
2.53412
2.32044
2.15513
2.02705
1.98854
1.98252
1.98811
2.03587
2.10781
2.11161
2.08972
2.05907
2.0248
1.97714
1.9276
1.88316
1.84255
1.81375
1.78797
1.77262
1.7656
1.78513
1.85085
1.91708
1.95086
1.97087
1.99157
2.00321
2.00014
2.01963
2.04512
2.07629
2.12109
2.18413
2.25505
2.32296
2.38136
2.43084
2.47109
2.50379
2.53138
2.55282
2.57145
2.58472
2.59583
2.60175
2.60697
2.60997
2.61193
2.60988
2.60369
2.59498
2.585
2.57394
2.56163
2.5485
2.53404
2.51882
2.50258
2.48573
2.46844
2.45075
2.43305
2.41522
2.39754
2.38001
2.36281
2.34598
2.32995
2.31466
2.30055
2.28759
2.2763
2.2664
2.25849
2.25194
2.24732
2.24355
2.24122
2.23889
2.2372
2.23433
2.23138
2.22615
2.22027
2.21212
2.20296
2.1912
2.1798
2.16667
2.15487
2.14186
2.13107
2.1201
2.1106
2.11022
3.66658
3.41074
3.14801
2.89643
2.66032
2.45549
2.27671
2.14384
2.04421
2.02664
2.02002
2.03129
2.08727
2.14
2.14616
2.1233
2.09859
2.0651
2.01715
1.97327
1.93529
1.91692
1.89783
1.88983
1.89748
1.95177
2.06735
2.1451
2.16144
2.17616
2.17961
2.14997
2.11568
2.10144
2.1126
2.13275
2.15841
2.19575
2.24908
2.31524
2.38025
2.43766
2.48555
2.52375
2.55397
2.57747
2.59621
2.61012
2.62135
2.6287
2.63285
2.63592
2.63745
2.63688
2.63181
2.6237
2.61373
2.60263
2.59044
2.57713
2.56295
2.54773
2.53177
2.51515
2.49793
2.4805
2.4628
2.44521
2.42784
2.41086
2.39447
2.37881
2.36411
2.35043
2.33804
2.32705
2.31767
2.30988
2.30379
2.299
2.29564
2.29286
2.29093
2.2884
2.28586
2.28141
2.2759
2.26794
2.25862
2.24655
2.23312
2.21808
2.20327
2.18701
2.17215
2.15611
2.14229
2.12852
2.11622
2.11247
3.69706
3.46403
3.22702
2.9924
2.77396
2.57074
2.39606
2.24789
2.13589
2.0674
2.05922
2.05022
2.07083
2.12197
2.17017
2.16932
2.15163
2.13153
2.099
2.05939
2.02728
2.01098
1.99737
2.00742
2.04483
2.17083
2.32186
2.38183
2.39067
2.39081
2.36328
2.29642
2.24046
2.20313
2.18674
2.19225
2.20638
2.22765
2.25678
2.29774
2.35489
2.41441
2.46966
2.51678
2.55414
2.58251
2.60397
2.61987
2.63145
2.63948
2.64385
2.64632
2.64784
2.64781
2.64511
2.63803
2.62863
2.61774
2.6057
2.59277
2.57893
2.56434
2.54905
2.53309
2.51665
2.49989
2.48296
2.46623
2.44976
2.43391
2.41883
2.40487
2.39205
2.38062
2.37067
2.3623
2.35554
2.3502
2.34626
2.34315
2.34103
2.33885
2.33695
2.33377
2.32969
2.32323
2.31505
2.30416
2.2912
2.2756
2.25959
2.24202
2.22478
2.20631
2.18897
2.17098
2.15472
2.13911
2.12447
2.11796
3.72836
3.51266
3.29307
3.07582
2.8696
2.67553
2.50277
2.34976
2.22831
2.12921
2.09017
2.08462
2.08214
2.09908
2.1567
2.19352
2.18879
2.17734
2.15678
2.13429
2.11653
2.10362
2.10223
2.12963
2.21911
2.44666
2.59974
2.61939
2.62128
2.60388
2.53034
2.44082
2.36618
2.31362
2.27809
2.26081
2.25856
2.26863
2.28299
2.30335
2.33251
2.37739
2.43112
2.4837
2.52996
2.56796
2.59683
2.61805
2.6329
2.64296
2.64922
2.65175
2.65343
2.65415
2.65322
2.64894
2.64105
2.63118
2.61998
2.60768
2.59452
2.58053
2.56593
2.55069
2.53512
2.51933
2.50356
2.48814
2.47319
2.45906
2.44609
2.43432
2.42408
2.41541
2.40842
2.40301
2.39905
2.39613
2.39401
2.39217
2.39046
2.38822
2.38513
2.38026
2.37341
2.36417
2.35244
2.33789
2.32148
2.30376
2.28546
2.26593
2.24659
2.22634
2.20706
2.1873
2.16899
2.15134
2.13487
2.12509
3.75985
3.55811
3.35191
3.15278
2.95333
2.77189
2.59858
2.44899
2.31594
2.21283
2.13
2.10712
2.10311
2.10473
2.12452
2.18608
2.2118
2.21093
2.20306
2.19195
2.18459
2.1864
2.21456
2.28571
2.48874
2.7532
2.8533
2.85501
2.8411
2.78727
2.67862
2.57733
2.49479
2.43022
2.38115
2.34646
2.32415
2.31215
2.31655
2.32455
2.3361
2.35583
2.38862
2.43375
2.48213
2.52742
2.56642
2.59683
2.61955
2.63503
2.64497
2.65054
2.65229
2.65353
2.65357
2.65189
2.64636
2.63821
2.62834
2.61731
2.60532
2.5926
2.57931
2.56547
2.55134
2.53701
2.52281
2.50905
2.49599
2.48415
2.47361
2.46465
2.45736
2.45185
2.44793
2.44547
2.44405
2.44318
2.44244
2.44147
2.43996
2.43704
2.43213
2.42458
2.41453
2.4014
2.3858
2.36836
2.34998
2.33038
2.31017
2.28911
2.2681
2.24665
2.22583
2.20489
2.18514
2.16604
2.14827
2.13585
3.79518
3.60249
3.41009
3.2181
3.03442
2.85518
2.69202
2.53808
2.40703
2.28989
2.20296
2.13622
2.12407
2.12068
2.12076
2.15012
2.2053
2.23167
2.23839
2.2397
2.24823
2.27351
2.34627
2.5112
2.84007
3.05296
3.07366
3.06803
3.034
2.93421
2.81207
2.70644
2.6193
2.54737
2.48818
2.44023
2.40206
2.37437
2.3561
2.34859
2.35267
2.35899
2.37021
2.39215
2.4296
2.47313
2.51753
2.55827
2.59068
2.61549
2.63235
2.64295
2.64844
2.65022
2.65138
2.6513
2.64931
2.64355
2.63543
2.62584
2.61513
2.60375
2.59175
2.57953
2.56714
2.55497
2.54307
2.53193
2.52175
2.51297
2.50573
2.50005
2.49629
2.494
2.49292
2.49307
2.49329
2.49348
2.49346
2.49266
2.49072
2.48573
2.47801
2.46677
2.45275
2.43598
2.41814
2.39859
2.37829
2.35679
2.33493
2.31243
2.29001
2.26736
2.2453
2.22326
2.20237
2.18206
2.16327
2.14878
3.83655
3.64901
3.46732
3.28412
3.10745
2.93671
2.77469
2.62615
2.48943
2.37105
2.27158
2.1908
2.14556
2.14086
2.13816
2.1418
2.17408
2.22836
2.25874
2.28088
2.31334
2.37898
2.52071
2.8734
3.18678
3.28373
3.28015
3.25546
3.18027
3.05157
2.93133
2.82788
2.73934
2.66239
2.59555
2.53727
2.4873
2.4458
2.41227
2.38799
2.37358
2.37166
2.37345
2.37933
2.39182
2.41797
2.45798
2.50136
2.5432
2.57887
2.60687
2.62571
2.63765
2.64419
2.64621
2.64768
2.64818
2.64689
2.64162
2.63418
2.62543
2.61559
2.60538
2.59486
2.58465
2.57477
2.56563
2.55746
2.5508
2.54543
2.54195
2.53982
2.54005
2.54069
2.54195
2.54459
2.5452
2.54552
2.54548
2.54374
2.53974
2.53107
2.51906
2.50369
2.48663
2.46757
2.44743
2.42568
2.40339
2.38015
2.35687
2.33314
2.30977
2.28622
2.26341
2.24063
2.219
2.19788
2.17841
2.1622
3.88934
3.70154
3.52329
3.34851
3.176
3.01333
2.85387
2.70925
2.57061
2.45134
2.34209
2.25756
2.18177
2.15825
2.15563
2.15446
2.16766
2.20982
2.2693
2.3227
2.38781
2.52456
2.83681
3.26299
3.46647
3.46674
3.45103
3.40037
3.27672
3.15196
3.04033
2.94114
2.85287
2.77272
2.7003
2.63427
2.57547
2.52345
2.47843
2.44132
2.41314
2.39258
2.38707
2.38255
2.38697
2.39537
2.411
2.4433
2.4832
2.52549
2.56339
2.59393
2.61648
2.63103
2.63949
2.6432
2.64483
2.64557
2.6447
2.64052
2.63447
2.62684
2.61877
2.61071
2.60296
2.59615
2.59006
2.58609
2.58302
2.58198
2.58242
2.58367
2.58639
2.59072
2.5948
2.5967
2.59722
2.59716
2.59581
2.59148
2.58263
2.56929
2.5538
2.53564
2.51625
2.49459
2.47234
2.44853
2.42472
2.39998
2.37564
2.35085
2.32667
2.30241
2.27895
2.25566
2.23349
2.21182
2.19196
2.17454
3.95514
3.76103
3.5807
3.41151
3.24498
3.08309
2.93176
2.78503
2.65201
2.52629
2.41864
2.32045
2.24576
2.18467
2.17613
2.17504
2.18018
2.20873
2.28181
2.36434
2.4894
2.74543
3.25912
3.58544
3.63967
3.62875
3.58956
3.48892
3.36256
3.2465
3.14228
3.04724
2.95915
2.87713
2.8002
2.72889
2.66364
2.60412
2.55181
2.50561
2.46676
2.43527
2.41262
2.40045
2.39379
2.39115
2.39723
2.40799
2.42866
2.46518
2.50446
2.54336
2.57716
2.60348
2.62166
2.63252
2.63897
2.64137
2.64249
2.64282
2.64143
2.63676
2.63176
2.62673
2.62215
2.61899
2.61694
2.61756
2.61854
2.6206
2.62475
2.63086
2.63695
2.64196
2.64511
2.64543
2.64513
2.64344
2.63888
2.62893
2.61541
2.59899
2.58083
2.56016
2.53839
2.51479
2.49073
2.46557
2.44043
2.41475
2.38949
2.36402
2.33929
2.31455
2.29083
2.26721
2.24491
2.22302
2.20309
2.18508
4.02452
3.82174
3.6419
3.47206
3.31199
3.1533
3.00473
2.86002
2.72832
2.60161
2.49113
2.38926
2.30822
2.23332
2.20639
2.20381
2.21018
2.23481
2.305
2.42578
2.64424
3.14606
3.63125
3.78703
3.78034
3.75118
3.67496
3.55508
3.43913
3.33337
3.2353
3.14411
3.05669
2.97398
2.89546
2.82248
2.75391
2.6906
2.63283
2.57988
2.53359
2.49318
2.45947
2.43302
2.41622
2.40515
2.39664
2.39991
2.40657
2.41878
2.44366
2.48014
2.5197
2.55583
2.58573
2.60746
2.62263
2.63122
2.63657
2.64
2.64083
2.64176
2.64206
2.64115
2.64149
2.6422
2.64394
2.64761
2.65422
2.66182
2.66962
2.6782
2.68446
2.68874
2.68871
2.68799
2.68614
2.68091
2.67022
2.65625
2.63963
2.62046
2.5996
2.57693
2.55328
2.52854
2.50335
2.47756
2.45178
2.42572
2.40019
2.37453
2.34986
2.32508
2.30161
2.27806
2.25608
2.23432
2.21472
2.19663
4.12637
3.89896
3.70834
3.53695
3.37739
3.22347
3.07646
2.93467
2.80268
2.67865
2.56331
2.46077
2.37229
2.29674
2.25308
2.24928
2.25572
2.28626
2.36187
2.53832
2.9132
3.55177
3.86688
3.88277
3.86933
3.8284
3.72465
3.61565
3.51216
3.41676
3.32536
3.23816
3.15357
3.07278
2.99471
2.92091
2.84976
2.78388
2.7208
2.66371
2.60994
2.56241
2.51946
2.48301
2.45204
2.42977
2.41366
2.40213
2.39471
2.39949
2.40754
2.42301
2.45551
2.49097
2.52808
2.56101
2.58773
2.60771
2.62065
2.63057
2.63714
2.64286
2.64818
2.65312
2.65829
2.66506
2.67253
2.68114
2.69123
2.70229
2.71307
2.72137
2.72746
2.72763
2.72707
2.72518
2.72005
2.70922
2.69559
2.67831
2.65916
2.63729
2.61458
2.58987
2.56515
2.53898
2.51333
2.48664
2.46081
2.43434
2.40895
2.3833
2.35884
2.33438
2.31124
2.28829
2.26677
2.24571
2.22656
2.20902
4.18423
3.97994
3.77868
3.60449
3.44407
3.29274
3.14686
3.0095
2.87398
2.75414
2.63625
2.53306
2.4432
2.36271
2.33162
2.32888
2.341
2.38791
2.49559
2.74794
3.33741
3.81378
3.96837
3.96426
3.94277
3.88813
3.79606
3.7004
3.60872
3.5192
3.43348
3.34829
3.26633
3.18487
3.10707
3.0304
2.95738
2.88584
2.8181
2.75348
2.69389
2.6383
2.58772
2.54187
2.50123
2.46621
2.43761
2.41845
2.40168
2.38903
2.39047
2.39539
2.40505
2.42564
2.4591
2.49719
2.53418
2.56602
2.5921
2.61235
2.62832
2.64181
2.65409
2.66605
2.678
2.69033
2.70359
2.71713
2.73106
2.74296
2.75472
2.76168
2.76215
2.76212
2.76067
2.75507
2.74486
2.73079
2.7138
2.69392
2.67243
2.64891
2.62458
2.59891
2.57305
2.54646
2.52011
2.49341
2.46728
2.44106
2.41579
2.39059
2.36662
2.34272
2.32013
2.29762
2.27661
2.25591
2.2373
2.22014
4.1998
4.085
3.86646
3.6792
3.51326
3.36423
3.21612
3.08363
2.94816
2.82754
2.71193
2.60679
2.52118
2.44279
2.43619
2.43943
2.46874
2.55367
2.73668
3.18794
3.63934
3.90765
4.01313
4.01361
4.00192
3.96936
3.89714
3.8087
3.72087
3.63432
3.54916
3.46361
3.37907
3.29521
3.21398
3.13321
3.05563
2.97945
2.90708
2.83786
2.77336
2.71231
2.65656
2.60336
2.55573
2.51147
2.47372
2.44106
2.41812
2.39812
2.38438
2.37698
2.38022
2.38724
2.40158
2.4327
2.46942
2.5093
2.54746
2.58168
2.61093
2.63633
2.65851
2.6792
2.69854
2.7178
2.73602
2.75356
2.76856
2.78285
2.79031
2.79211
2.79243
2.79087
2.78596
2.77576
2.76158
2.74382
2.72404
2.70192
2.67878
2.6539
2.62884
2.60254
2.57664
2.54989
2.52394
2.4975
2.47222
2.44665
2.42234
2.39779
2.37457
2.35127
2.32935
2.3076
2.28734
2.2677
2.24988
2.23425
4.19935
4.13152
3.96613
3.76503
3.58672
3.43703
3.28753
3.15584
3.02348
2.9028
2.78923
2.6891
2.60371
2.56778
2.56485
2.58406
2.64998
2.8063
3.1944
3.54986
3.78712
3.93571
4.01855
4.03435
4.03196
4.01802
3.98021
3.90654
3.82532
3.74185
3.65576
3.56888
3.48145
3.39676
3.31262
3.2314
3.15091
3.07297
2.99696
2.92475
2.85492
2.78982
2.72689
2.66878
2.61382
2.56363
2.51822
2.47771
2.44352
2.41566
2.39523
2.37786
2.36701
2.36883
2.37385
2.38457
2.40694
2.44423
2.48865
2.535
2.57985
2.62056
2.65686
2.68907
2.71793
2.74364
2.76665
2.78641
2.8025
2.81253
2.81702
2.81771
2.8165
2.81241
2.80368
2.78923
2.77184
2.75193
2.73061
2.70725
2.68335
2.65792
2.63258
2.60603
2.58011
2.55353
2.52803
2.50219
2.47748
2.45256
2.42879
2.40492
2.38229
2.35967
2.3385
2.31753
2.29826
2.27977
2.26307
2.24936
4.1743
4.14158
4.05102
3.85501
3.66642
3.51056
3.3616
3.22735
3.09875
2.97968
2.87227
2.77831
2.72425
2.71768
2.73101
2.78733
2.9301
3.28979
3.60368
3.77355
3.8596
3.92911
3.98691
4.0271
4.03998
4.03879
4.02759
3.99643
3.93018
3.84926
3.76044
3.67052
3.5805
3.49335
3.4075
3.32338
3.24057
3.15982
3.08098
3.00542
2.93245
2.86294
2.79684
2.73392
2.67501
2.61975
2.56839
2.52208
2.47956
2.44372
2.41264
2.39099
2.37272
2.36167
2.36284
2.36674
2.37589
2.39489
2.43074
2.48125
2.53693
2.59337
2.6463
2.6942
2.73499
2.76844
2.79623
2.81537
2.83103
2.83868
2.83899
2.83791
2.83472
2.82624
2.81224
2.7947
2.77555
2.75404
2.73161
2.70738
2.68314
2.65733
2.63203
2.60571
2.58055
2.5547
2.53012
2.505
2.48115
2.4569
2.43396
2.41086
2.38914
2.36755
2.34743
2.32786
2.30991
2.29336
2.27816
2.26736
4.12351
4.11751
4.07393
3.96163
3.76173
3.59092
3.43892
3.30276
3.17604
3.06259
2.96415
2.89998
2.89006
2.90041
2.95198
3.09406
3.4488
3.74422
3.86809
3.9066
3.91359
3.92582
3.94941
3.99232
4.03387
4.05496
4.05531
4.04593
4.01666
3.95211
3.86457
3.77081
3.67754
3.58635
3.49759
3.41105
3.32702
3.244
3.16457
3.08553
3.0106
2.93692
2.86689
2.80017
2.73645
2.67743
2.62182
2.57049
2.52409
2.48112
2.44506
2.41313
2.38977
2.37352
2.36605
2.36802
2.37334
2.38365
2.40327
2.4409
2.4895
2.55085
2.61535
2.67652
2.73147
2.7757
2.80943
2.83329
2.8489
2.85073
2.85069
2.84913
2.8427
2.82896
2.81282
2.79441
2.77451
2.7525
2.73005
2.706
2.68198
2.65653
2.6319
2.60631
2.58199
2.55687
2.53305
2.5086
2.48538
2.46185
2.43956
2.41733
2.39648
2.37601
2.35719
2.33915
2.323
2.3088
2.2956
2.28798
3.90405
4.08987
4.07306
4.01189
3.86073
3.6779
3.51971
3.38228
3.26073
3.1566
3.08822
3.07651
3.08637
3.14104
3.28982
3.65671
3.93883
4.02446
4.02787
4.01273
3.96776
3.93786
3.94317
3.96105
3.99841
4.05157
4.0729
4.07257
4.06236
4.02954
3.96037
3.87022
3.77445
3.67985
3.58647
3.49669
3.40946
3.32465
3.24238
3.16203
3.0839
3.00846
2.93509
2.86596
2.79896
2.7372
2.67807
2.6236
2.5731
2.52624
2.48515
2.44844
2.41875
2.39675
2.3806
2.38323
2.38596
2.39347
2.40789
2.43384
2.47293