/*--------------------------------*- C++ -*----------------------------------*\
  =========                 |
  \\      /  F ield         | OpenFOAM: The Open Source CFD Toolbox
   \\    /   O peration     | Website:  https://openfoam.org
    \\  /    A nd           | Version:  13
     \\/     M anipulation  |
\*---------------------------------------------------------------------------*/
FoamFile
{
    format      ascii;
    class       volScalarField;
    location    "5";
    object      T;
}
// * * * * * * * * * * * * * * * * * * * * * * * * * * * * * * * * * * * * * //

dimensions      [0 0 0 1 0 0 0];

internalField   nonuniform List<scalar> 
5250
(
1
1.00001
1.00005
1.0001
1.00029
1.00059
1.00172
1.00373
1.01017
1.02379
1.0627
1.16214
1.43826
2.09886
2.64871
2.76067
2.74267
2.73719
2.74881
2.76561
2.77801
2.78641
2.79221
2.79685
2.79934
1
1.00002
1.00004
1.00011
1.00023
1.0007
1.00143
1.00417
1.00912
1.02476
1.05996
1.16091
1.43008
2.08494
2.64376
2.7604
2.74188
2.73607
2.74771
2.76446
2.77682
2.78521
2.79102
2.79563
2.79804
1
1.00002
1.00004
1.00011
1.00024
1.00064
1.00148
1.00381
1.00925
1.02322
1.05868
1.15417
1.41478
2.05268
2.63216
2.759
2.7394
2.73276
2.74421
2.7612
2.77353
2.78164
2.78778
2.7921
2.79451
1
1.00001
1.00004
1.0001
1.00023
1.00061
1.00137
1.00375
1.00841
1.02266
1.05457
1.1463
1.39012
2.00252
2.61337
2.75616
2.73501
2.72706
2.73879
2.75503
2.76773
2.77646
2.7818
2.78666
2.7892
1
1.00001
1.00004
1.00008
1.00024
1.0005
1.00145
1.00311
1.00855
1.01978
1.05221
1.13336
1.36043
1.93367
2.58684
2.75071
2.72802
2.71853
2.73017
2.74723
2.75929
2.76807
2.77415
2.77845
2.7812
1
1.00001
1.00003
1.00009
1.00018
1.00055
1.00112
1.00325
1.00708
1.01919
1.04592
1.12208
1.32372
1.84883
2.55047
2.74032
2.71686
2.7062
2.71792
2.73527
2.74862
2.75672
2.7627
2.76704
2.76944
1
1.00001
1.00003
1.00007
1.00018
1.00045
1.00114
1.00266
1.007
1.01636
1.04276
1.10799
1.29008
1.76216
2.50781
2.72667
2.70295
2.6917
2.70326
2.71984
2.73337
2.74195
2.7472
2.75091
2.75228
1
1.00001
1.00003
1.00007
1.00017
1.00042
1.00099
1.00258
1.00595
1.01573
1.03754
1.09918
1.26121
1.69561
2.4597
2.71142
2.69089
2.68064
2.68906
2.70302
2.7151
2.72243
2.72627
2.72736
2.72506
1
1.00001
1.00002
1.00006
1.00014
1.00039
1.00089
1.00231
1.00552
1.0139
1.0345
1.08882
1.23563
1.62888
2.39011
2.6845
2.68114
2.67377
2.67553
2.68543
2.69382
2.69847
2.69848
2.6937
2.67969
1
1.00001
1.00002
1.00005
1.00014
1.00033
1.00082
1.00205
1.00489
1.01266
1.03043
1.07957
1.20869
1.56054
2.29789
2.64821
2.67362
2.66573
2.66198
2.66691
2.67056
2.6701
2.66245
2.64104
2.58072
1
1.00001
1.00002
1.00005
1.00011
1.00031
1.00067
1.00191
1.00412
1.0114
1.02632
1.07001
1.18118
1.48877
2.18178
2.60049
2.66476
2.65567
2.64779
2.64748
2.64599
2.63798
2.61642
2.56605
2.45276
1
1.00001
1.00002
1.00004
1.00011
1.00023
1.00068
1.00141
1.00399
1.00891
1.02378
1.05794
1.15442
1.41192
2.03717
2.53809
2.65169
2.64259
2.63166
2.62672
2.61997
2.60384
2.56889
2.49822
2.3644
1
1.00001
1.00001
1.00003
1.00009
1.00021
1.00052
1.00129
1.00306
1.00792
1.01877
1.04872
1.12439
1.33403
1.86357
2.45783
2.62805
2.62121
2.61107
2.6033
2.59235
2.56953
2.52696
2.45157
2.33088
1
1
1.00001
1.00003
1.00007
1.00018
1.0004
1.00108
1.00239
1.00653
1.01471
1.03917
1.09678
1.2588
1.6753
2.35928
2.59075
2.59206
2.58486
2.57443
2.5621
2.53609
2.49368
2.4235
2.31657
1
1
1.00001
1.00002
1.00006
1.00014
1.00033
1.00088
1.00194
1.00534
1.01192
1.03199
1.078
1.20927
1.55114
2.24836
2.54782
2.56768
2.55864
2.54772
2.53207
2.50776
2.46201
2.40443
2.30989
1
1
1.00001
1.00002
1.00004
1.00012
1.00026
1.00072
1.00154
1.00436
1.00952
1.02586
1.06224
1.16664
1.44083
2.07715
2.47655
2.54754
2.53896
2.52613
2.50569
2.48188
2.43779
2.38486
2.30596
1
1
1.00001
1.00001
1.00004
1.00008
1.00024
1.00048
1.0014
1.003
1.00823
1.01895
1.04982
1.12626
1.33828
1.86673
2.38046
2.52012
2.51848
2.50584
2.48209
2.45758
2.41745
2.36807
2.30104
1
1
1
1.00001
1.00003
1.00006
1.00018
1.00037
1.00104
1.0023
1.00606
1.01426
1.03644
1.09137
1.2402
1.62622
2.25388
2.47415
2.48862
2.47883
2.45813
2.43269
2.397
2.35287
2.29434
1
1
1
1.00001
1.00002
1.00005
1.00012
1.00032
1.0007
1.00196
1.00421
1.01159
1.02657
1.07023
1.17953
1.47679
2.10586
2.41958
2.46236
2.45361
2.43562
2.40855
2.37664
2.33732
2.28705
1
1
1
1.00001
1.00002
1.00003
1.0001
1.00022
1.00059
1.00133
1.00342
1.00824
1.0205
1.05143
1.13286
1.35206
1.88782
2.32267
2.43118
2.42982
2.41574
2.38861
2.35736
2.32191
2.2778
1
1
1
1.00001
1.00001
1.00003
1.00006
1.00018
1.00038
1.00103
1.00236
1.00599
1.01446
1.03615
1.09135
1.238
1.61937
2.18743
2.38268
2.40015
2.39043
2.36863
2.33829
2.30619
2.26657
1
1
1
1
1.00001
1.00002
1.00004
1.00013
1.00027
1.00076
1.00166
1.00439
1.01026
1.02607
1.06454
1.16797
1.44025
2.01987
2.32061
2.3717
2.36511
2.34696
2.32031
2.28978
2.25508
1
1
1
1
1.00001
1.00001
1.00003
1.00009
1.00019
1.00055
1.00113
1.00327
1.00695
1.01901
1.04456
1.11777
1.30536
1.77897
2.21316
2.33329
2.3386
2.32698
2.30415
2.2742
2.24219
1
1
1
1
1
1.00001
1.00002
1.00006
1.00014
1.00036
1.00081
1.00217
1.00475
1.0129
1.02936
1.07742
1.19521
1.51237
2.05548
2.2741
2.30787
2.30251
2.28471
2.25843
2.22902
1
1
1
1
1
1.00001
1.00002
1.00004
1.00011
1.00022
1.00062
1.00134
1.00357
1.00823
1.02098
1.05128
1.13234
1.34482
1.8417
2.18631
2.27343
2.27742
2.26655
2.24358
2.21555
1
1
1
1
1
1
1.00001
1.00003
1.00007
1.00015
1.00041
1.00086
1.00246
1.00514
1.01417
1.03223
1.08474
1.21321
1.55531
2.04444
2.22343
2.24894
2.24403
2.22636
2.20152
1
1
1
1
1
1
1.00001
1.00002
1.00005
1.0001
1.00026
1.00062
1.0015
1.00371
1.00882
1.02225
1.05416
1.13973
1.36178
1.85212
2.14915
2.2174
2.22057
2.20988
2.18823
1
1
1
1
1
1
1.00001
1.00001
1.00003
1.00007
1.00017
1.00041
1.00095
1.00247
1.00549
1.01467
1.03362
1.08808
1.22189
1.57321
2.01599
2.17171
2.19413
2.18927
2.17253
1
1
1
1
1
1
1
1.00001
1.00002
1.00005
1.0001
1.00028
1.00058
1.00165
1.00343
1.00948
1.02117
1.05559
1.13716
1.35959
1.82303
2.09607
2.16091
2.16586
2.15709
1
1
1
1
1
1
1
1
1.00001
1.00003
1.00007
1.00016
1.0004
1.00095
1.00228
1.00568
1.01336
1.03384
1.08263
1.21309
1.54272
1.96196
2.11463
2.13967
2.13742
1
1
1
1
1
1
1
1
1.00001
1.00002
1.00004
1.0001
1.00026
1.00055
1.00156
1.00322
1.00893
1.01979
1.05193
1.12711
1.33229
1.76346
2.03475
2.10623
2.11461
1
1
1
1
1
1
1
1
1
1.00001
1.00003
1.00006
1.00015
1.00037
1.00083
1.00219
1.00477
1.01278
1.02877
1.07482
1.18476
1.47483
1.89005
2.05738
2.08743
1
1
1
1
1
1
1
1
1
1.00001
1.00002
1.00003
1.0001
1.0002
1.00057
1.00121
1.00322
1.00724
1.01849
1.04415
1.11227
1.28663
1.68256
1.97513
2.05684
1
1
1
1
1
1
1
1
1
1
1.00001
1.00002
1.00006
1.00013
1.00033
1.00071
1.00195
1.00409
1.01121
1.02473
1.06479
1.15809
1.40904
1.81497
1.99967
1
1
1
1
1
1
1
1
1
1
1.00001
1.00001
1.00003
1.00008
1.00018
1.00046
1.00108
1.00259
1.00638
1.01496
1.03772
1.09159
1.23577
1.57472
1.89677
1
1
1
1
1
1
1
1
1
1
1
1.00001
1.00002
1.00004
1.00012
1.00024
1.00067
1.00142
1.0038
1.00847
1.02169
1.05132
1.13049
1.33189
1.71462
1
1
1
1
1
1
1
1
1
1
1
1
1.00001
1.00003
1.00006
1.00016
1.00033
1.00091
1.00194
1.0051
1.01152
1.02902
1.06945
1.17573
1.43767
1
1
1
1
1
1
1
1
1
1
1
1
1.00001
1.00001
1.00004
1.00009
1.0002
1.0005
1.00113
1.00296
1.00641
1.01709
1.03845
1.09976
1.24737
1
1
1
1
1
1
1
1
1
1
1
1
1
1.00001
1.00002
1.00005
1.00012
1.00026
1.0007
1.00146
1.00403
1.00848
1.02265
1.05182
1.13279
1
1
1
1
1
1
1
1
1
1
1
1
1
1.00001
1.00001
1.00003
1.00006
1.00016
1.00034
1.0009
1.00201
1.00496
1.01175
1.02825
1.06913
1
1
1
1
1
1
1
1
1
1
1
1
1
1
1.00001
1.00001
1.00004
1.00008
1.00021
1.00047
1.00116
1.00275
1.00646
1.01606
1.0375
1
1
1
1
1
1
1
1
1
1
1
1
1
1
1
1.00001
1.00002
1.00005
1.00012
1.00026
1.00068
1.00143
1.0039
1.00821
1.02186
1
1
1
1
1
1
1
1
1
1
1
1
1
1
1
1.00001
1.00001
1.00003
1.00006
1.00017
1.00035
1.00093
1.00207
1.00514
1.01207
1
1
1
1
1
1
1
1
1
1
1
1
1
1
1
1
1.00001
1.00002
1.00004
1.00011
1.00025
1.00064
1.00142
1.00378
1.00824
1
1
1
1
1
1
1
1
1
1
1
1
1
1
1
1
1.00001
1.00001
1.00004
1.00008
1.00023
1.00048
1.00132
1.00293
1.00764
1
1
1
1
1
1
1
1
1
1
1
1
1
1
1
1
1.00001
1.00001
1.00003
1.00007
1.00021
1.00043
1.00126
1.00267
1.00742
1
1
1
1
1
1
1
1
1
1
1
1
1
1
1
1
1
1.00001
1.00003
1.00008
1.00019
1.00046
1.00116
1.00271
1.00717
1
1
1
1
1
1
1
1
1
1
1
1
1
1
1
1
1.00001
1.00001
1.00003
1.00007
1.0002
1.00042
1.00119
1.00265
1.0071
1
1
1
1
1
1
1
1
1
1
1
1
1
1
1
1
1.00001
1.00001
1.00003
1.00007
1.0002
1.00043
1.00117
1.00267
1.00699
1
1
1
1
1
1
1
1
1
1
1
1
1
1
1
1
1
1.00001
1.00003
1.00008
1.00017
1.00049
1.00103
1.00297
1.00641
2.23925
2.09473
2.10578
2.29624
2.55746
2.88282
2.95891
2.94782
2.89595
2.84192
2.83011
2.8272
2.81986
2.80519
2.79912
2.79384
2.78323
2.7746
2.7626
2.74962
2.73986
2.7256
2.71393
2.70129
2.69168
2.68739
2.68575
2.6875
2.69839
2.71576
2.73932
2.765
2.79004
2.81417
2.83432
2.85134
2.86595
2.87586
2.88642
2.89186
2.89483
2.89616
2.89508
2.89479
2.89204
2.88962
2.8839
2.88042
2.87306
2.86866
2.85917
2.85373
2.84254
2.83669
2.82471
2.81847
2.80579
2.79926
2.78621
2.779
2.76579
2.75823
2.74494
2.73708
2.72383
2.71582
2.7027
2.69457
2.68168
2.67348
2.66094
2.65263
2.64065
2.63229
2.62128
2.61294
2.60322
2.59494
2.58675
2.57906
2.57229
2.56598
2.56063
2.55629
2.55303
2.55125
2.55105
2.55125
2.55191
2.55342
2.557
2.55987
2.56579
2.56866
2.57429
2.57626
2.57953
2.58079
2.58161
2.58082
2.23475
2.14559
2.13979
2.19428
2.28858
2.51507
2.74702
2.83634
2.86602
2.87191
2.87904
2.88184
2.8883
2.89501
2.896
2.89687
2.89835
2.88811
2.86819
2.85942
2.84965
2.83515
2.82813
2.8168
2.80783
2.80447
2.80363
2.80461
2.81269
2.82417
2.83853
2.85426
2.8661
2.877
2.88273
2.88709
2.88785
2.88555
2.88147
2.87568
2.86389
2.85704
2.84617
2.83906
2.82816
2.82018
2.80874
2.79971
2.78829
2.77938
2.76709
2.75683
2.74378
2.73372
2.72076
2.71061
2.69752
2.68743
2.67426
2.66416
2.65107
2.64086
2.62788
2.61769
2.60474
2.59474
2.58179
2.57198
2.55918
2.5496
2.53711
2.52768
2.51571
2.50635
2.49526
2.48588
2.476
2.46688
2.4583
2.45
2.44262
2.43584
2.4299
2.42496
2.42102
2.41836
2.41722
2.41626
2.41587
2.4164
2.41812
2.41994
2.42366
2.42544
2.42879
2.43015
2.4316
2.43253
2.4322
2.43085
2.23263
2.15485
2.08865
2.07693
2.10791
2.2152
2.43906
2.5737
2.65913
2.73674
2.7683
2.79622
2.82184
2.84481
2.86694
2.88761
2.9002
2.90847
2.91202
2.90793
2.9029
2.90367
2.90985
2.91069
2.90152
2.89374
2.89214
2.89154
2.89442
2.90071
2.90348
2.90183
2.89824
2.89361
2.88486
2.87131
2.8578
2.84577
2.83348
2.82168
2.80975
2.79869
2.78699
2.7764
2.76415
2.75348
2.74049
2.72961
2.71669
2.70624
2.6932
2.68147
2.66745
2.65616
2.64285
2.63199
2.61895
2.6082
2.59546
2.5849
2.5724
2.56214
2.54973
2.53976
2.52747
2.51777
2.50575
2.49634
2.48472
2.47549
2.46435
2.45518
2.44468
2.43555
2.42583
2.41691
2.40815
2.39977
2.39201
2.38465
2.37796
2.37199
2.36668
2.36225
2.35877
2.35632
2.35521
2.35428
2.35364
2.35395
2.35497
2.35616
2.35852
2.35976
2.36163
2.36258
2.36313
2.36379
2.36344
2.36212
2.22441
2.13991
2.07579
2.02639
2.02944
2.07528
2.18441
2.3523
2.45409
2.51777
2.57212
2.63492
2.68145
2.70801
2.74132
2.77873
2.80727
2.83019
2.85391
2.87089
2.88152
2.89181
2.90309
2.90985
2.91326
2.91366
2.9131
2.91377
2.91197
2.90602
2.89113
2.87393
2.85445
2.83837
2.81925
2.80546
2.79065
2.7788
2.76517
2.75408
2.74038
2.72915
2.71522
2.70384
2.69006
2.67847
2.66478
2.65326
2.6402
2.62957
2.61692
2.60542
2.59165
2.58003
2.56689
2.55553
2.54263
2.53145
2.51876
2.50793
2.49545
2.48495
2.47266
2.46237
2.45039
2.44028
2.42868
2.41879
2.40764
2.39799
2.38737
2.37801
2.36803
2.35902
2.34984
2.34131
2.33305
2.32526
2.31797
2.31121
2.30509
2.29961
2.29486
2.2909
2.28773
2.2855
2.28435
2.28329
2.28248
2.28227
2.28243
2.28293
2.2833
2.2838
2.28385
2.28377
2.28341
2.28331
2.28271
2.28084
2.22184
2.13815
2.07047
2.00989
1.99132
2.00168
2.05073
2.14762
2.27238
2.35835
2.40668
2.45238
2.50162
2.54467
2.58803
2.62634
2.65256
2.68713
2.72527
2.75325
2.77452
2.80033
2.82233
2.837
2.8496
2.85883
2.86235
2.86109
2.85262
2.83535
2.81383
2.78882
2.76734
2.74766
2.73068
2.71588
2.70092
2.68809
2.67463
2.66251
2.64968
2.63789
2.62556
2.6142
2.60206
2.59102
2.5788
2.56791
2.55599
2.54609
2.53505
2.5248
2.51285
2.50227
2.4908
2.48084
2.46956
2.45992
2.4486
2.43907
2.42779
2.41837
2.40724
2.39791
2.38701
2.37769
2.36715
2.3578
2.34771
2.33836
2.32881
2.3195
2.31056
2.30149
2.29309
2.28464
2.27685
2.2693
2.26239
2.25602
2.2503
2.24542
2.24105
2.23771
2.23481
2.23287
2.23153
2.23046
2.2292
2.22851
2.22765
2.22717
2.22618
2.22547
2.22402
2.22331
2.22181
2.22148
2.22061
2.21876
2.22289
2.14554
2.07466
2.01681
1.97043
1.96664
1.9836
2.03322
2.11116
2.20871
2.2693
2.31506
2.36064
2.39293
2.42972
2.47051
2.5047
2.53959
2.57197
2.59534
2.62912
2.66625
2.68754
2.70518
2.73825
2.75311
2.7634
2.76244
2.75431
2.73429
2.70622
2.67924
2.65244
2.63314
2.61721
2.60507
2.59303
2.58354
2.57276
2.56409
2.5535
2.54499
2.53453
2.52601
2.51551
2.50685
2.4962
2.48743
2.4768
2.46872
2.4589
2.45063
2.43964
2.43035
2.4194
2.41051
2.39977
2.39111
2.38044
2.37192
2.36154
2.35295
2.34296
2.33422
2.32457
2.31575
2.30637
2.29753
2.28858
2.27984
2.27146
2.26306
2.25519
2.24731
2.24
2.23278
2.22622
2.21986
2.21419
2.20905
2.20432
2.20057
2.19692
2.19448
2.19182
2.19038
2.18856
2.18759
2.18564
2.1845
2.18217
2.1808
2.17803
2.17634
2.17296
2.17137
2.1686
2.16785
2.16632
2.16401
2.22502
2.15317
2.0852
2.02379
1.97676
1.94448
1.94617
1.96721
2.01379
2.08397
2.15443
2.19771
2.24238
2.277
2.30613
2.33867
2.36604
2.39765
2.43546
2.45829
2.48598
2.51645
2.54578
2.57809
2.61048
2.6257
2.65117
2.66059
2.65358
2.63023
2.59802
2.56549
2.53674
2.51529
2.50055
2.49214
2.48632
2.48172
2.47604
2.4705
2.46334
2.45707
2.44925
2.44281
2.43481
2.42809
2.41966
2.41255
2.40379
2.3969
2.38875
2.38201
2.37289
2.36483
2.35521
2.34739
2.33815
2.33032
2.32122
2.31322
2.30432
2.29628
2.28768
2.27953
2.27119
2.26294
2.25484
2.24666
2.23868
2.23074
2.2229
2.21538
2.20802
2.20103
2.19438
2.18814
2.18225
2.17711
2.17218
2.16834
2.16459
2.16198
2.15936
2.15774
2.15589
2.15486
2.15327
2.15229
2.15026
2.14876
2.14565
2.14362
2.13969
2.13696
2.13291
2.13048
2.12687
2.12564
2.12391
2.12249
2.22743
2.15968
2.09673
2.0356
1.98691
1.94577
1.92866
1.93098
1.95193
1.99389
2.06355
2.11198
2.14626
2.17838
2.20523
2.23517
2.2581
2.28051
2.30849
2.33587
2.3634
2.39334
2.42458
2.45018
2.48591
2.52125
2.55795
2.56937
2.56069
2.53476
2.49889
2.46321
2.43002
2.40627
2.38811
2.37979
2.37815
2.37908
2.37885
2.37795
2.37487
2.37188
2.36669
2.36274
2.3568
2.35229
2.34601
2.34102
2.33425
2.32906
2.32258
2.31764
2.31065
2.30423
2.29649
2.28971
2.28228
2.27528
2.26786
2.26053
2.25304
2.24556
2.23815
2.23068
2.22338
2.21599
2.20872
2.20153
2.19438
2.18746
2.18066
2.17411
2.16783
2.16197
2.1564
2.15148
2.14676
2.14288
2.1391
2.13627
2.13348
2.13166
2.1297
2.1286
2.12698
2.12602
2.12411
2.1227
2.11981
2.11755
2.11362
2.10995
2.10513
2.10105
2.09597
2.09221
2.08773
2.08518
2.08299
2.08152
2.22706
2.1685
2.10565
2.05117
1.99739
1.95621
1.92223
1.91608
1.92074
1.94125
1.98166
2.03568
2.07539
2.10426
2.12576
2.15149
2.17187
2.19101
2.21119
2.2322
2.25759
2.28465
2.31982
2.35076
2.39111
2.43463
2.48283
2.4978
2.48719
2.45975
2.42272
2.37967
2.34378
2.3171
2.29703
2.28557
2.28228
2.28653
2.29274
2.29706
2.30014
2.30055
2.30005
2.29856
2.29562
2.29326
2.28914
2.28594
2.28106
2.27705
2.27214
2.2682
2.26319
2.25795
2.25156
2.24526
2.23884
2.23239
2.22607
2.2195
2.21314
2.20658
2.20014
2.19361
2.18698
2.18037
2.17359
2.16689
2.16021
2.15371
2.14742
2.14148
2.13586
2.13073
2.12596
2.12184
2.11809
2.11511
2.1124
2.11045
2.10852
2.10729
2.10578
2.1048
2.10316
2.10192
2.09942
2.09727
2.0937
2.0902
2.08525
2.08068
2.07472
2.0698
2.06357
2.05899
2.05324
2.04986
2.04656
2.04495
2.22565
2.16979
2.11517
2.06073
2.01247
1.96612
1.93266
1.90471
1.90414
1.91121
1.9331
1.96809
2.01129
2.04782
2.06463
2.08565
2.10366
2.12108
2.13785
2.15433
2.17848
2.20053
2.23084
2.26604
2.31921
2.38427
2.4364
2.44399
2.42989
2.40132
2.36078
2.31529
2.27638
2.24715
2.2284
2.21382
2.20618
2.20576
2.21108
2.21957
2.22708
2.23273
2.23618
2.23788
2.23792
2.23707
2.23519
2.23322
2.22996
2.22662
2.22305
2.21981
2.21659
2.21261
2.2078
2.20225
2.19659
2.19074
2.18488
2.17909
2.1732
2.1674
2.16153
2.15563
2.1498
2.14386
2.13804
2.13218
2.1264
2.12074
2.11524
2.11007
2.10526
2.10099
2.09726
2.09418
2.09168
2.08981
2.08833
2.08733
2.08633
2.08563
2.08445
2.08347
2.08149
2.07959
2.07648
2.07316
2.06872
2.06412
2.0583
2.05294
2.04654
2.04105
2.0343
2.02916
2.0229
2.0188
2.01472
2.0128
2.22231
2.17244
2.12082
2.07145
2.02238
1.98011
1.94055
1.91182
1.89238
1.89333
1.90266
1.92687
1.95218
1.9955
2.01932
2.03705
2.05215
2.06473
2.08032
2.09272
2.11749
2.13904
2.17165
2.20924
2.27668
2.35515
2.4067
2.40843
2.39161
2.36036
2.31473
2.26738
2.22625
2.19579
2.17447
2.16086
2.15133
2.14488
2.14541
2.15123
2.16083
2.17053
2.17887
2.1847
2.18842
2.19047
2.19095
2.19042
2.1891
2.18714
2.18482
2.1825
2.18018
2.17751
2.17393
2.1695
2.16461
2.15947
2.15423
2.14887
2.1435
2.13806
2.13258
2.12715
2.12172
2.11636
2.11111
2.10587
2.10083
2.09589
2.09121
2.08684
2.08292
2.07947
2.07665
2.07445
2.07285
2.07181
2.07103
2.0706
2.0699
2.06926
2.06791
2.06634
2.06359
2.0605
2.05617
2.05158
2.04579
2.03988
2.03328
2.02708
2.01996
2.01367
2.00649
2.00042
1.99367
1.98839
1.98372
1.98084
2.21562
2.17129
2.12513
2.07913
2.03323
1.99145
1.95197
1.92032
1.89468
1.88346
1.88471
1.89406
1.91444
1.94322
1.97748
1.99688
2.01471
2.02437
2.03937
2.0507
2.06919
2.09225
2.12788
2.18457
2.27073
2.35567
2.3853
2.38113
2.36234
2.32596
2.28037
2.23375
2.19563
2.16334
2.13984
2.12186
2.11023
2.10273
2.0981
2.09818
2.10311
2.11265
2.12329
2.13306
2.14083
2.14592
2.14914
2.1506
2.15093
2.15026
2.14887
2.14714
2.14536
2.14336
2.14073
2.13717
2.13278
2.12806
2.12316
2.11822
2.11324
2.10831
2.10334
2.09848
2.09362
2.08883
2.08413
2.07947
2.07503
2.07075
2.06682
2.0633
2.06018
2.05764
2.05565
2.05425
2.05333
2.05282
2.05246
2.0522
2.05166
2.05084
2.04923
2.04687
2.04342
2.03914
2.03387
2.02788
2.02122
2.01457
2.00733
2.00037
1.99279
1.98587
1.97828
1.97168
1.96465
1.95894
1.95378
1.95082
2.20713
2.16752
2.12692
2.08242
2.0427
1.99989
1.96432
1.92836
1.90247
1.88038
1.87619
1.87779
1.88708
1.90588
1.93473
1.95872
1.98001
1.993
2.0063
2.02096
2.03928
2.06711
2.11006
2.19169
2.29275
2.3608
2.37279
2.36284
2.33901
2.29983
2.25367
2.21147
2.1748
2.14401
2.11879
2.09821
2.08294
2.07239
2.06564
2.06155
2.06106
2.06497
2.07328
2.08398
2.09445
2.1034
2.10983
2.11422
2.11623
2.11689
2.11646
2.11517
2.11373
2.11215
2.11037
2.10776
2.10418
2.0999
2.09538
2.09066
2.08592
2.08116
2.07641
2.0718
2.06728
2.06298
2.05886
2.05494
2.05127
2.0479
2.04488
2.04227
2.04018
2.03859
2.03747
2.0368
2.03634
2.03598
2.03558
2.03499
2.03398
2.03236
2.02984
2.02639
2.02184
2.0164
2.01009
2.00337
1.99618
1.98881
1.98107
1.97344
1.96548
1.95789
1.95006
1.94292
1.9356
1.92946
1.92387
1.92072
2.19712
2.16242
2.12528
2.08723
2.04688
2.00992
1.97167
1.93971
1.90766
1.88642
1.86723
1.86725
1.87024
1.88013
1.90176
1.92403
1.9488
1.96563
1.98022
1.99627
2.01931
2.05985
2.12418
2.23288
2.32741
2.36312
2.36242
2.34863
2.31966
2.27838
2.23632
2.19825
2.16456
2.13505
2.10927
2.08702
2.06882
2.05386
2.04352
2.03679
2.03357
2.03123
2.03273
2.03849
2.0474
2.05719
2.06682
2.07393
2.07946
2.08227
2.08352
2.08324
2.08205
2.08058
2.07897
2.0771
2.07439
2.0708
2.0668
2.06255
2.05828
2.05395
2.04973
2.0455
2.04143
2.03744
2.03379
2.0303
2.02735
2.02469
2.02257
2.02095
2.01986
2.01919
2.01882
2.01872
2.01849
2.01808
2.01741
2.01644
2.01462
2.01185
2.00794
2.00322
1.9973
1.99096
1.98395
1.97683
1.9691
1.96139
1.95332
1.94539
1.93729
1.92952
1.92163
1.91437
1.907
1.90072
1.89493
1.89161
2.1864
2.15604
2.12144
2.08712
2.05062
2.01481
1.98049
1.9468
1.91752
1.8907
1.87094
1.85742
1.85801
1.86286
1.87306
1.8944
1.91734
1.94222
1.9612
1.98358
2.01394
2.07266
2.17458
2.29105
2.354
2.3631
2.35573
2.33556
2.30182
2.26275
2.2258
2.19204
2.16116
2.13308
2.1073
2.08418
2.06373
2.04595
2.03159
2.02031
2.01304
2.00779
2.00505
2.00385
2.00652
2.01311
2.02198
2.0309
2.0385
2.04434
2.04762
2.04956
2.04955
2.04858
2.04706
2.04541
2.04335
2.04049
2.03683
2.03301
2.0291
2.0254
2.02168
2.01818
2.01467
2.01143
2.00843
2.00586
2.00373
2.00212
2.00108
2.00039
2.00032
2.00027
2.0003
2.00022
1.9999
1.99926
1.99807
1.99651
1.99364
1.98964
1.98434
1.97857
1.97197
1.96527
1.95787
1.95049
1.94258
1.93477
1.92659
1.91862
1.91043
1.90265
1.89474
1.88748
1.88014
1.87382
1.86798
1.86464
2.17478
2.14716
2.11667
2.08467
2.05236
2.01749
1.98604
1.95247
1.92473
1.89572
1.87525
1.85652
1.85008
1.85108
1.85674
1.87029
1.88965
1.91583
1.94553
1.97661
2.02773
2.11777
2.24572
2.34202
2.36803
2.3655
2.35336
2.32701
2.29019
2.25447
2.22162
2.19133
2.16246
2.13545
2.10981
2.08625
2.06422
2.04436
2.02693
2.01165
1.99888
1.98987
1.9828
1.97743
1.97455
1.97383
1.97732
1.98426
1.99279
2.00063
2.00696
2.01124
2.01328
2.01401
2.01326
2.01197
2.01045
2.00867
2.00631
2.00329
1.99997
1.99676
1.99366
1.99081
1.98817
1.9858
1.98384
1.98226
1.98126
1.98073
1.98073
1.98091
1.98143
1.98226
1.98236
1.98206
1.98127
1.98014
1.97827
1.97558
1.97113
1.9662
1.96016
1.95413
1.94711
1.94023
1.93257
1.92515
1.91711
1.9094
1.90125
1.89348
1.88549
1.87793
1.87028
1.86319
1.8561
1.84991
1.84415
1.84085
2.16262
2.13551
2.10954
2.07972
2.05008
2.02002
1.98782
1.9587
1.92841
1.90297
1.87703
1.86028
1.8435
1.84308
1.84598
1.85451
1.8729
1.89862
1.93488
1.98263
2.06279
2.19918
2.31942
2.37064
2.37366
2.36589
2.3458
2.3149
2.28187
2.25079
2.22161
2.19359
2.16645
2.14012
2.11511
2.09108
2.06797
2.04626
2.0255
2.00684
1.99
1.9757
1.96373
1.95511
1.94744
1.94305
1.9404
1.94108
1.94569
1.95303
1.96073
1.96763
1.97297
1.97628
1.97774
1.97812
1.97731
1.97612
1.97491
1.97327
1.97108
1.96865
1.96643
1.96434
1.96282
1.96151
1.96071
1.96048
1.96059
1.96102
1.96187
1.96347
1.96478
1.96571
1.9655
1.96491
1.96395
1.96224
1.95937
1.95534
1.95013
1.94466
1.93826
1.93177
1.92452
1.91737
1.90967
1.90216
1.89429
1.8867
1.87885
1.87136
1.86368
1.85647
1.84908
1.84234
1.83546
1.82948
1.82386
1.82056
2.14958
2.12474
2.09948
2.07403
2.04546
2.01848
1.9889
1.96163
1.93247
1.90785
1.88191
1.86208
1.84457
1.83687
1.83799
1.84511
1.85918
1.88783
1.93059
2.00542
2.12917
2.28002
2.3641
2.37972
2.37555
2.36202
2.33783
2.30821
2.27975
2.25243
2.22594
2.199
2.17287
2.14672
2.12101
2.09522
2.0704
2.04636
2.02322
2.00199
1.9817
1.96356
1.94766
1.93441
1.92379
1.91554
1.90916
1.90643
1.90512
1.90739
1.91316
1.92085
1.92842
1.93495
1.93953
1.9428
1.94418
1.94516
1.94488
1.94431
1.94373
1.94279
1.94177
1.94073
1.94059
1.94067
1.941
1.94184
1.94333
1.94522
1.94713
1.94915
1.9506
1.95053
1.95024
1.94957
1.94803
1.94562
1.94151
1.93676
1.93118
1.9251
1.91838
1.91143
1.90402
1.89653
1.88879
1.88114
1.87335
1.86581
1.8581
1.85082
1.84325
1.83631
1.82902
1.82256
1.81578
1.81003
1.80448
1.80127
2.13769
2.11362
2.08883
2.06538
2.0402
2.01452
1.98783
1.96174
1.93492
1.90949
1.8865
1.86451
1.84763
1.83706
1.83777
1.84535
1.8604
1.89147
1.9517
2.05465
2.21873
2.34446
2.38456
2.38403
2.37662
2.35847
2.33349
2.30653
2.28095
2.25454
2.22845
2.20167
2.17495
2.14763
2.12076
2.09367
2.06791
2.04205
2.01812
1.99439
1.97301
1.95235
1.93405
1.91741
1.90394
1.89263
1.88422
1.87703
1.87346
1.87127
1.87195
1.87618
1.88321
1.89152
1.89915
1.90604
1.91109
1.91427
1.91678
1.91764
1.91857
1.91928
1.91969
1.92037
1.92143
1.92315
1.9252
1.92768
1.93024
1.93266
1.93474
1.93708
1.93669
1.93632
1.93557
1.93412
1.93153
1.92756
1.92253
1.9172
1.91086
1.90456
1.89739
1.89053
1.88288
1.87572
1.86789
1.86067
1.85289
1.84576
1.83817
1.83121
1.82389
1.81718
1.81019
1.80385
1.7974
1.79174
1.78647
1.78327
2.12279
2.10223
2.07927
2.05616
2.03339
2.00948
1.98529
1.95987
1.93725
1.91058
1.88984
1.86783
1.8512
1.84253
1.84453
1.85449
1.87415
1.91436
1.9976
2.1322
2.28142
2.36
2.37378
2.36978
2.35959
2.34212
2.31846
2.29381
2.26817
2.24308
2.21693
2.19116
2.16396
2.13731
2.10963
2.08306
2.05648
2.03177
2.00781
1.98521
1.96307
1.94233
1.92269
1.90479
1.88883
1.8754
1.86428
1.85554
1.84777
1.84302
1.84091
1.84038
1.84304
1.84905
1.85794
1.86697
1.87501
1.88194
1.8871
1.89108
1.8942
1.89677
1.89915
1.90158
1.90434
1.90763
1.91103
1.91457
1.91751
1.92069
1.92258
1.92296
1.92267
1.92173
1.91997
1.91764
1.91362
1.90876
1.90313
1.89717
1.8905
1.88382
1.87665
1.86964
1.86228
1.85513
1.84771
1.84059
1.83328
1.82635
1.81918
1.81248
1.80553
1.7992
1.79264
1.78681
1.7808
1.77574
1.77086
1.76815
2.10817
2.09098
2.06938
2.04671
2.02563
2.00214
1.98182
1.95601
1.93589
1.9117
1.89115
1.8724
1.8565
1.85461
1.86089
1.87436
1.90371
1.96185
2.07246
2.19761
2.28604
2.32791
2.33712
2.33397
2.32753
2.31473
2.2932
2.27076
2.24727
2.22383
2.19985
2.17589
2.15109
2.12605
2.10012
2.07525
2.05024
2.02665
2.00326
1.98074
1.95829
1.93701
1.9159
1.8972
1.87921
1.864
1.85003
1.83868
1.8289
1.82098
1.81495
1.81213
1.81131
1.81282
1.81783
1.82598
1.83569
1.84538
1.85457
1.86242
1.8692
1.8747
1.87974
1.8843
1.88903
1.89359
1.89813
1.90214
1.90579
1.9076
1.90893
1.90833
1.90727
1.90586
1.90378
1.90015
1.89539
1.89018
1.88414
1.87796
1.87114
1.8645
1.85725
1.85034
1.84287
1.83588
1.82839
1.82146
1.81409
1.80742
1.80042
1.79415
1.78754
1.78165
1.77546
1.76998
1.76436
1.75957
1.7551
1.75246
2.0884
2.07688
2.0591
2.03662
2.01766
1.99432
1.97633
1.9524
1.9327
1.91128
1.89262
1.87692
1.86873
1.87215
1.88436
1.90865
1.9584
2.0474
2.14959
2.22217
2.26337
2.28764
2.29787
2.29713
2.29376
2.28684
2.27419
2.25558
2.23379
2.21074
2.18806
2.16514
2.14214
2.11753
2.09308
2.06784
2.04365
2.01974
1.99682
1.97394
1.95225
1.93044
1.91042
1.89066
1.87261
1.85549
1.83978
1.82591
1.81366
1.80398
1.79559
1.78947
1.78604
1.78513
1.78581
1.78957
1.79732
1.8081
1.8202
1.83236
1.8433
1.85291
1.86115
1.86841
1.87492
1.88067
1.88597
1.88997
1.8925
1.89444
1.89367
1.89257
1.89127
1.88917
1.88523
1.8807
1.87532
1.8695
1.86302
1.85665
1.84971
1.84307
1.83587
1.82916
1.8219
1.81518
1.80801
1.80147
1.79463
1.78842
1.78193
1.77606
1.76991
1.76444
1.75869
1.75375
1.74861
1.74446
1.74055
1.73839
2.06788
2.06256
2.0479
2.02633
2.00859
1.98684
1.96912
1.94862
1.92955
1.91104
1.89545
1.88673
1.88841
1.8997
1.9217
1.96661
2.0461
2.13663
2.19317
2.21857
2.23396
2.24491
2.25488
2.26045
2.25972
2.25695
2.25141
2.24066
2.2219
2.2
2.17792
2.1553
2.13277
2.10905
2.08524
2.06138
2.03798
2.01487
1.99242
1.96999
1.94824
1.92684
1.90601
1.88615
1.8669
1.84883
1.83208
1.8163
1.80288
1.79053
1.78116
1.77274
1.76715
1.76314
1.76231
1.76251
1.76546
1.77262
1.78433
1.7983
1.8127
1.82617
1.83845
1.84867
1.85751
1.86479
1.86967
1.87438
1.87659
1.87657
1.87591
1.87479
1.87245
1.86883
1.86457
1.85984
1.85407
1.84827
1.84189
1.83576
1.82893
1.82259
1.81558
1.80913
1.80208
1.79575
1.78892
1.78283
1.7763
1.77051
1.76432
1.75883
1.75304
1.74794
1.74268
1.73816
1.73366
1.73006
1.7269
1.72511
2.03825
2.04207
2.03477
2.01803
1.99928
1.97903
1.96131
1.94327
1.92686
1.912
1.90319
1.90484
1.91662
1.93804
1.98243
2.05643
2.14168
2.18677
2.20338
2.20517
2.20478
2.20603
2.21103
2.2208
2.22636
2.22777
2.22516
2.21983
2.20961
2.19134
2.16899
2.14641
2.12367
2.10087
2.0779
2.05487
2.0316
2.00905
1.98592
1.9643
1.94219
1.92155
1.90108
1.88123
1.86235
1.84361
1.82608
1.80955
1.79394
1.78082
1.76841
1.75934
1.75142
1.74639
1.74344
1.74309
1.74348
1.74658
1.75439
1.76603
1.78115
1.79734
1.81295
1.82716
1.83831
1.84735
1.85381
1.85714
1.85891
1.8581
1.85694
1.8546
1.85151
1.84766
1.84274
1.8374
1.83153
1.82581
1.81944
1.81332
1.80658
1.80041
1.79366
1.78767
1.78107
1.77525
1.76888
1.76328
1.75727
1.75195
1.74635
1.74136
1.73619
1.73169
1.72709
1.72331
1.7196
1.71686
1.71451
1.71326
2.003
2.021
2.01949
2.0078
1.99103
1.9718
1.95435
1.93849
1.92543
1.91793
1.92043
1.9329
1.95521
2.0002
2.07598
2.15531
2.19313
2.20254
2.19707
2.18904
2.17757
2.17499
2.17603
2.18032
2.19048
2.19699
2.1983
2.19553
2.18961
2.17939
2.16013
2.1377
2.11517
2.09238
2.07036
2.04791
2.02547
2.00303
1.98061
1.95866
1.93725
1.91625
1.89624
1.8761
1.85729
1.83812
1.82041
1.80319
1.78721
1.77311
1.75999
1.74942
1.7402
1.73322
1.72931
1.72752
1.72772
1.72886
1.73313
1.74187
1.75292
1.76755
1.783
1.79795
1.81188
1.82213
1.83019
1.83486
1.83664
1.83601
1.83469
1.83266
1.82919
1.82485
1.81989
1.81507
1.80949
1.80389
1.7976
1.7918
1.78552
1.77983
1.77351
1.76781
1.76159
1.75608
1.75011
1.74485
1.73919
1.73427
1.72899
1.72455
1.71975
1.71594
1.71189
1.709
1.70606
1.70426
1.70286
1.70229
1.93003
1.98874
1.99871
1.99491
1.98208
1.96523
1.9492
1.93618
1.92998
1.93399
1.94765
1.97294
2.02005
2.0981
2.17418
2.20601
2.21102
2.20371
2.18874
2.16807
2.15436
2.14784
2.14804
2.14925
2.15415
2.16263
2.16848
2.16728
2.16403
2.15791
2.14612
2.12767
2.10595
2.08312
2.06109
2.03889
2.01753
1.99562
1.97379
1.95195
1.9303
1.90938
1.88916
1.86947
1.85091
1.8322
1.81494
1.79763
1.78185
1.76715
1.7536
1.7424
1.73204
1.72433
1.71873
1.71627
1.71607
1.71663
1.71898
1.72541
1.73382
1.74351
1.75533
1.76804
1.78092
1.79175
1.80123
1.80696
1.81054
1.81045
1.80949
1.8078
1.80466
1.80061
1.79556
1.79067
1.78495
1.77988
1.77395
1.76883
1.76281
1.75779
1.75185
1.74696
1.74104
1.73616
1.73044
1.72586
1.72071
1.71654
1.71203
1.70823
1.70444
1.70127
1.69848
1.69636
1.69473
1.69387
1.69389
1.69357
1.79315
1.94293
1.97328
1.97733
1.97212
1.96015
1.94649
1.93957
1.94485
1.96013
1.98915
2.0415
2.12212
2.19476
2.22296
2.22436
2.21567
2.19605
2.17052
2.14914
2.13442
2.12654
2.12372
2.12392
2.12498
2.1285
2.13317
2.13671
2.13499
2.13164
2.12419
2.11245
2.0948
2.07399
2.05177
2.0293
2.00728
1.98608
1.96459
1.94398
1.92249
1.90236
1.88185
1.86281
1.84409
1.82608
1.80909
1.79217
1.77696
1.76206
1.74925
1.73742
1.72759
1.71985
1.71401
1.71135
1.71001
1.7101
1.71085
1.71347
1.71942
1.72574
1.73248
1.74107
1.74961
1.75909
1.76731
1.77475
1.77962
1.78235
1.78225
1.78164
1.78024
1.77724
1.77299
1.76824
1.76305
1.75774
1.7524
1.7472
1.74193
1.73679
1.73162
1.72653
1.72159
1.71663
1.71199
1.70733
1.70315
1.69903
1.69548
1.69205
1.68932
1.68686
1.68531
1.68403
1.68395
1.68443
1.68565
1.68558
1.58429
1.8577
1.94401
1.95981
1.96128
1.95599
1.94997
1.95358
1.97047
2.00409
2.06224
2.14845
2.21777
2.24253
2.24046
2.22995
2.20738
2.17878
2.15434
2.13567
2.12121
2.11091
2.10366
2.10021
2.09791
2.09811
2.09912