/*--------------------------------*- C++ -*----------------------------------*\
  =========                 |
  \\      /  F ield         | OpenFOAM: The Open Source CFD Toolbox
   \\    /   O peration     | Website:  https://openfoam.org
    \\  /    A nd           | Version:  13
     \\/     M anipulation  |
\*---------------------------------------------------------------------------*/
FoamFile
{
    format      ascii;
    class       volVectorField;
    location    "5";
    object      U;
}
// * * * * * * * * * * * * * * * * * * * * * * * * * * * * * * * * * * * * * //

dimensions      [0 1 -1 0 0 0 0];

internalField   nonuniform List<vector> 
5250
(
(3 1.72883e-10 0)
(2.99999 7.29139e-08 0)
(2.99997 1.89908e-07 0)
(2.99991 7.18738e-07 0)
(2.99978 1.54738e-06 0)
(2.99946 6.08745e-06 0)
(2.99866 6.68907e-06 0)
(2.99671 4.61263e-05 0)
(2.99181 3.55339e-05 0)
(2.97963 0.000256007 0)
(2.94792 0.00037798 0)
(2.86105 0.00133863 0)
(2.60979 0.00330147 0)
(1.87194 0.00981055 0)
(0.869739 0.0264778 0)
(0.443168 0.0243658 0)
(0.535162 0.0244271 0)
(0.560235 0.026271 0)
(0.505642 0.0281299 0)
(0.415003 0.0300193 0)
(0.330195 0.0322468 0)
(0.261543 0.0348342 0)
(0.192734 0.0375177 0)
(0.115041 0.0405701 0)
(0.0496054 0.0446937 0)
(3 2.05053e-08 0)
(2.99999 2.7357e-07 0)
(2.99997 6.32734e-07 0)
(2.99991 2.64915e-06 0)
(2.99978 4.82979e-06 0)
(2.99946 1.80179e-05 0)
(2.99869 2.86882e-05 0)
(2.99674 0.000114596 0)
(2.99198 0.00018362 0)
(2.97992 0.000658679 0)
(2.94879 0.0013512 0)
(2.86357 0.00393325 0)
(2.61659 0.0104396 0)
(1.89085 0.0303168 0)
(0.880261 0.080721 0)
(0.439796 0.0703713 0)
(0.535168 0.0672996 0)
(0.561436 0.0702924 0)
(0.506539 0.0733438 0)
(0.415919 0.0765447 0)
(0.331086 0.0801085 0)
(0.261841 0.0839746 0)
(0.191999 0.0874895 0)
(0.112968 0.0907825 0)
(0.0469069 0.0936557 0)
(3 7.62931e-08 0)
(2.99999 3.61143e-07 0)
(2.99997 1.51764e-06 0)
(2.99992 3.48787e-06 0)
(2.99979 1.09334e-05 0)
(2.99948 2.31766e-05 0)
(2.99874 6.91446e-05 0)
(2.99684 0.00014274 0)
(2.99226 0.000422854 0)
(2.9806 0.000919886 0)
(2.95063 0.00253748 0)
(2.86867 0.00635072 0)
(2.63174 0.0178422 0)
(1.9322 0.0512581 0)
(0.90581 0.138528 0)
(0.437131 0.119582 0)
(0.539043 0.113102 0)
(0.568072 0.118266 0)
(0.513021 0.124042 0)
(0.422687 0.130709 0)
(0.337842 0.137475 0)
(0.267791 0.144527 0)
(0.196537 0.151199 0)
(0.115592 0.157078 0)
(0.0471504 0.160685 0)
(3 9.94874e-08 0)
(2.99999 4.82229e-07 0)
(2.99997 1.98691e-06 0)
(2.99992 4.77841e-06 0)
(2.9998 1.46905e-05 0)
(2.99951 3.17106e-05 0)
(2.99879 9.47422e-05 0)
(2.99703 0.00019468 0)
(2.99263 0.00057952 0)
(2.98168 0.0012465 0)
(2.95332 0.00346245 0)
(2.87633 0.00862665 0)
(2.65429 0.0242718 0)
(1.99593 0.0697867 0)
(0.946782 0.192455 0)
(0.437359 0.168215 0)
(0.54792 0.158438 0)
(0.581194 0.165597 0)
(0.526226 0.174235 0)
(0.436268 0.184962 0)
(0.350948 0.195408 0)
(0.27974 0.206197 0)
(0.206551 0.216808 0)
(0.122389 0.22612 0)
(0.0496186 0.230996 0)
(3 8.73558e-08 0)
(2.99999 6.61513e-07 0)
(2.99997 2.01778e-06 0)
(2.99993 6.52296e-06 0)
(2.99982 1.53913e-05 0)
(2.99955 4.32723e-05 0)
(2.99887 9.81702e-05 0)
(2.99725 0.000269494 0)
(2.99314 0.000610875 0)
(2.983 0.0016422 0)
(2.9568 0.00394868 0)
(2.88602 0.0105875 0)
(2.68325 0.028912 0)
(2.07919 0.0840406 0)
(1.0049 0.238171 0)
(0.446347 0.218154 0)
(0.563685 0.206194 0)
(0.601699 0.213949 0)
(0.547031 0.224507 0)
(0.457439 0.239076 0)
(0.371039 0.253483 0)
(0.298106 0.268557 0)
(0.222247 0.283878 0)
(0.133469 0.29772 0)
(0.0542618 0.304893 0)
(3 9.34887e-08 0)
(2.99999 6.97223e-07 0)
(2.99997 2.16421e-06 0)
(2.99993 6.82091e-06 0)
(2.99983 1.62621e-05 0)
(2.99958 4.56465e-05 0)
(2.99898 0.000102797 0)
(2.99746 0.000286311 0)
(2.99377 0.000641268 0)
(2.98446 0.00175072 0)
(2.96079 0.00417529 0)
(2.8972 0.0112035 0)
(2.71611 0.0304335 0)
(2.17933 0.0883584 0)
(1.08682 0.25795 0)
(0.479221 0.26307 0)
(0.591834 0.256657 0)
(0.63207 0.264697 0)
(0.577695 0.276412 0)
(0.488505 0.294542 0)
(0.400224 0.313497 0)
(0.324718 0.333792 0)
(0.245287 0.355227 0)
(0.150215 0.375676 0)
(0.0618881 0.387514 0)
(3 1.12123e-07 0)
(2.99999 6.05614e-07 0)
(2.99998 2.32301e-06 0)
(2.99994 5.93326e-06 0)
(2.99985 1.71413e-05 0)
(2.99962 3.94145e-05 0)
(2.99907 0.000108669 0)
(2.99769 0.000243075 0)
(2.99436 0.000665201 0)
(2.98595 0.00151975 0)
(2.96469 0.00403424 0)
(2.90797 0.0100741 0)
(2.74805 0.0276137 0)
(2.27633 0.0784875 0)
(1.18634 0.23238 0)
(0.528509 0.296153 0)
(0.624506 0.309207 0)
(0.664526 0.316894 0)
(0.613075 0.329429 0)
(0.527007 0.351531 0)
(0.438173 0.376184 0)
(0.360446 0.403051 0)
(0.27752 0.432563 0)
(0.175204 0.463055 0)
(0.0743826 0.484634 0)
(3 9.5063e-08 0)
(2.99999 5.87052e-07 0)
(2.99998 2.07923e-06 0)
(2.99994 5.69899e-06 0)
(2.99986 1.54205e-05 0)
(2.99966 3.79695e-05 0)
(2.99915 9.5882e-05 0)
(2.99792 0.000235266 0)
(2.99484 0.000578866 0)
(2.98727 0.00143618 0)
(2.96792 0.00354735 0)
(2.91685 0.00907846 0)
(2.77311 0.0241374 0)
(2.34928 0.0677064 0)
(1.28892 0.19967 0)
(0.574444 0.336622 0)
(0.639422 0.370274 0)
(0.679226 0.368807 0)
(0.640422 0.381494 0)
(0.564957 0.40794 0)
(0.480516 0.440293 0)
(0.403944 0.475972 0)
(0.320298 0.516597 0)
(0.212431 0.562563 0)
(0.0955829 0.605218 0)
(3 9.20346e-08 0)
(2.99999 5.90789e-07 0)
(2.99998 1.98936e-06 0)
(2.99995 5.72143e-06 0)
(2.99987 1.47108e-05 0)
(2.99969 3.75522e-05 0)
(2.99924 9.30468e-05 0)
(2.9981 0.000229439 0)
(2.99536 0.000569487 0)
(2.98842 0.00139109 0)
(2.97105 0.00348327 0)
(2.92512 0.00879974 0)
(2.79656 0.0233965 0)
(2.4191 0.0653165 0)
(1.41853 0.192526 0)
(0.65474 0.386365 0)
(0.64743 0.419026 0)
(0.677681 0.415229 0)
(0.660754 0.431714 0)
(0.601367 0.461353 0)
(0.526371 0.502984 0)
(0.455241 0.549993 0)
(0.376333 0.605065 0)
(0.27041 0.676597 0)
(0.134092 0.764302 0)
(3 1.02064e-07 0)
(2.99999 5.57257e-07 0)
(2.99998 2.15435e-06 0)
(2.99995 5.4248e-06 0)
(2.99989 1.58692e-05 0)
(2.99972 3.60488e-05 0)
(2.99931 9.89998e-05 0)
(2.99832 0.000223543 0)
(2.9958 0.000595767 0)
(2.9897 0.00138702 0)
(2.97409 0.00358661 0)
(2.93342 0.00889493 0)
(2.82011 0.0237095 0)
(2.48909 0.066006 0)
(1.57218 0.19311 0)
(0.75534 0.434577 0)
(0.654736 0.451342 0)
(0.682828 0.453614 0)
(0.680776 0.476639 0)
(0.63741 0.5105 0)
(0.577018 0.560689 0)
(0.515915 0.619844 0)
(0.45193 0.696331 0)
(0.366406 0.812954 0)
(0.206784 1.0237 0)
(3 9.22632e-08 0)
(2.99999 6.24169e-07 0)
(2.99998 2.01635e-06 0)
(2.99996 6.1247e-06 0)
(2.9999 1.50438e-05 0)
(2.99976 4.03435e-05 0)
(2.99939 9.54015e-05 0)
(2.99851 0.000245786 0)
(2.99633 0.000589696 0)
(2.99091 0.00148564 0)
(2.9773 0.00365381 0)
(2.94189 0.00928766 0)
(2.8441 0.0243752 0)
(2.56022 0.0677696 0)
(1.74662 0.196893 0)
(0.874598 0.482922 0)
(0.66401 0.485534 0)
(0.695117 0.488255 0)
(0.706046 0.513203 0)
(0.676698 0.553124 0)
(0.632688 0.60909 0)
(0.59054 0.679769 0)
(0.561203 0.77673 0)
(0.560888 0.924962 0)
(0.602289 1.17545 0)
(3 9.91942e-08 0)
(2.99999 6.13476e-07 0)
(2.99999 2.12938e-06 0)
(2.99997 6.00387e-06 0)
(2.99991 1.58427e-05 0)
(2.99979 3.97865e-05 0)
(2.99948 0.000101033 0)
(2.99873 0.000244645 0)
(2.99684 0.000622805 0)
(2.99225 0.00149824 0)
(2.9806 0.00381299 0)
(2.95067 0.00949912 0)
(2.86896 0.0250128 0)
(2.63311 0.0690702 0)
(1.94291 0.200124 0)
(1.01635 0.526081 0)
(0.683978 0.523565 0)
(0.716231 0.524323 0)
(0.738402 0.544434 0)
(0.721781 0.588068 0)
(0.693932 0.647626 0)
(0.674769 0.726039 0)
(0.681887 0.83192 0)
(0.744583 0.977795 0)
(0.899037 1.16933 0)
(3 9.4105e-08 0)
(3 5.85312e-07 0)
(2.99999 2.06877e-06 0)
(2.99997 5.71465e-06 0)
(2.99993 1.53821e-05 0)
(2.99983 3.84073e-05 0)
(2.99956 9.68165e-05 0)
(2.99895 0.000241971 0)
(2.99737 0.000592855 0)
(2.99357 0.00150225 0)
(2.98397 0.00368454 0)
(2.95957 0.00940886 0)
(2.89386 0.0243966 0)
(2.707 0.0672293 0)
(2.15475 0.194631 0)
(1.18934 0.54478 0)
(0.734858 0.565892 0)
(0.754355 0.570485 0)
(0.78117 0.578196 0)
(0.775944 0.618484 0)
(0.760896 0.678527 0)
(0.761815 0.756951 0)
(0.794922 0.857679 0)
(0.884622 0.980039 0)
(1.06179 1.10095 0)
(3 8.16161e-08 0)
(3 5.30582e-07 0)
(2.99999 1.78455e-06 0)
(2.99998 5.18228e-06 0)
(2.99994 1.32354e-05 0)
(2.99986 3.43965e-05 0)
(2.99965 8.33967e-05 0)
(2.99914 0.000213108 0)
(2.99789 0.000512207 0)
(2.99482 0.00130089 0)
(2.98719 0.00316116 0)
(2.96796 0.00800942 0)
(2.91721 0.0204669 0)
(2.77624 0.0553005 0)
(2.36572 0.15793 0)
(1.40945 0.466595 0)
(0.836209 0.58941 0)
(0.814421 0.613886 0)
(0.832423 0.620105 0)
(0.838942 0.650299 0)
(0.832845 0.704293 0)
(0.845212 0.775372 0)
(0.892005 0.861317 0)
(0.987992 0.956438 0)
(1.15588 1.03394 0)
(3 6.77503e-08 0)
(3 4.44342e-07 0)
(2.99999 1.48796e-06 0)
(2.99998 4.32393e-06 0)
(2.99995 1.10559e-05 0)
(2.99988 2.84379e-05 0)
(2.99971 6.93571e-05 0)
(2.9993 0.000173599 0)
(2.99828 0.000419495 0)
(2.99578 0.00104567 0)
(2.98956 0.00253837 0)
(2.97399 0.00633796 0)
(2.93324 0.0159075 0)
(2.82087 0.0418567 0)
(2.49539 0.116036 0)
(1.62498 0.345209 0)
(0.934063 0.623436 0)
(0.855537 0.655902 0)
(0.872125 0.667642 0)
(0.891988 0.684514 0)
(0.899497 0.727287 0)
(0.920303 0.786869 0)
(0.972609 0.856105 0)
(1.06628 0.927665 0)
(1.21639 0.981068 0)
(3 5.82669e-08 0)
(3 3.89827e-07 0)
(2.99999 1.27341e-06 0)
(2.99998 3.79838e-06 0)
(2.99996 9.48159e-06 0)
(2.99991 2.49033e-05 0)
(2.99977 5.99701e-05 0)
(2.99944 0.000151291 0)
(2.99861 0.00036702 0)
(2.99659 0.000906482 0)
(2.9916 0.00223884 0)
(2.97908 0.00550657 0)
(2.94672 0.0139232 0)
(2.85845 0.0361521 0)
(2.60427 0.0997572 0)
(1.87915 0.290566 0)
(1.08374 0.665506 0)
(0.885755 0.691521 0)
(0.899056 0.704031 0)
(0.929966 0.712314 0)
(0.9552 0.745339 0)
(0.984715 0.794088 0)
(1.03905 0.849132 0)
(1.1274 0.902728 0)
(1.2591 0.941046 0)
(3 5.25396e-08 0)
(3 3.37545e-07 0)
(3 1.1316e-06 0)
(2.99999 3.30162e-06 0)
(2.99997 8.42194e-06 0)
(2.99993 2.17146e-05 0)
(2.99982 5.35441e-05 0)
(2.99956 0.000132862 0)
(2.99891 0.000330833 0)
(2.99734 0.000804995 0)
(2.9934 0.00202976 0)
(2.98371 0.00494879 0)
(2.95879 0.0126191 0)
(2.89199 0.0325373 0)
(2.70252 0.0893826 0)
(2.14426 0.258514 0)
(1.27867 0.680764 0)
(0.936145 0.723563 0)
(0.93356 0.732356 0)
(0.966207 0.735971 0)
(1.00465 0.757863 0)
(1.04096 0.797308 0)
(1.09508 0.841797 0)
(1.17682 0.882815 0)
(1.29194 0.910884 0)
(3 4.3929e-08 0)
(3 2.69404e-07 0)
(3 9.56656e-07 0)
(2.99999 2.63042e-06 0)
(2.99998 7.08129e-06 0)
(2.99994 1.75307e-05 0)
(2.99986 4.429e-05 0)
(2.99967 0.000108795 0)
(2.99917 0.00026811 0)
(2.99801 0.000668232 0)
(2.99505 0.00162272 0)
(2.9879 0.00409088 0)
(2.96973 0.0100873 0)
(2.92239 0.0260532 0)
(2.79213 0.0697945 0)
(2.41421 0.199589 0)
(1.54853 0.577199 0)
(1.04677 0.7307 0)
(0.993662 0.754969 0)
(1.01181 0.763731 0)
(1.05332 0.773498 0)
(1.0944 0.801665 0)
(1.14584 0.836367 0)
(1.21952 0.867831 0)
(1.31977 0.888484 0)
(3 3.40435e-08 0)
(3 2.15943e-07 0)
(3 7.42437e-07 0)
(2.99999 2.09934e-06 0)
(2.99998 5.48583e-06 0)
(2.99996 1.38324e-05 0)
(2.9999 3.41666e-05 0)
(2.99975 8.4643e-05 0)
(2.99937 0.000205486 0)
(2.99847 0.000508862 0)
(2.99625 0.00123214 0)
(2.99077 0.00305114 0)
(2.97707 0.00747946 0)
(2.94169 0.0188089 0)
(2.84519 0.0489926 0)
(2.56932 0.134724 0)
(1.81889 0.400783 0)
(1.16674 0.735879 0)
(1.04255 0.775836 0)
(1.05053 0.793095 0)
(1.09177 0.795495 0)
(1.13965 0.81067 0)
(1.19043 0.835144 0)
(1.2571 0.858328 0)
(1.34471 0.872994 0)
(3 2.66934e-08 0)
(3 1.7702e-07 0)
(3 5.86109e-07 0)
(2.99999 1.72548e-06 0)
(2.99999 4.34976e-06 0)
(2.99997 1.13398e-05 0)
(2.99992 2.72559e-05 0)
(2.99981 6.93747e-05 0)
(2.99953 0.000165654 0)
(2.99886 0.000417443 0)
(2.99717 0.00100381 0)
(2.99311 0.00251334 0)
(2.98284 0.00612549 0)
(2.95682 0.0154964 0)
(2.88682 0.0398451 0)
(2.6886 0.108814 0)
(2.11188 0.316903 0)
(1.34791 0.755122 0)
(1.09201 0.807566 0)
(1.08554 0.820368 0)
(1.12137 0.819056 0)
(1.17531 0.821165 0)
(1.22854 0.836277 0)
(1.29024 0.852758 0)
(1.36765 0.862763 0)
(3 2.09226e-08 0)
(3 1.36066e-07 0)
(3 4.63142e-07 0)
(3 1.32562e-06 0)
(2.99999 3.43158e-06 0)
(2.99998 8.80068e-06 0)
(2.99994 2.13462e-05 0)
(2.99986 5.43317e-05 0)
(2.99966 0.000128516 0)
(2.99917 0.00033028 0)
(2.99799 0.00077485 0)
(2.99503 0.0019967 0)
(2.98789 0.00474817 0)
(2.96974 0.0121538 0)
(2.92263 0.0306379 0)
(2.79352 0.0826948 0)
(2.418 0.236175 0)
(1.62384 0.653421 0)
(1.19636 0.80996 0)
(1.14127 0.835099 0)
(1.15843 0.841381 0)
(1.20881 0.835938 0)
(1.26439 0.840887 0)
(1.32175 0.850631 0)
(1.39015 0.856586 0)
(3 1.65067e-08 0)
(3 1.0064e-07 0)
(3 3.53798e-07 0)
(3 9.78702e-07 0)
(2.99999 2.61022e-06 0)
(2.99998 6.42771e-06 0)
(2.99996 1.63349e-05 0)
(2.9999 3.90186e-05 0)
(2.99976 9.84695e-05 0)
(2.9994 0.000233826 0)
(2.99856 0.000588166 0)
(2.99642 0.00140285 0)
(2.9913 0.00350735 0)
(2.97837 0.00852161 0)
(2.94538 0.0215015 0)
(2.85627 0.0557184 0)
(2.60287 0.153395 0)
(1.92265 0.451592 0)
(1.32713 0.797589 0)
(1.1947 0.84554 0)
(1.19535 0.864061 0)
(1.23678 0.858711 0)
(1.29413 0.851568 0)
(1.3503 0.852814 0)
(1.41221 0.854489 0)
(3 1.24728e-08 0)
(3 7.61119e-08 0)
(3 2.66327e-07 0)
(3 7.40472e-07 0)
(3 1.96393e-06 0)
(2.99999 4.85682e-06 0)
(2.99997 1.23055e-05 0)
(2.99993 2.95015e-05 0)
(2.99983 7.45956e-05 0)
(2.99958 0.00017635 0)
(2.99897 0.000448277 0)
(2.99746 0.0010572 0)
(2.99382 0.00268619 0)
(2.98471 0.00644476 0)
(2.96174 0.0163251 0)
(2.90084 0.0415343 0)
(2.73062 0.112442 0)
(2.23625 0.326226 0)
(1.52857 0.773127 0)
(1.26043 0.863455 0)
(1.23662 0.882421 0)
(1.26069 0.881277 0)
(1.31488 0.867753 0)
(1.37396 0.860506 0)
(1.43303 0.857185 0)
(3 8.78129e-09 0)
(3 5.76229e-08 0)
(3 1.90904e-07 0)
(3 5.60186e-07 0)
(3 1.41368e-06 0)
(2.99999 3.65715e-06 0)
(2.99998 8.87259e-06 0)
(2.99995 2.21441e-05 0)
(2.99988 5.39215e-05 0)
(2.99971 0.00013177 0)
(2.99929 0.000325557 0)
(2.99828 0.000784449 0)
(2.99579 0.00196207 0)
(2.98973 0.00472895 0)
(2.97457 0.0119031 0)
(2.93565 0.0298335 0)
(2.83059 0.0793149 0)
(2.52809 0.223767 0)
(1.82607 0.622435 0)
(1.37852 0.854285 0)
(1.29394 0.887265 0)
(1.29695 0.897971 0)
(1.33873 0.886292 0)
(1.39613 0.87139 0)
(1.453 0.863173 0)
(3 6.15058e-09 0)
(3 4.14471e-08 0)
(3 1.35745e-07 0)
(3 4.02627e-07 0)
(3 1.00376e-06 0)
(2.99999 2.6324e-06 0)
(2.99999 6.24865e-06 0)
(2.99997 1.59391e-05 0)
(2.99992 3.76343e-05 0)
(2.9998 9.47265e-05 0)
(2.99951 0.000225361 0)
(2.99883 0.00056112 0)
(2.9971 0.00134991 0)
(2.99299 0.00333259 0)
(2.98264 0.00815441 0)
(2.95662 0.0202996 0)
(2.8874 0.0521921 0)
(2.69353 0.141297 0)
(2.14988 0.412446 0)
(1.54097 0.833151 0)
(1.35046 0.899874 0)
(1.33406 0.913239 0)
(1.35931 0.905743 0)
(1.41327 0.885777 0)
(1.47119 0.871475 0)
(3 4.56638e-09 0)
(3 2.8209e-08 0)
(3 9.86097e-08 0)
(3 2.74379e-07 0)
(3 7.2559e-07 0)
(3 1.80497e-06 0)
(2.99999 4.49378e-06 0)
(2.99998 1.09759e-05 0)
(2.99995 2.68675e-05 0)
(2.99987 6.5784e-05 0)
(2.99968 0.00015931 0)
(2.99922 0.000393093 0)
(2.9981 0.000947124 0)
(2.99539 0.00234759 0)
(2.98869 0.00569959 0)
(2.97215 0.0141814 0)
(2.92938 0.035814 0)
(2.81406 0.0949783 0)
(2.48065 0.271316 0)
(1.81358 0.698923 0)
(1.45079 0.882522 0)
(1.38662 0.912972 0)
(1.39096 0.919774 0)
(1.43272 0.903527 0)
(1.48879 0.881407 0)
(3 3.20082e-09 0)
(3 1.91603e-08 0)
(3 6.83952e-08 0)
(3 1.85802e-07 0)
(3 5.02241e-07 0)
(3 1.21763e-06 0)
(2.99999 3.10839e-06 0)
(2.99999 7.37998e-06 0)
(2.99996 1.85188e-05 0)
(2.99991 4.39753e-05 0)
(2.99978 0.000109199 0)
(2.99948 0.000261658 0)
(2.99873 0.000642546 0)
(2.99695 0.0015577 0)
(2.99249 0.0038014 0)
(2.98167 0.00933827 0)
(2.95401 0.0231656 0)
(2.88105 0.0595899 0)
(2.67628 0.162072 0)
(2.1274 0.463456 0)
(1.59232 0.848215 0)
(1.441 0.915015 0)
(1.42594 0.929898 0)
(1.44979 0.922029 0)
(1.501 0.897082 0)
(3 2.11706e-09 0)
(3 1.32891e-08 0)
(3 4.61375e-08 0)
(3 1.28804e-07 0)
(3 3.38855e-07 0)
(3 8.44825e-07 0)
(3 2.08681e-06 0)
(2.99999 5.12996e-06 0)
(2.99998 1.23858e-05 0)
(2.99994 3.05635e-05 0)
(2.99986 7.31047e-05 0)
(2.99967 0.000181331 0)
(2.99918 0.000431579 0)
(2.99803 0.00107408 0)
(2.99517 0.00256494 0)
(2.98826 0.00638969 0)
(2.97095 0.0155522 0)
(2.92646 0.0396195 0)
(2.8061 0.104415 0)
(2.45928 0.298324 0)
(1.84072 0.729338 0)
(1.52761 0.899191 0)
(1.47158 0.929945 0)
(1.47584 0.936272 0)
(1.51503 0.918211 0)
(3 1.40031e-09 0)
(3 9.04149e-09 0)
(3 3.0603e-08 0)
(3 8.76783e-08 0)
(3 2.24505e-07 0)
(3 5.7294e-07 0)
(3 1.38402e-06 0)
(2.99999 3.45303e-06 0)
(2.99998 8.24075e-06 0)
(2.99996 2.043e-05 0)
(2.99991 4.87476e-05 0)
(2.99978 0.000120147 0)
(2.99948 0.000288343 0)
(2.99873 0.000706508 0)
(2.99692 0.00170766 0)
(2.99248 0.0041771 0)
(2.98162 0.0102168 0)
(2.95411 0.0253829 0)
(2.88168 0.0653877 0)
(2.67864 0.178244 0)
(2.15204 0.50099 0)
(1.66625 0.862837 0)
(1.52617 0.931147 0)
(1.50887 0.946026 0)
(1.52823 0.938161 0)
(3 9.13108e-10 0)
(3 6.06014e-09 0)
(3 2.00004e-08 0)
(3 5.86688e-08 0)
(3 1.46915e-07 0)
(3 3.81017e-07 0)
(3 9.08138e-07 0)
(3 2.28739e-06 0)
(2.99999 5.42035e-06 0)
(2.99998 1.34665e-05 0)
(2.99994 3.2086e-05 0)
(2.99986 7.8849e-05 0)
(2.99967 0.000189952 0)
(2.99921 0.000461356 0)
(2.99806 0.00112399 0)
(2.99534 0.00271231 0)
(2.98859 0.00667944 0)
(2.97206 0.0162856 0)
(2.92944 0.0412604 0)
(2.81527 0.108332 0)
(2.48799 0.308757 0)
(1.91187 0.731837 0)
(1.61271 0.90925 0)
(1.55361 0.942792 0)
(1.55306 0.949675 0)
(3 6.15398e-10 0)
(3 3.82055e-09 0)
(3 1.3295e-08 0)
(3 3.70181e-08 0)
(3 9.73174e-08 0)
(3 2.41338e-07 0)
(3 5.98145e-07 0)
(3 1.45335e-06 0)
(2.99999 3.53531e-06 0)
(2.99999 8.61077e-06 0)
(2.99996 2.07142e-05 0)
(2.99991 5.07032e-05 0)
(2.99979 0.000121385 0)
(2.9995 0.000297936 0)
(2.9988 0.000712521 0)
(2.9971 0.00175094 0)
(2.99293 0.00421246 0)
(2.9828 0.0103832 0)
(2.95719 0.0255457 0)
(2.89038 0.0655666 0)
(2.70408 0.177687 0)
(2.22205 0.492443 0)
(1.75471 0.865244 0)
(1.60788 0.940364 0)
(1.58551 0.956041 0)
(3 3.95381e-10 0)
(3 2.43762e-09 0)
(3 8.48545e-09 0)
(3 2.36019e-08 0)
(3 6.21183e-08 0)
(3 1.53385e-07 0)
(3 3.82325e-07 0)
(3 9.18818e-07 0)
(3 2.2612e-06 0)
(2.99999 5.41578e-06 0)
(2.99998 1.32549e-05 0)
(2.99995 3.17791e-05 0)
(2.99987 7.74453e-05 0)
(2.9997 0.000186668 0)
(2.99927 0.000452561 0)
(2.99826 0.00109643 0)
(2.99578 0.00265495 0)
(2.98981 0.00647722 0)
(2.97506 0.0158555 0)
(2.93777 0.0397144 0)
(2.83896 0.103954 0)
(2.558 0.292972 0)
(2.01387 0.703001 0)
(1.7017 0.904446 0)
(1.63331 0.946543 0)
(3 2.40474e-10 0)
(3 1.5533e-09 0)
(3 5.26843e-09 0)
(3 1.50112e-08 0)
(3 3.84596e-08 0)
(3 9.76174e-08 0)
(3 2.34535e-07 0)
(3 5.85105e-07 0)
(3 1.37873e-06 0)
(2.99999 3.43462e-06 0)
(2.99999 8.04543e-06 0)
(2.99997 2.00152e-05 0)
(2.99992 4.69652e-05 0)
(2.99982 0.000116111 0)
(2.99955 0.000274094 0)
(2.99894 0.000673365 0)
(2.99741 0.00160202 0)
(2.99379 0.00391226 0)
(2.98477 0.00944307 0)
(2.96253 0.0232396 0)
(2.90474 0.0586237 0)
(2.74598 0.1566 0)
(2.32435 0.43145 0)
(1.8545 0.827898 0)
(1.68842 0.930572 0)
(3 1.56431e-10 0)
(3 9.42824e-10 0)
(3 3.35243e-09 0)
(3 9.10456e-09 0)
(3 2.44151e-08 0)
(3 5.91678e-08 0)
(3 1.49187e-07 0)
(3 3.54523e-07 0)
(3 8.7536e-07 0)
(3 2.08615e-06 0)
(2.99999 5.08212e-06 0)
(2.99998 1.22334e-05 0)
(2.99995 2.94347e-05 0)
(2.99989 7.16066e-05 0)
(2.99974 0.000170441 0)
(2.99937 0.000419355 0)
(2.99848 0.000989943 0)
(2.99634 0.00245282 0)
(2.99113 0.00582399 0)
(2.97843 0.0144614 0)
(2.94643 0.0355458 0)
(2.86259 0.0924762 0)
(2.62553 0.255323 0)
(2.12408 0.642378 0)
(1.79143 0.890609 0)
(3 9.31824e-11 0)
(3 5.87232e-10 0)
(3 2.00394e-09 0)
(3 5.66712e-09 0)
(3 1.46501e-08 0)
(3 3.65353e-08 0)
(3 9.00189e-08 0)
(3 2.16735e-07 0)
(3 5.30688e-07 0)
(3 1.26316e-06 0)
(3 3.0938e-06 0)
(2.99999 7.33406e-06 0)
(2.99997 1.79452e-05 0)
(2.99993 4.26017e-05 0)
(2.99984 0.00010391 0)
(2.99962 0.000247419 0)
(2.9991 0.000601331 0)
(2.99781 0.00143904 0)
(2.99477 0.00349156 0)
(2.98723 0.00842223 0)
(2.96883 0.0206542 0)
(2.9215 0.0516567 0)
(2.794 0.136091 0)
(2.44586 0.377672 0)
(1.97764 0.778389 0)
(3 5.59011e-11 0)
(3 3.59664e-10 0)
(3 1.20949e-09 0)
(3 3.47214e-09 0)
(3 8.84924e-09 0)
(3 2.23621e-08 0)
(3 5.42693e-08 0)
(3 1.3262e-07 0)
(3 3.2001e-07 0)
(3 7.71184e-07 0)
(3 1.86833e-06 0)
(2.99999 4.46251e-06 0)
(2.99998 1.08838e-05 0)
(2.99996 2.58264e-05 0)
(2.99991 6.32217e-05 0)
(2.99978 0.000149817 0)
(2.99947 0.000366815 0)
(2.99874 0.000871666 0)
(2.99695 0.00212937 0)
(2.9927 0.00511155 0)
(2.9822 0.0125069 0)
(2.95621 0.0307782 0)
(2.88882 0.0785659 0)
(2.70043 0.213817 0)
(2.26239 0.556405 0)
(3 3.45531e-11 0)
(3 2.12045e-10 0)
(3 7.39631e-10 0)
(3 2.04653e-09 0)
(3 5.38336e-09 0)
(3 1.32072e-08 0)
(3 3.28627e-08 0)
(3 7.83107e-08 0)
(3 1.92465e-07 0)
(3 4.56164e-07 0)
(3 1.11568e-06 0)
(3 2.64385e-06 0)
(2.99999 6.4415e-06 0)
(2.99998 1.53359e-05 0)
(2.99995 3.71122e-05 0)
(2.99987 8.88834e-05 0)
(2.9997 0.000213609 0)
(2.99928 0.000516125 0)
(2.9983 0.00123055 0)
(2.99587 0.00299692 0)
(2.99015 0.0071713 0)
(2.976 0.0175803 0)
(2.94076 0.0435383 0)
(2.84811 0.113118 0)
(2.59062 0.313345 0)
(3 1.9632e-11 0)
(3 1.27609e-10 0)
(3 4.28732e-10 0)
(3 1.22878e-09 0)
(3 3.1233e-09 0)
(3 7.91693e-09 0)
(3 1.89743e-08 0)
(3 4.68915e-08 0)
(3 1.10658e-07 0)
(3 2.71734e-07 0)
(3 6.40242e-07 0)
(3 1.56398e-06 0)
(2.99999 3.69546e-06 0)
(2.99999 8.96642e-06 0)
(2.99997 2.13406e-05 0)
(2.99993 5.13006e-05 0)
(2.99983 0.00012308 0)
(2.99959 0.000293067 0)
(2.99901 0.000710081 0)
(2.99765 0.00167633 0)
(2.99434 0.00409319 0)
(2.98635 0.00972152 0)
(2.96662 0.023908 0)
(2.91644 0.0593332 0)
(2.78041 0.157062 0)
(3 1.18771e-11 0)
(3 7.3079e-11 0)
(3 2.55655e-10 0)
(3 7.03924e-10 0)
(3 1.85636e-09 0)
(3 4.53641e-09 0)
(3 1.12543e-08 0)
(3 2.69092e-08 0)
(3 6.53499e-08 0)
(3 1.56547e-07 0)
(3 3.75133e-07 0)
(3 9.06591e-07 0)
(3 2.14871e-06 0)
(2.99999 5.23077e-06 0)
(2.99998 1.23215e-05 0)
(2.99996 3.01278e-05 0)
(2.9999 7.07744e-05 0)
(2.99977 0.0001731 0)
(2.99945 0.000407486 0)
(2.99869 0.000994949 0)
(2.99685 0.00235524 0)
(2.99247 0.0057436 0)
(2.98177 0.0137978 0)
(2.95527 0.0341225 0)
(2.88701 0.0864762 0)
(3 6.70917e-12 0)
(3 4.25628e-11 0)
(3 1.44515e-10 0)
(3 4.09717e-10 0)
(3 1.04946e-09 0)
(3 2.6259e-09 0)
(3 6.37742e-09 0)
(3 1.5442e-08 0)
(3 3.72641e-08 0)
(3 8.87841e-08 0)
(3 2.15212e-07 0)
(3 5.08431e-07 0)
(3 1.23788e-06 0)
(3 2.91089e-06 0)
(2.99999 7.09325e-06 0)
(2.99998 1.66915e-05 0)
(2.99995 4.06006e-05 0)
(2.99987 9.56654e-05 0)
(2.9997 0.000232016 0)
(2.99928 0.00054971 0)
(2.99829 0.00132544 0)
(2.99587 0.00316609 0)
(2.9902 0.00763666 0)
(2.97621 0.0184683 0)
(2.94163 0.045764 0)
(3 3.75688e-12 0)
(3 2.41814e-11 0)
(3 8.16879e-11 0)
(3 2.32269e-10 0)
(3 5.92891e-10 0)
(3 1.4905e-09 0)
(3 3.58029e-09 0)
(3 8.7837e-09 0)
(3 2.0727e-08 0)
(3 5.05554e-08 0)
(3 1.18914e-07 0)
(3 2.89009e-07 0)
(3 6.8032e-07 0)
(3 1.64611e-06 0)
(2.99999 3.89475e-06 0)
(2.99999 9.35155e-06 0)
(2.99997 2.22679e-05 0)
(2.99993 5.30319e-05 0)
(2.99983 0.000127322 0)
(2.9996 0.000300516 0)
(2.99903 0.000726334 0)
(2.99772 0.00170787 0)
(2.99449 0.00414547 0)
(2.98686 0.00981278 0)
(2.96795 0.0240025 0)
(3 2.1934e-12 0)
(3 1.32437e-11 0)
(3 4.63594e-11 0)
(3 1.27244e-10 0)
(3 3.35016e-10 0)
(3 8.14006e-10 0)
(3 2.02538e-09 0)
(3 4.77114e-09 0)
(3 1.17e-08 0)
(3 2.74189e-08 0)
(3 6.67525e-08 0)
(3 1.56885e-07 0)
(3 3.78836e-07 0)
(3 8.97442e-07 0)
(3 2.14598e-06 0)
(2.99999 5.12929e-06 0)
(2.99998 1.21348e-05 0)
(2.99996 2.93312e-05 0)
(2.99991 6.86807e-05 0)
(2.99977 0.000167305 0)
(2.99946 0.000389737 0)
(2.99872 0.000953594 0)
(2.99695 0.00222301 0)
(2.99271 0.00544831 0)
(2.98244 0.0128944 0)
(3 1.12425e-12 0)
(3 7.25114e-12 0)
(3 2.42516e-11 0)
(3 6.97867e-11 0)
(3 1.75079e-10 0)
(3 4.43561e-10 0)
(3 1.05536e-09 0)
(3 2.57643e-09 0)
(3 6.09879e-09 0)
(3 1.46034e-08 0)
(3 3.48182e-08 0)
(3 8.22031e-08 0)
(3 1.98106e-07 0)
(3 4.61688e-07 0)
(3 1.1227e-06 0)
(3 2.59627e-06 0)
(2.99999 6.33488e-06 0)
(2.99998 1.4623e-05 0)
(2.99995 3.55907e-05 0)
(2.99987 8.2418e-05 0)
(2.99969 0.000199306 0)
(2.99925 0.000465182 0)
(2.99824 0.00111393 0)
(2.99574 0.0026304 0)
(2.98991 0.00627409 0)
(3 5.63004e-13 0)
(3 3.70785e-12 0)
(3 1.25595e-11 0)
(3 3.53382e-11 0)
(3 9.03869e-11 0)
(3 2.24745e-10 0)
(3 5.34457e-10 0)
(3 1.30651e-09 0)
(3 3.01729e-09 0)
(3 7.38588e-09 0)
(3 1.68457e-08 0)
(3 4.11842e-08 0)
(3 9.38966e-08 0)
(3 2.27665e-07 0)
(3 5.22042e-07 0)
(3 1.24959e-06 0)
(2.99999 2.89748e-06 0)
(2.99998 6.80652e-06 0)
(2.99996 1.59822e-05 0)
(2.99991 3.68234e-05 0)
(2.99978 8.77441e-05 0)
(2.99948 0.000197368 0)
(2.99875 0.000476518 0)
(2.99701 0.00105535 0)
(2.99276 0.00255221 0)
(3 3.05128e-13 0)
(3 1.76418e-12 0)
(3 6.22948e-12 0)
(3 1.68223e-11 0)
(3 4.45988e-11 0)
(3 1.06304e-10 0)
(3 2.616e-10 0)
(3 6.11462e-10 0)
(3 1.45258e-09 0)
(3 3.41553e-09 0)
(3 7.9135e-09 0)
(3 1.88627e-08 0)
(3 4.27021e-08 0)
(3 1.03175e-07 0)
(3 2.2884e-07 0)
(3 5.59055e-07 0)
(2.99999 1.21816e-06 0)
(2.99999 2.98799e-06 0)
(2.99997 6.46508e-06 0)
(2.99993 1.56637e-05 0)
(2.99982 3.41096e-05 0)
(2.99957 8.06234e-05 0)
(2.99895 0.000177711 0)
(2.99747 0.000405892 0)
(2.99376 0.000910955 0)
(3 1.42125e-13 0)
(3 8.06923e-13 0)
(3 2.92116e-12 0)
(3 7.73622e-12 0)
(3 2.0783e-11 0)
(3 4.82477e-11 0)
(3 1.21752e-10 0)
(3 2.6921e-10 0)
(3 6.74451e-10 0)
(3 1.45798e-09 0)
(3 3.63297e-09 0)
(3 7.85541e-09 0)
(3 1.91525e-08 0)
(3 4.22697e-08 0)
(3 9.91519e-08 0)
(3 2.26526e-07 0)
(3 5.02884e-07 0)
(2.99999 1.2082e-06 0)
(2.99997 2.50594e-06 0)
(2.99993 6.31859e-06 0)
(2.99984 1.21932e-05 0)
(2.9996 3.26619e-05 0)
(2.99902 5.79322e-05 0)
(2.99762 0.000162143 0)
(2.9941 0.000275492 0)
(3 3.61479e-14 0)
(3 3.85507e-13 0)
(3 1.23433e-12 0)
(3 3.58999e-12 0)
(3 8.60556e-12 0)
(3 2.22488e-11 0)
(3 4.99814e-11 0)
(3 1.22042e-10 0)
(3 2.74118e-10 0)
(3 6.40868e-10 0)
(3 1.45949e-09 0)
(3 3.31395e-09 0)
(3 7.70454e-09 0)
(3 1.68072e-08 0)
(3 3.98018e-08 0)
(3 8.49593e-08 0)
(3 2.0419e-07 0)
(2.99999 4.16605e-07 0)
(2.99997 1.02995e-06 0)
(2.99994 2.03828e-06 0)
(2.99984 5.13193e-06 0)
(2.99961 9.54091e-06 0)
(2.99906 2.5401e-05 0)
(2.99765 4.55159e-05 0)
(2.99425 0.00011801 0)
(3 1.99838e-14 0)
(3 2.03322e-13 0)
(3 4.32926e-13 0)
(3 1.79844e-12 0)
(3 3.08026e-12 0)
(3 1.10924e-11 0)
(3 1.76755e-11 0)
(3 6.13458e-11 0)
(3 9.43193e-11 0)
(3 3.19041e-10 0)
(3 5.1077e-10 0)
(3 1.55874e-09 0)
(3 2.8125e-09 0)
(3 7.22371e-09 0)
(3 1.59363e-08 0)
(3 3.0667e-08 0)
(3 9.25574e-08 0)
(2.99999 1.18629e-07 0)
(2.99997 5.30048e-07 0)
(2.99994 4.07855e-07 0)
(2.99984 3.05527e-06 0)
(2.99962 1.03724e-06 0)
(2.99905 1.69429e-05 0)
(2.9977 2.58947e-06 0)
(2.99425 8.43176e-05 0)
(3 2.51544e-14 0)
(3 8.24426e-14 0)
(3 2.48484e-13 0)
(3 5.10305e-13 0)
(3 1.8549e-12 0)
(3 2.909e-12 0)
(3 1.10853e-11 0)
(3 1.32367e-11 0)
(3 6.66048e-11 0)
(3 4.99229e-11 0)
(3 3.95796e-10 0)
(3 1.81913e-10 0)
(3 2.20414e-09 0)
(3 7.89202e-10 0)
(3 1.17097e-08 0)
(3 4.21192e-09 0)
(3 5.7964e-08 0)
(2.99999 3.49892e-08 0)
(2.99997 2.50567e-07 0)
(2.99994 2.97685e-07 0)
(2.99985 8.96149e-07 0)
(2.99962 2.51858e-06 0)
(2.99906 1.58594e-06 0)
(2.99771 1.83979e-05 0)
(2.99427 -1.12515e-07 0)
(3 4.75346e-15 0)
(3 1.23291e-14 0)
(3 7.90803e-14 0)
(3 2.21387e-14 0)
(3 5.89989e-13 0)
(3 -1.23386e-13 0)
(3 4.17839e-12 0)
(3 -3.16084e-12 0)
(3 2.94102e-11 0)
(3 -3.3787e-11 0)
(3 1.91643e-10 0)
(3 -2.19657e-10 0)
(3 1.11252e-09 0)
(3 -1.18549e-09 0)
(3 5.82222e-09 0)
(3 -4.99819e-09 0)
(3 2.6578e-08 0)
(2.99999 -1.32841e-08 0)
(2.99997 8.6178e-08 0)
(2.99994 5.09093e-08 0)
(2.99985 1.77958e-08 0)
(2.99962 1.12669e-06 0)
(2.99907 -2.63943e-06 0)
(2.9977 1.0396e-05 0)
(2.99431 -1.99504e-05 0)
(1.27387 1.08007 0)
(1.66011 0.874934 0)
(1.75933 0.62387 0)
(1.59586 0.332936 0)
(1.07413 0.133713 0)
(0.472046 0.208411 0)
(0.10734 0.232787 0)
(-0.10629 0.154686 0)
(-0.304673 0.0773583 0)
(-0.426534 0.0415612 0)
(-0.538217 0.0176919 0)
(-0.626085 -0.00126025 0)
(-0.691729 -0.0114827 0)
(-0.735341 -0.0112866 0)
(-0.765302 -0.00337193 0)
(-0.793323 0.0045204 0)
(-0.825551 0.0102439 0)
(-0.862058 0.0126959 0)
(-0.899219 0.0115208 0)
(-0.934773 0.00877044 0)
(-0.968345 0.00575284 0)
(-1.00082 0.00269191 0)
(-1.03449 0.000644037 0)
(-1.06529 0.00161416 0)
(-1.08502 0.00203919 0)
(-1.09415 0.00125717 0)
(-1.09727 -0.000128421 0)
(-1.08923 -0.00212154 0)
(-1.06131 -0.00569487 0)
(-1.01309 -0.0103837 0)
(-0.947204 -0.0152928 0)
(-0.86908 -0.01954 0)
(-0.783628 -0.0229071 0)
(-0.694465 -0.0256792 0)
(-0.605752 -0.0274445 0)
(-0.520017 -0.0285063 0)
(-0.438353 -0.0296023 0)
(-0.360394 -0.0309276 0)
(-0.284224 -0.0334411 0)
(-0.211875 -0.0341836 0)
(-0.142609 -0.0345126 0)
(-0.0763915 -0.0362707 0)
(-0.00996992 -0.0379475 0)
(0.0568379 -0.0329542 0)
(0.114141 -0.0298935 0)
(0.169892 -0.0283708 0)
(0.222492 -0.0270776 0)
(0.272357 -0.0257673 0)
(0.318527 -0.0242857 0)
(0.36297 -0.0233827 0)
(0.409114 -0.0233821 0)
(0.455055 -0.0227926 0)
(0.498693 -0.021763 0)
(0.540294 -0.0206552 0)
(0.580442 -0.0197195 0)
(0.619275 -0.0188292 0)
(0.656959 -0.0180241 0)
(0.693497 -0.0172065 0)
(0.728999 -0.0164522 0)
(0.763454 -0.0156913 0)
(0.796967 -0.0149833 0)
(0.829537 -0.0142781 0)
(0.861241 -0.0136214 0)
(0.892077 -0.012973 0)
(0.92211 -0.0123686 0)
(0.951337 -0.0117771 0)
(0.979808 -0.0112258 0)
(1.00752 -0.0106904 0)
(1.03451 -0.0101915 0)
(1.06076 -0.00971088 0)
(1.08632 -0.00926512 0)
(1.11115 -0.00884106 0)
(1.13528 -0.00845256 0)
(1.15869 -0.00809157 0)
(1.18136 -0.00776976 0)
(1.20325 -0.00748441 0)
(1.22435 -0.00724644 0)
(1.24458 -0.00706065 0)
(1.26391 -0.00693307 0)
(1.28225 -0.00687085 0)
(1.29954 -0.00688321 0)
(1.31569 -0.00697879 0)
(1.3306 -0.00716167 0)
(1.34416 -0.00743086 0)
(1.35622 -0.00778227 0)
(1.36625 -0.00817138 0)
(1.37491 -0.00861 0)
(1.38307 -0.0090905 0)
(1.39029 -0.00959994 0)
(1.39594 -0.0101096 0)
(1.40006 -0.0105242 0)
(1.40325 -0.0107574 0)
(1.40589 -0.0107802 0)
(1.40835 -0.0105607 0)
(1.41105 -0.0101048 0)
(1.41437 -0.00945464 0)
(1.41842 -0.00864996 0)
(1.42321 -0.00774047 0)
(1.42764 -0.00675992 0)
(1.43872 -0.00616701 0)
(1.36576 0.991129 0)
(1.66457 0.70713 0)
(1.77816 0.409759 0)
(1.75303 0.180102 0)
(1.64105 0.0317794 0)
(1.28048 0.119171 0)
(0.918535 0.245256 0)
(0.70897 0.239183 0)
(0.549733 0.210453 0)
(0.40653 0.179321 0)
(0.267116 0.1515 0)
(0.139404 0.126945 0)
(0.0210146 0.10409 0)
(-0.104837 0.0775745 0)
(-0.217503 0.0560567 0)
(-0.32226 0.0461599 0)
(-0.416051 0.0425433 0)