/*--------------------------------*- C++ -*----------------------------------*\
  =========                 |
  \\      /  F ield         | OpenFOAM: The Open Source CFD Toolbox
   \\    /   O peration     | Website:  https://openfoam.org
    \\  /    A nd           | Version:  13
     \\/     M anipulation  |
\*---------------------------------------------------------------------------*/
FoamFile
{
    format      ascii;
    class       volScalarField;
    location    "2";
    object      p;
}
// * * * * * * * * * * * * * * * * * * * * * * * * * * * * * * * * * * * * * //

dimensions      [1 -1 -2 0 0 0 0];

internalField   nonuniform List<scalar> 
5250
(
1
1.00002
1.00006
1.00015
1.00038
1.00094
1.00228
1.00578
1.01385
1.03533
1.08615
1.2219
1.58453
2.64168
5.83384
12.3617
11.5498
11.1003
11.1855
11.4376
11.699
11.8597
11.9808
12.0778
12.1518
1
1.00002
1.00006
1.00015
1.00037
1.00093
1.00226
1.00573
1.01369
1.03499
1.08522
1.21955
1.57789
2.62243
5.77558
12.3033
11.5324
11.0901
11.1761
11.4276
11.6881
11.8491
11.9722
12.071
12.1467
1
1.00002
1.00006
1.00014
1.00038
1.00088
1.0023
1.00543
1.01376
1.03362
1.08428
1.21358
1.56527
2.58167
5.65186
12.1713
11.4902
11.0621
11.1456
11.3903
11.6458
11.8046
11.9273
12.0251
12.1005
1
1.00002
1.00006
1.00014
1.00037
1.00084
1.00226
1.00512
1.01372
1.0317
1.08292
1.2047
1.54719
2.52153
5.47045
11.9611
11.42
11.019
11.0956
11.3238
11.5705
11.725
11.8441
11.9391
12.0144
1
1.00002
1.00005
1.00013
1.00035
1.00081
1.00213
1.00503
1.01278
1.03116
1.07809
1.1973
1.52001
2.4483
5.23849
11.6641
11.3146
10.9675
11.0307
11.2297
11.4654
11.6146
11.728
11.8187
11.8945
1
1.00002
1.00005
1.00012
1.00033
1.00077
1.00202
1.00476
1.01212
1.02947
1.07397
1.18639
1.49008
2.36053
4.96535
11.2672
11.1668
10.9165
10.9532
11.1041
11.3256
11.4665
11.5695
11.6517
11.7274
1
1.00002
1.00005
1.00012
1.00031
1.00071
1.00191
1.00435
1.01163
1.02687
1.0703
1.17235
1.4574
2.25924
4.65543
10.7364
11.013
10.8617
10.8599
10.9523
11.1482
11.2765
11.3599
11.423
11.4897
1
1.00001
1.00004
1.0001
1.00029
1.00065
1.00177
1.004
1.0107
1.02483
1.06451
1.15854
1.41814
2.14643
4.31156
10.0532
10.9089
10.7806
10.7205
10.7837
10.9349
11.0373
11.0865
11.1105
11.1453
1
1.00001
1.00004
1.0001
1.00026
1.00059
1.0016
1.00362
1.00968
1.02244
1.05835
1.14291
1.37558
2.02302
3.93919
9.21759
10.8246
10.694
10.553
10.5897
10.688
10.7427
10.7334
10.6789
10.6116
1
1.00001
1.00003
1.00009
1.00022
1.00054
1.00139
1.00324
1.00853
1.01981
1.0517
1.12563
1.32977
1.88867
3.54052
8.22015
10.7622
10.611
10.367
10.3723
10.405
10.3906
10.2978
10.068
9.70256
1
1.00001
1.00003
1.00008
1.00019
1.00048
1.00114
1.00296
1.00689
1.01805
1.04261
1.11012
1.27755
1.75105
3.11745
7.07975
10.7128
10.5311
10.1845
10.1259
10.099
10.0021
9.73596
9.11868
7.5306
1
1.00001
1.00002
1.00007
1.00015
1.00041
1.00096
1.00243
1.00593
1.01458
1.03636
1.08987
1.22955
1.60603
2.69015
5.82458
10.5889
10.4137
10.0339
9.88413
9.79232
9.59301
9.16621
8.31463
6.64495
1
1.00001
1.00002
1.00005
1.00014
1.00032
1.00083
1.00195
1.00494
1.01203
1.02971
1.07383
1.18583
1.48541
2.33005
4.75987
10.1696
10.1566
9.91628
9.64878
9.48127
9.20113
8.67312
7.79469
6.43188
1
1.00001
1.00002
1.00004
1.00011
1.00026
1.0007
1.00158
1.00422
1.00959
1.02547
1.0597
1.15507
1.39555
2.08455
4.06757
9.14685
9.86331
9.71682
9.41702
9.18003
8.85131
8.30901
7.49847
6.40892
1
1
1.00001
1.00004
1.00009
1.00023
1.00052
1.0014
1.00317
1.00848
1.01945
1.05101
1.12299
1.32235
1.86254
3.43296
7.69866
9.61509
9.51378
9.24096
8.92226
8.56022
8.03955
7.31494
6.40659
1
1
1.00001
1.00003
1.00007
1.00017
1.00044
1.00104
1.00271
1.00626
1.01644
1.03854
1.09944
1.2485
1.66519
2.84295
6.16229
9.45005
9.37867
9.11641
8.7164
8.32365
7.8298
7.18242
6.40106
1
1
1.00001
1.00002
1.00005
1.00014
1.00032
1.00085
1.00193
1.00512
1.01165
1.03076
1.07218
1.187
1.47801
2.29625
4.53336
9.0826
9.2167
9.01426
8.57639
8.13603
7.66027
7.07735
6.39157
1
1
1.00001
1.00002
1.00004
1.0001
1.00027
1.00061
1.00161
1.00366
1.00963
1.02242
1.0575
1.14072
1.36546
1.97952
3.71928
8.07268
8.95306
8.81121
8.4508
7.98056
7.51821
6.9892
6.38025
1
1
1
1.00001
1.00003
1.00008
1.00019
1.0005
1.00113
1.003
1.00679
1.01807
1.04189
1.10866
1.27088
1.72606
2.99839
6.4312
8.66358
8.59861
8.34782
7.86451
7.40405
6.91515
6.36889
1
1
1
1.00001
1.00002
1.00006
1.00015
1.00034
1.00089
1.00202
1.00537
1.01221
1.03213
1.0756
1.19561
1.50102
2.35461
4.6487
8.26421
8.42718
8.25221
7.83375
7.33226
6.85844
6.35984
1
1
1
1.00001
1.00002
1.00004
1.0001
1.00026
1.0006
1.00159
1.00358
1.00947
1.02177
1.05641
1.13592
1.35331
1.93108
3.52252
7.3123
8.22148
8.10664
7.78838
7.28693
6.81874
6.35434
1
1
1
1
1.00001
1.00003
1.00008
1.00017
1.00046
1.00105
1.00278
1.00631
1.0165
1.0387
1.09873
1.24601
1.6488
2.75348
5.66083
7.93983
7.9148
7.72254
7.29098
6.80788
6.35549
1
1
1
1
1.00001
1.00002
1.00005
1.00013
1.0003
1.00075
1.00185
1.00441
1.01112
1.02628
1.06651
1.16217
1.41808
2.08973
3.83217
7.36669
7.78675
7.65186
7.30248
6.81464
6.36263
1
1
1
1
1.00001
1.00002
1.00003
1.00009
1.0002
1.00054
1.00122
1.00318
1.00739
1.01872
1.04504
1.11256
1.28339
1.74202
2.98296
6.07917
7.55188
7.50382
7.29021
6.84316
6.38266
1
1
1
1
1
1.00001
1.00002
1.00006
1.00014
1.00036
1.00082
1.00216
1.00487
1.01284
1.02949
1.07602
1.18447
1.47992
2.25723
4.26531
7.07574
7.35317
7.23494
6.91321
6.42766
1
1
1
1
1
1.00001
1.00002
1.00004
1.0001
1.00023
1.00056
1.00141
1.00326
1.00844
1.01939
1.05
1.1191
1.3067
1.78672
3.06112
6.02662
7.15017
7.1079
6.91155
6.49918
1
1
1
1
1
1
1.00001
1.00003
1.00006
1.00015
1.00038
1.00087
1.00227
1.00512
1.01347
1.03081
1.07947
1.192
1.49836
2.29198
4.30347
6.71719
6.96904
6.86924
6.59701
1
1
1
1
1
1
1.00001
1.00002
1.00004
1.0001
1.00023
1.0006
1.00134
1.00353
1.00794
1.02082
1.04791
1.12266
1.30169
1.77985
2.9923
5.75866
6.77446
6.75196
6.59571
1
1
1
1
1
1
1
1.00001
1.00003
1.00006
1.00016
1.00035
1.00092
1.00205
1.00539
1.01222
1.03151
1.07413
1.18797
1.47203
2.2169
4.05389
6.33047
6.63554
6.55565
1
1
1
1
1
1
1
1.00001
1.00002
1.00004
1.00009
1.00023
1.00053
1.00137
1.0031
1.00807
1.01833
1.04725
1.11139
1.28406
1.71644
2.81725
5.33322
6.42263
6.43384
1
1
1
1
1
1
1
1
1.00001
1.00002
1.00006
1.00013
1.00034
1.00079
1.00195
1.00475
1.01124
1.02814
1.06666
1.16716
1.41532
2.05376
3.59351
5.92019
6.32566
1
1
1
1
1
1
1
1
1.00001
1.00001
1.00004
1.00008
1.00021
1.00047
1.00122
1.00273
1.00714
1.01613
1.04152
1.09748
1.24739
1.61845
2.56525
4.78165
6.07177
1
1
1
1
1
1
1
1
1
1.00001
1.00002
1.00005
1.00011
1.00029
1.00068
1.00167
1.00404
1.00956
1.02376
1.056
1.13932
1.34134
1.85091
3.04421
5.46539
1
1
1
1
1
1
1
1
1
1.00001
1.00001
1.00003
1.00007
1.00018
1.00039
1.00102
1.00228
1.00596
1.0134
1.03446
1.08031
1.20278
1.50237
2.26651
4.10359
1
1
1
1
1
1
1
1
1
1
1.00001
1.00002
1.00004
1.00009
1.00024
1.00055
1.00142
1.00317
1.00824
1.01855
1.04755
1.11112
1.28017
1.69004
2.68668
1
1
1
1
1
1
1
1
1
1
1
1.00001
1.00002
1.00006
1.00013
1.00033
1.00075
1.00193
1.00432
1.01116
1.02522
1.06413
1.15085
1.37885
1.92392
1
1
1
1
1
1
1
1
1
1
1
1.00001
1.00001
1.00003
1.00008
1.00018
1.00045
1.00105
1.00252
1.00617
1.01439
1.03599
1.08444
1.21126
1.51624
1
1
1
1
1
1
1
1
1
1
1
1
1.00001
1.00002
1.00004
1.0001
1.00025
1.00056
1.00145
1.00322
1.00832
1.01862
1.04769
1.11021
1.27629
1
1
1
1
1
1
1
1
1
1
1
1
1
1.00001
1.00002
1.00006
1.00013
1.00033
1.00073
1.00187
1.00422
1.01065
1.0246
1.06055
1.14471
1
1
1
1
1
1
1
1
1
1
1
1
1
1.00001
1.00001
1.00003
1.00007
1.00017
1.00042
1.00098
1.00235
1.00575
1.01331
1.03328
1.07732
1
1
1
1
1
1
1
1
1
1
1
1
1
1
1.00001
1.00002
1.00004
1.00009
1.00022
1.00052
1.00128
1.00293
1.00742
1.01668
1.0424
1
1
1
1
1
1
1
1
1
1
1
1
1
1
1
1.00001
1.00002
1.00005
1.00011
1.00028
1.00064
1.00162
1.0036
1.00922
1.02048
1
1
1
1
1
1
1
1
1
1
1
1
1
1
1
1
1.00001
1.00003
1.00006
1.00015
1.00033
1.00084
1.00193
1.00467
1.01114
1
1
1
1
1
1
1
1
1
1
1
1
1
1
1
1
1.00001
1.00001
1.00003
1.00008
1.00017
1.00044
1.00098
1.00248
1.00556
1
1
1
1
1
1
1
1
1
1
1
1
1
1
1
1
1
1.00001
1.00002
1.00004
1.00009
1.00022
1.00051
1.00124
1.00284
1
1
1
1
1
1
1
1
1
1
1
1
1
1
1
1
1
1
1.00001
1.00002
1.00005
1.00011
1.00027
1.00059
1.0015
1
1
1
1
1
1
1
1
1
1
1
1
1
1
1
1
1
1
1
1.00001
1.00002
1.00005
1.00013
1.0003
1.00074
1
1
1
1
1
1
1
1
1
1
1
1
1
1
1
1
1
1
1
1.00001
1.00001
1.00003
1.00006
1.00016
1.00035
1
1
1
1
1
1
1
1
1
1
1
1
1
1
1
1
1
1
1
1
1.00001
1.00001
1.00004
1.00008
1.0002
1
1
1
1
1
1
1
1
1
1
1
1
1
1
1
1
1
1
1
1
1
1.00001
1.00002
1.00005
1.00014
2.98389
1.50181
1.01411
0.922664
0.950237
1.03477
1.21157
1.3456
1.38381
1.38148
1.37434
1.36756
1.36813
1.37053
1.37591
1.38196
1.38389
1.38366
1.38279
1.3808
1.37738
1.37445
1.37187
1.36914
1.36602
1.36252
1.35872
1.35472
1.35055
1.34621
1.3417
1.33702
1.33217
1.3272
1.32214
1.31709
1.31237
1.30859
1.30897
1.31074
1.31632
1.3308
1.36627
1.45022
1.64686
2.11377
3.21841
4.53316
4.48941
4.552
4.66469
4.76434
4.81611
4.83353
4.82949
4.81098
4.7678
4.70614
4.64302
4.57985
4.51619
4.4517
4.38627
4.32066
4.25516
4.18987
4.12472
4.05964
3.99465
3.92984
3.8654
3.80142
3.73803
3.67531
3.61337
3.55231
3.49229
3.43332
3.37544
3.31854
3.2628
3.20808
3.15437
3.10151
3.04963
2.99851
2.94855
2.89955
2.85154
2.80429
2.75799
2.71248
2.66796
2.62426
2.58161
2.53996
2.49993
2.46219
2.42994
2.40669
3.69662
2.30471
1.71625
1.47119
1.35801
1.27647
1.25894
1.26692
1.28924
1.33504
1.37781
1.39268
1.39189
1.38916
1.38345
1.38032
1.38038
1.38066
1.38115
1.38099
1.3803
1.37859
1.37506
1.37084
1.36684
1.36307
1.35934
1.35547
1.35137
1.34702
1.34244
1.33767
1.33275
1.32773
1.32261
1.31751
1.31266
1.30867
1.30897
1.31055
1.31547
1.32823
1.35944
1.43308
1.60637
2.01095
2.93734
4.72845
4.86619
4.75445
4.68251
4.69226
4.71945
4.75441
4.75942
4.75531
4.7384
4.69786
4.63269
4.56782
4.50376
4.43965
4.37531
4.31091
4.24659
4.18233
4.11806
4.05374
3.98934
3.92505
3.86099
3.79737
3.73423
3.67175
3.61
3.54914
3.4893
3.43049
3.37274
3.31586
3.26038
3.20593
3.15244
3.09979
3.04811
2.99737
2.94748
2.89834
2.85022
2.80298
2.75675
2.71134
2.66687
2.62321
2.58054
2.53883
2.49865
2.46034
2.42782
2.4018
4.54352
3.2388
2.4227
1.90649
1.57363
1.36855
1.24844
1.2348
1.24215
1.26339
1.30759
1.34838
1.37401
1.38481
1.38453
1.38322
1.38031
1.37753
1.37638
1.37568
1.37485
1.37352
1.37143
1.36861
1.36533
1.3617
1.35784
1.35379
1.34958
1.34521
1.34071
1.33607
1.3313
1.32642
1.32144
1.31659
1.3118
1.30919
1.30964
1.31171
1.31773
1.3329
1.36792
1.44582
1.61387
1.96668
2.68147
3.99607
4.9752
5.05515
5.00323
4.88763
4.79492
4.75372
4.72344
4.69766
4.67577
4.64517
4.60154
4.54714
4.48741
4.42617
4.36377
4.30056
4.2369
4.17311
4.10933
4.04554
3.98185
3.91825
3.85489
3.79169
3.72891
3.66662
3.60522
3.54455
3.48528
3.42698
3.36982
3.31369
3.25827
3.20357
3.15003
3.09729
3.04569
2.99484
2.94508
2.89603
2.8481
2.8009
2.75482
2.70942
2.66509
2.62141
2.57886
2.53704
2.49678
2.45809
2.42402
2.39751
5.0139
3.8262
2.95093
2.34353
1.93749
1.6648
1.49361
1.38456
1.32096
1.30282
1.30603
1.31695
1.3403
1.36731
1.38566
1.39288
1.39238
1.39059
1.38662
1.38147
1.37815
1.37588
1.37406
1.372
1.36922
1.3657
1.36159
1.35716
1.35256
1.3479
1.34317
1.33836
1.33346
1.32847
1.32344
1.31869
1.31432
1.31425
1.31524
1.31902
1.32945
1.35436
1.41043
1.5298
1.77449
2.26293
2.77837
3.33728
3.98157
4.60778
4.9079
4.91951
4.89211
4.82511
4.72995
4.67119
4.62677
4.58756
4.54581
4.50124
4.45296
4.40077
4.34394
4.28425
4.22272
4.16001
4.09679
4.03336
3.97037
3.90748
3.84501
3.78254
3.72042
3.65873
3.598
3.53808
3.47912
3.42095
3.36405
3.30795
3.25296
3.19861
3.14544
3.09297
3.04168
2.99103
2.94156
2.89266
2.84495
2.79778
2.75184
2.7064
2.66223
2.61851
2.5761
2.53421
2.49389
2.45488
2.41936
2.39281
5.29274
4.24834
3.405
2.76879
2.3052
1.96803
1.72334
1.54797
1.42515
1.34792
1.30682
1.30597
1.30928
1.31875
1.33838
1.35731
1.37042
1.37837
1.3783
1.37758
1.37572
1.37195
1.36842
1.36534
1.36242
1.35949
1.35618
1.35254
1.34848
1.34412
1.3396
1.335
1.33038
1.32573
1.32133
1.31714
1.31605
1.31678
1.31977
1.32828
1.34906
1.39655
1.49891
1.71001
2.13437
2.59704
2.86747
3.08139
3.34366
3.68379
4.11281
4.5039
4.73908
4.80292
4.78577
4.74255
4.65434
4.57902
4.51904
4.46175
4.40868
4.35891
4.30867
4.25672
4.20184
4.14342
4.08202
4.01915
3.95609
3.89303
3.83072
3.76889
3.70837
3.64825
3.58905
3.5302
3.47221
3.4146
3.35807
3.30211
3.24735
3.19317
3.14022
3.08788
3.0368
2.9863
2.93707
2.88832
2.84085
2.79381
2.74808
2.70273
2.65873
2.61507
2.57283
2.53093
2.49065
2.45167
2.41542
2.38791
5.48033
4.57337
3.78769
3.15357
2.66008
2.28189
1.99425
1.7772
1.61485
1.49729
1.41264
1.35756
1.32861
1.32582
1.32816
1.33512
1.34969
1.36534
1.37692
1.38305
1.38282
1.38171
1.37911
1.37386
1.36847
1.36373
1.35972
1.3561
1.35239
1.34817
1.34349
1.33856
1.33345
1.32861
1.32405
1.32211
1.32267
1.32521
1.33273
1.35144
1.3946
1.48867
1.68516
2.08211
2.57072
2.83596
2.93942
3.00118
3.08481
3.20953
3.38122
3.61908
3.97283
4.3425
4.59735
4.70693
4.69335
4.6506
4.56521
4.4693
4.39157
4.32324
4.26626
4.21842
4.17165
4.12186
4.06736
4.00774
3.94413
3.87928
3.81565
3.75337
3.69305
3.63381
3.57591
3.51847
3.46188
3.40545
3.34985
3.29454
3.24026
3.18641
3.13374
3.08159
3.03072
2.98039
2.93136
2.88279
2.83554
2.78866
2.74313
2.69789
2.65411
2.6105
2.56843
2.52662
2.48634
2.4473
2.41085
2.38241
5.61031
4.8206
4.10157
3.48923
2.98774
2.58517
2.26587
2.01363
1.81542
1.66075
1.53995
1.45152
1.38601
1.34684
1.32641
1.32646
1.32838
1.33375
1.34484
1.35583
1.36368
1.36757
1.36726
1.36612
1.36357
1.35905
1.35425
1.34968
1.34557
1.34196
1.33835
1.3345
1.33035
1.32624
1.32368
1.32409
1.32626
1.33293
1.34976
1.38908
1.47573
1.65808
2.0287
2.55282
2.85242
2.9521
2.97519
2.98195
2.98473
2.99688
3.03522
3.12021
3.27302
3.50242
3.83863
4.21109
4.48364
4.61505
4.60052
4.55297
4.45445
4.34092
4.25268
4.18146
4.12274
4.07522
4.03164
3.98647
3.93103
3.87044
3.80836
3.74504
3.68261
3.62156
3.56271
3.50503
3.44879
3.39309
3.33843
3.28406
3.23067
3.17759
3.12559
3.07394
3.02349
2.97345
2.92468
2.87632
2.8293
2.78258
2.73733
2.69223
2.6487
2.60527
2.56339
2.52178
2.48162
2.4426
2.40616
2.37707
5.70266
5.0093
4.35611
3.7762
3.28133
2.86861
2.52956
2.25294
2.0281
1.84656
1.70103
1.58595
1.49582
1.42852
1.37873
1.34939
1.33298
1.33215
1.33359
1.33774
1.3465
1.35604
1.36349
1.36755
1.36722
1.36593
1.36293
1.35695
1.35092
1.34535
1.34033
1.33606
1.33209
1.33013
1.33058
1.33253
1.33878
1.35431
1.39091
1.47233
1.64444
1.9963
2.54305
2.87384
2.98751
3.00594
3.00079
2.98086
2.93769
2.89669
2.88442
2.89352
2.93003
3.01237
3.15827
3.38162
3.70839
4.08498
4.3709
4.52509
4.50832
4.45396
4.35454
4.2204
4.10907
4.02262
3.96357
3.91793
3.88045
3.83909
3.79005
3.73479
3.67624
3.61581
3.55564
3.49588
3.43796
3.38122
3.32618
3.27193
3.21907
3.16672
3.11553
3.06464
3.01486
2.96533
2.91698
2.86892
2.82215
2.77566
2.73057
2.68568
2.64232
2.59911
2.55739
2.51592
2.476
2.43703
2.40071
2.37115
5.77085
5.15484
4.5611
4.01762
3.53864
3.12638
2.7776
2.48514
2.24152
2.03935
1.87219
1.73449
1.62189
1.53128
1.45958
1.40519
1.36563
1.34304
1.33059
1.32977
1.33077
1.33369
1.33993
1.34621
1.3509
1.35171
1.35141
1.35033
1.34784
1.34286
1.33765
1.33298
1.32954
1.32983
1.3315
1.33704
1.35147
1.38539
1.46149
1.62267
1.95306
2.51967
2.89524
3.02529
3.04897
3.04271
3.01737
2.96553
2.90594
2.85036
2.80931
2.78122
2.77769
2.78721
2.82292
2.90275
3.04296
3.25643
3.5712
3.95079
4.25166
4.41865
4.40126
4.34612
4.23803
4.10157
3.98169
3.88646
3.82183
3.77361
3.73454
3.69486
3.65037
3.59905
3.54384
3.48655
3.42915
3.37157
3.31538
3.26024
3.20688
3.15439
3.10342
3.053
3.00385
2.955
2.90733
2.85986
2.81361
2.76757
2.72284
2.67828
2.63519
2.59226
2.55078
2.50949
2.46981
2.43096
2.39479
2.36491
5.82372
5.2699
4.72783
4.22048
3.76204
3.35737
3.00647
2.70538
2.44894
2.23154
2.04774
1.8929
1.76283
1.65425
1.56461
1.49171
1.43432
1.39034
1.35811
1.3395
1.32892
1.32766
1.32842
1.33073
1.33576
1.34135
1.34669
1.34668
1.34625
1.34492
1.3421
1.33753
1.33661
1.3378
1.34204
1.35523
1.38641
1.45716
1.60901
1.91906
2.50459
2.91458
3.06411
3.09382
3.0876
3.06191
3.00919
2.94583
2.88403
2.82629
2.77449
2.72999
2.69767
2.67359
2.67311
2.68222
2.71525
2.78944
2.92289
3.1243
3.42482
3.80094
4.12319
4.30353
4.28574
4.23026
4.12547
3.98064
3.85781
3.76236
3.69173
3.63832
3.59508
3.55474
3.51214
3.46489
3.41375
3.36006
3.30589
3.25128
3.19746
3.14413
3.09243
3.04151
2.99222
2.94349
2.89619
2.84922
2.80354
2.75808
2.71389
2.66985
2.62716
2.58459
2.54345
2.50241
2.46297
2.42422
2.38825
2.35807
5.86516
5.36212
4.86518
4.39219
3.95626
3.56349
3.21575
2.91139
2.64721
2.41907
2.22274
2.05421
1.90984
1.78653
1.68167
1.59313
1.51929
1.45867
1.41077
1.37396
1.34732
1.33172
1.32309
1.32171
1.32224
1.32381
1.32732
1.33124
1.33438
1.336
1.33617
1.33655
1.33795
1.34242
1.35434
1.38338
1.44961
1.59185
1.88352
2.46692
2.93737
3.10316
3.13944
3.13368
3.1094
3.05868
2.99212
2.92656
2.86537
2.80812
2.75485
2.70508
2.66028
2.62064
2.59131
2.56867
2.56765
2.57568
2.6051
2.67243
2.79844
2.98542
3.26903
3.63766
3.95953
4.17125
4.15428
4.10245
4.01189
3.86497
3.73936
3.64176
3.56695
3.50922
3.462
3.41962
3.37798
3.33353
3.28642
3.23648
3.18563
3.13383
3.08253
3.03131
2.98148
2.93225
2.88466
2.83765
2.79216
2.74707
2.70336
2.65991
2.61775
2.57571
2.53504
2.4944
2.45534
2.41682
2.38108
2.35067
5.89986
5.4384
4.9799
4.53872
4.12567
3.74706
3.40596
3.10216
2.83409
2.59882
2.39328
2.21409
2.05826
1.92292
1.8057
1.70452
1.61771
1.54392
1.48212
1.43128
1.39113
1.36029
1.33811
1.32482
1.31742
1.31622
1.3167
1.31825
1.3216
1.32629
1.33033
1.33404
1.34084
1.35495
1.38499
1.44977
1.58627
1.86654
2.43297
2.95576
3.14712
3.18939
3.18435
3.16124
3.1114
3.04234
2.97394
2.90946
2.84946
2.79281
2.73939
2.68837
2.64023
2.59462
2.55285
2.51522
2.48633
2.46419
2.46083
2.46769
2.49359
2.55374
2.66985
2.84181
3.1023
3.45874
3.7915
4.03156
4.01663
3.97281
3.8943
3.75215
3.62412
3.52475
3.4479
3.38622
3.33545
3.29108
3.24924
3.20638
3.16234
3.11609
3.06878
3.01998
2.97134
2.92239
2.87459
2.82716
2.78131
2.736
2.69227
2.64899
2.60714
2.56554
2.52533
2.48515
2.44658
2.40838
2.37302
2.34253
5.93158
5.50294
5.07864
4.66623
4.27518
3.91157
3.57902
3.27841
3.00931
2.76973
2.55765
2.37028
2.2053
2.06013
1.9327
1.82101
1.72344
1.63862
1.56537
1.50283
1.45026
1.40703
1.37267
1.34656
1.32802
1.31674
1.31043
1.31049
1.31137
1.31372
1.31902
1.32906
1.34428
1.37503
1.43867
1.56985
1.83724
2.37909
2.96186
3.18799
3.2376
3.23423
3.21314
3.16625
3.09627
3.02464
2.95717
2.89382
2.8346
2.77838
2.72508
2.67379
2.62465
2.57695
2.53145
2.48799
2.44769
2.4115
2.38226
2.36051
2.35414
2.35994
2.38222
2.43451
2.5375
2.6954
2.93156
3.27012
3.61769
3.88666
3.8757
3.84079
3.77322
3.6393
3.5098
3.41029
3.33259
3.26836
3.21516
3.16822
3.12582
3.08419
3.04254
2.9991
2.95504
2.90921
2.86331
2.81683
2.77127
2.72585
2.68184
2.63831
2.59632
2.55474
2.51467
2.47475
2.43659
2.39863
2.36381
2.33338
5.96554
5.56336
5.16692
4.77951
4.40839
4.05945
3.73637
3.44053
3.17233
2.93075
2.71429
2.52097
2.34877
2.19577
2.05986
1.93956
1.83298
1.73912
1.65646
1.58438
1.52178
1.46827
1.42322
1.38614
1.35686
1.33454
1.31947
1.31005
1.3104
1.31255
1.31866
1.33233
1.36127
1.42124
1.54501
1.79642
2.30363
2.93949
3.21139
3.2774
3.27508
3.25812
3.21761
3.14792
3.07449
3.00431
2.93894
2.87739
2.81945
2.76396
2.71099
2.65962
2.61006
2.56166
2.51491
2.4692
2.42553
2.38368
2.3446
2.3096
2.27975
2.25818
2.24883
2.25337
2.27138
2.31566
2.40498
2.54798
2.76081
3.07742
3.4313
3.72864
3.73191
3.70737
3.64776
3.52694
3.39881
3.29928
3.22093
3.15636
3.10114
3.05179
3.00853
2.96751
2.92732
2.88617
2.84461
2.80167
2.75858
2.71469
2.67151
2.62823
2.58619
2.54441
2.50419
2.46415
2.42606
2.38806
2.35362
2.32316
6.00931
5.62288
5.24729
4.88053
4.52799
4.193
3.87948
3.58952
3.32366
3.08165
2.86266
2.66517
2.48757
2.32833
2.1856
2.05811
1.94403
1.84261
1.75203
1.67208
1.60109
1.53916
1.4851
1.43879
1.40004
1.36745
1.34392
1.3234
1.32241
1.32504
1.33376
1.35674
1.40806
1.51751
1.7448
2.20308
2.86989
3.20631
3.30054
3.30375
3.29104
3.25834
3.19111
3.115
3.04409
2.97839
2.91713
2.85865
2.80269
2.74836
2.69594
2.64471
2.5951
2.54645
2.4992
2.45282
2.40797
2.364
2.32204
2.28158
2.24374
2.20969
2.1794
2.15799
2.14576
2.14902
2.16269
2.19889
2.27427
2.4025
2.59465
2.8836
3.23789
3.55326
3.58994
3.57048
3.51813
3.41126
3.29068
3.19193
3.11405
3.049
2.99203
2.9416
2.89731
2.85618
2.81683
2.77728
2.73794
2.69761
2.65719
2.6159
2.57516
2.53407
2.49411
2.45403
2.41591
2.37761
2.34329
2.31241
6.06682
5.68287
5.32231
4.97365
4.63618
4.31401
4.01012
3.72632
3.46416
3.22305
3.00291
2.80272
2.6213
2.45714
2.30906
2.17563
2.05531
1.94755
1.85023
1.76366
1.68561
1.61661
1.55507
1.50105
1.45434
1.41334
1.38224
1.35338
1.35342
1.35799
1.37342
1.41478
1.5082
1.70714
2.11422
2.77166
3.18299
3.30867
3.32382
3.31242
3.28087
3.21547
3.14001
3.07038
3.00724
2.94804
2.89159
2.83643
2.7827
2.72983
2.67835
2.62772
2.5785
2.53
2.48279
2.43628
2.39103
2.34648
2.30343
2.26118
2.22089
2.18187
2.1455
2.11224
2.08236
2.0609
2.04578
2.04789
2.05776
2.08624
2.1473
2.26116
2.43538
2.69244
3.04271
3.36398
3.44749
3.43014
3.38526
3.2932
3.18678
3.08862
3.01049
2.94435
2.8879
2.83741
2.79198
2.75017
2.71123
2.67287
2.6354
2.59719
2.55932
2.5205
2.48222
2.44321
2.40573
2.36749
2.33338
2.30195
6.14585
5.74953
5.39405
5.05765
4.73448
4.42438
4.12994
3.85295
3.59463
3.35567
3.13563
2.9336
2.74977
2.58177
2.42942
2.2913
2.16564
2.05264
1.94958
1.85726
1.7733
1.69813
1.63039
1.56993
1.51631
1.46962
1.43055
1.40356
1.40533
1.41582
1.44767
1.52601
1.69817
2.05336
2.70687
3.16642
3.32373
3.34317
3.33117
3.29777
3.22848
3.15174
3.08404
3.02342
2.96748
2.91356
2.86094
2.80871
2.75733
2.70635
2.65642
2.60704
2.55876
2.51096
2.46426
2.41803
2.37292
2.32839
2.2851
2.24248
2.20136
2.16103
2.12257
2.08524
2.05051
2.01805
1.98925
1.96699
1.94991
1.94991
1.95584
1.97758
2.02818
2.12555
2.28173
2.50805
2.84856
3.16503
3.3027
3.2877
3.24934
3.17959
3.08564
2.9885
2.90901
2.8437
2.78883
2.73807
2.69195
2.6494
2.61064
2.57319
2.53715
2.50068
2.46515
2.42847
2.39286
2.35594
2.32273
2.29155
6.24832
5.82976
5.46786
5.13923
4.82677
4.52703
4.24133
3.97106
3.71731
3.48025
3.26152
3.05864
2.87293
2.70265
2.5465
2.40483
2.27473
2.15706
2.04941
1.95174
1.86302
1.78224
1.70937
1.6434
1.58418
1.53385
1.48914
1.47726
1.48326
1.5072
1.5738
1.72599
2.04397
2.67995
3.16906
3.36042
3.38241
3.37089
3.33109
3.24802
3.16386
3.09221
3.03216
2.97658
2.92455
2.87371
2.82385
2.77423
2.72529
2.67659
2.62873
2.58115
2.53438
2.48787
2.44218
2.39675
2.35231
2.30826
2.26535
2.22299
2.18192
2.14148
2.10251
2.06428
2.02774
1.99225
1.95904
1.92751
1.89982
1.8762
1.85879
1.8541
1.85841
1.87508
1.91575
1.99636
2.13295
2.33441
2.65458
2.9586
3.15203
3.14262
3.11566
3.06924
2.98147
2.88957
2.81084
2.74761
2.69321
2.64281
2.59677
2.55391
2.51524
2.47828
2.4434
2.40825
2.37494
2.34012
2.30871
2.27919
6.33301
5.92187
5.5498
5.22103
4.9154
4.62457
4.34657
4.08214
3.83268
3.59837
3.38055
3.17833
2.99116
2.81928
2.66069
2.51555
2.3824
2.26032
2.14892
2.04664
1.95354
1.86816
1.79067
1.72
1.65783
1.60304
1.56995
1.57324
1.59177
1.64865
1.78723
2.08447
2.6893
3.2207
3.43785
3.45337
3.43942
3.38923
3.28929
3.20129
3.12237
3.0521
2.98931
2.93247
2.88121
2.83111
2.78261
2.73463
2.68757
2.6409
2.59505
2.54939
2.50443
2.45955
2.41534
2.37126
2.328
2.28499
2.24299
2.20139
2.16093
2.12098
2.0823
2.04413
2.00737
1.9712
1.93653
1.90284
1.87096
1.84065
1.81369
1.78937
1.77187
1.76302
1.76593
1.77808
1.8095
1.87509
1.99042
2.17429
2.4594
2.75482
2.99061
3.0057
2.98897
2.95017
2.87389
2.79303
2.71879
2.65515
2.60062
2.55143
2.50611
2.46338
2.42477
2.38799
2.35429
2.32018
2.29019
2.26276
6.32624
6.0583
5.65723
5.31072
5.00346
4.71724
4.44475
4.18567
3.94133
3.71002
3.49409
3.29257
3.10532
2.93198
2.77176
2.62399
2.48787
2.36265
2.24737
2.14156
2.04425
1.95504
1.8737
1.79943
1.73709
1.68275
1.68366
1.69765
1.74465
1.87281
2.15503
2.73987
3.32657
3.56483
3.57138
3.55247
3.48814
3.37484
3.27142
3.18267
3.10439
3.03359
2.96789
2.90607
2.84837
2.79425
2.74426
2.69548
2.6485
2.60244
2.55757
2.51315
2.4696
2.42624
2.38361
2.34109
2.29933
2.25775
2.21706
2.17665
2.13725
2.09823
2.06031
2.02279
1.98647
1.95051
1.91586
1.88165
1.84882
1.81682
1.78629
1.75737
1.73091
1.70695
1.68913
1.67662
1.67835
1.68673
1.71013
1.76138
1.85727
2.02609
2.26544
2.56085
2.81966
2.87362
2.86206
2.82938
2.76815
2.69894
2.6291
2.56416
2.51111
2.46348
2.4195
2.37712
2.3391
2.30248
2.27132
2.24352
6.28048
6.11733
5.77538
5.41026
5.09323
4.80756
4.54013
4.286
4.04474
3.81697
3.60266
3.40258
3.21548
3.04156
2.87991
2.73019
2.59165
2.46348
2.34522
2.23585
2.13527
2.04262
1.95819
1.88433
1.82128
1.80486
1.81583
1.85921
1.98048
2.25533
2.82969
3.47835
3.74229
3.73952
3.71361
3.63619
3.49632
3.37162
3.26756
3.17825
3.09945
3.0279
2.95946
2.89432
2.83203
2.77212
2.71622
2.6633
2.61399
2.56635
2.52066
2.47602
2.43276
2.39008
2.34845
2.30714
2.26673
2.22656
2.18729
2.14828
2.11022
2.07242
2.03563
1.99912
1.96365
1.92844
1.89435
1.8605
1.82788
1.79555
1.76454
1.73416
1.70514
1.67756
1.65176
1.62871
1.61003
1.59556
1.59517
1.59986
1.6167
1.65713
1.73654
1.88546
2.0808
2.37265
2.63676
2.74067
2.7322
2.70806
2.6687
2.60294
2.53845
2.47718
2.4256
2.37869
2.33689
2.29519
2.26041
2.22777
6.17697
6.09941
5.89485
5.52348
5.19013
4.89845
4.63174
4.38122
4.14423
3.91987
3.70861
3.50885
3.32225
3.14784
2.98531
2.83397
2.69335
2.56285
2.44173
2.32968
2.22606
2.13104
2.04675
1.97386
1.94226
1.951
1.99058
2.10629
2.37542
2.94286
3.66676
3.95703
3.95213
3.91749
3.82291
3.66123
3.51355
3.38917
3.28357
3.19043
3.10672
3.02909
2.95769
2.8908
2.82523
2.76186
2.70104
2.64256
2.58822
2.53696
2.4887
2.44228
2.39786
2.35454
2.31277
2.27172
2.23192
2.19263
2.15443
2.11661
2.07982
2.04331
2.0078
1.9725
1.93817
1.90402
1.87085
1.83784
1.80588
1.77406
1.7434
1.71294
1.68373
1.65497
1.62757
1.60126
1.5765
1.55433
1.53487
1.5203
1.51542
1.51863
1.5311
1.56236
1.62575
1.75003
1.91361
2.18512
2.44833
2.59638
2.6087
2.5957
2.5655
2.50595
2.44964
2.39408
2.34343
2.29746
2.26082
2.22232
6.04364
6.02872
5.91502
5.6558
5.30334
4.99577
4.72426
4.47466
4.24059
4.01905
3.8092
3.61228
3.42617
3.25176
3.08838
2.93575
2.79333
2.66062
2.53719
2.42275
2.31711
2.22252
2.14019
2.09436
2.10109
2.13736
2.24747
2.51275
3.07771
3.88647
4.2068
4.2003
4.15786
4.04381
3.86078
3.69162
3.54915
3.42644
3.31821
3.21975
3.12949
3.04514
2.96673
2.8925
2.82346
2.75845
2.69428
2.63268
2.5738
2.51727
2.4647
2.41522
2.36826
2.32301
2.27987
2.23794
2.19769
2.15834
2.12044
2.0832
2.04721
2.01168
1.97725
1.94311
1.90995
1.87696
1.8449
1.81296
1.78195
1.75102
1.72109
1.69124
1.66247
1.63387
1.60643
1.57936
1.55358
1.52858
1.50515
1.48363
1.46429
1.44971
1.44083
1.44289
1.45182
1.47513
1.52486
1.62233
1.76851
1.99815
2.26127
2.44286
2.4903
2.48152
2.45729
2.41515
2.3641
2.31256
2.26949
2.22558
5.68704
5.92606
5.87879
5.72843
5.41901
5.09836
4.81882
4.5679
4.33551
4.11664
3.90857
3.71241
3.52752
3.35317
3.18931
3.03556
2.89157
2.75703
2.63178
2.51563
2.41088
2.31942
2.25987
2.26503
2.29884
2.40652
2.6741
3.24625
4.14293
4.49057
4.48217
4.43101
4.29557
4.08918
3.89911
3.7378
3.59933
3.47574
3.36339
3.25903
3.16209
3.07095
2.98584
2.90541
2.83024
2.75873
2.6923
2.62921
2.56728
2.50765
2.45088
2.3966
2.34598
2.29794
2.25248
2.20859
2.16685
2.12642
2.08786
2.05034
2.01441
1.97922
1.94536
1.91196
1.8797
1.84769
1.81668
1.78579
1.75583
1.72593
1.69693
1.66798
1.64
1.61206
1.58518
1.55842
1.53276
1.5074
1.48322
1.45963
1.43753
1.41666
1.39799
1.383
1.37133
1.37221
1.378
1.39385
1.4324
1.50857
1.63914
1.81877
2.07845
2.28496
2.36889
2.36853
2.35593
2.3269
2.28552
2.23971
4.86079
5.71185
5.78067
5.71329
5.5381
5.21471
4.92109
4.66406
4.4306
4.21264
4.00711
3.81167
3.62688
3.45244
3.28794
3.13316
2.98795
2.85208
2.72593
2.61066
2.51098
2.43807
2.4418
2.47391
2.58105
2.85588
3.44261
4.42397
4.80529
4.79443
4.73315
4.57357
4.34334
4.13102
3.95151
3.79656
3.65885
3.53244
3.41533
3.30521
3.20216
3.10483
3.01367
2.92738
2.84646
2.76962
2.69765
2.62904
2.5653
2.50398
2.4445
2.38696
2.33227
2.28034
2.23186
2.18529
2.14132
2.09902
2.05901
2.02035
1.98364
1.94798
1.91396
1.88067
1.84875
1.81728
1.78696
1.75688
1.7278
1.69885
1.67081
1.64283
1.61576
1.58874
1.56266
1.53663
1.51161
1.48667
1.46278
1.4391
1.41647
1.39432
1.37342
1.3534
1.33552
1.31984
1.30777
1.30494
1.3081
1.31983
1.34857
1.40908
1.51614
1.659
1.89851
2.12199
2.23673
2.2666
2.26148
2.24739
3.206
5.19264
5.65732
5.64762
5.55841
5.35033
5.04296
4.76941
4.52835
4.30818
4.10235
3.90773
3.72316
3.54868
3.38387
3.22864
3.0827
2.94682
2.82142
2.71406
2.62826
2.63075
2.66214
2.76924
3.04802
3.64039
4.72296
5.14678
5.13452
5.06219
4.87624
4.61977
4.38604
4.18728
4.01642
3.86365
3.72403
3.59355
3.47137
3.35578
3.24717
3.14429
3.04766
2.95599
2.86983
2.78792
2.71093
2.63766
2.56895
2.50345
2.44245
2.38287
2.32574
2.27041
2.21812
2.16843
2.12191
2.07732
2.03529
1.99487
1.95673
1.9199
1.88502
1.85114
1.8189
1.78736
1.75718
1.72745
1.69888
1.67057
1.64327
1.61613
1.58993
1.56382
1.53862
1.51348
1.48927
1.4651
1.44188
1.4187
1.39649
1.37439
1.35326
1.33247
1.31271
1.29372
1.27644
1.26065
1.24877
1.24174
1.24377
1.25215
1.27282
1.31882
1.40081
1.52712
1.72515
1.95437
2.10448
2.18765
2.27436
4.02163
5.33311
5.55673
5.52647
5.41395
5.17285
4.88427
4.62987
4.40378
4.19608
4.00144
3.81746
3.64317
3.47817
3.32249
3.17744
3.04273
2.92725
2.83027
2.83216
2.8643
2.97352
3.26605
3.89343
5.06585
5.52182
5.50816
5.42016
5.20226
4.9186
4.66225
4.44493
4.25694
4.08944
3.93536
3.79206
3.65683
3.52953
3.40874
3.29501
3.18707
3.0855
2.98897
2.89809
2.81158
2.7301
2.65247
2.57941
2.50978
2.44427
2.38188
2.32347
2.26584
2.211
2.15809
2.10865
2.06153
2.01723
1.97473
1.93473
1.89625
1.85998
1.82493
1.79178
1.75955
1.72894
1.69899
1.67041
1.64229
1.61535
1.58871
1.56313
1.53774
1.51332
1.48902
1.46563
1.44232
1.41988
1.39747
1.37594
1.35441
1.33377
1.31314
1.29344
1.27391
1.25535
1.23741
1.22073
1.20547
1.19334
1.18367
1.18466
1.19017
1.20391
1.23814
1.30276
1.41478
1.56476
1.86528
1.66793
2.59478
4.57216
5.35159
5.45003
5.40057
5.26899
5.00267
4.73663
4.50198
4.29063
4.09484
3.91077
3.73669
3.57225
3.41805
3.27417
3.15047
3.04451
3.04525
3.07761
3.19096
3.50149
4.1708
5.45142
5.93581
5.91838
5.8085
5.55227
5.2388
4.96044