/*--------------------------------*- C++ -*----------------------------------*\
  =========                 |
  \\      /  F ield         | OpenFOAM: The Open Source CFD Toolbox
   \\    /   O peration     | Website:  https://openfoam.org
    \\  /    A nd           | Version:  13
     \\/     M anipulation  |
\*---------------------------------------------------------------------------*/
FoamFile
{
    format      ascii;
    class       surfaceScalarField;
    location    "2";
    object      phi;
}
// * * * * * * * * * * * * * * * * * * * * * * * * * * * * * * * * * * * * * //

dimensions      [1 0 -1 0 0 0 0];

internalField   nonuniform List<scalar> 
10325
(
0.00840003
3.96848e-11
0.00840003
2.27162e-10
0.00840002
8.14169e-10
0.00840004
2.24953e-09
0.00839998
5.99097e-09
0.00839998
1.48748e-08
0.00839995
3.70615e-08
0.00839924
9.38176e-08
0.00840015
2.28305e-07
0.00839688
5.98196e-07
0.00839728
1.48843e-06
0.00839024
4.14439e-06
0.00837527
1.23626e-05
0.00832348
4.2752e-05
0.00809254
0.000199537
0.00741684
0.000644602
0.00675109
0.00066151
0.00608928
0.000663043
0.00540081
0.000690793
0.00466185
0.000738782
0.0038563
0.000802369
0.00298824
0.000868641
0.00205786
0.000928804
0.0010617
0.000991266
0.00105456
0.00840003
4.03855e-11
0.00840003
6.37389e-10
0.00840002
1.12479e-09
0.00840004
6.14988e-09
0.00839999
8.69314e-09
0.00839995
3.89403e-08
0.00840001
5.80265e-08
0.0083991
2.26132e-07
0.00840043
4.11428e-07
0.0083964
1.2898e-06
0.00839789
2.90705e-06
0.00838949
8.46864e-06
0.00837544
2.47938e-05
0.00832316
8.56262e-05
0.00809833
0.000393588
0.00742325
0.00128805
0.00675647
0.00132375
0.00609859
0.00132232
0.00541543
0.0013765
0.00467026
0.001484
0.00385262
0.00161687
0.0029732
0.00174867
0.00202895
0.00187148
0.00102776
0.00198754
0.00207517
0.00840003
8.20771e-11
0.00840004
8.96832e-10
0.00839999
1.86626e-09
0.00840012
8.69016e-09
0.00839982
1.40947e-08
0.00840048
5.71031e-08
0.00839897
8.56823e-08
0.0084016
3.61906e-07
0.00839608
5.17535e-07
0.00840395
2.10969e-06
0.00838842
3.92714e-06
0.0083995
1.28151e-05
0.0083705
3.5671e-05
0.00833162
0.000124521
0.00813015
0.000563127
0.00747263
0.00191279
0.00679185
0.00199916
0.00613381
0.00198205
0.00546114
0.00205236
0.00471902
0.00222632
0.00389688
0.00243578
0.0030096
0.00263704
0.00205168
0.0028283
0.00103632
0.00299808
0.00310438
0.00840003
2.00268e-10
0.00840004
7.06954e-10
0.0084
3.69284e-09
0.00840009
6.95022e-09
0.00839982
2.71492e-08
0.00840051
4.63975e-08
0.00839862
1.7448e-07
0.00840307
2.80763e-07
0.00839276
1.07476e-06
0.00841113
1.89259e-06
0.00838019
6.26214e-06
0.00840877
1.48484e-05
0.00836713
4.67778e-05
0.00834349
0.000156226
0.00817468
0.000698752
0.00754304
0.00251005
0.00684218
0.00269306
0.00619442
0.00263224
0.00554286
0.00270736
0.00480968
0.00296048
0.00398998
0.00325321
0.00309687
0.0035309
0.00212554
0.0037971
0.00108014
0.00403806
0.00417824
0.00840003
1.7278e-10
0.00840004
1.08036e-09
0.0084
3.75149e-09
0.00840011
1.05688e-08
0.00839984
2.77996e-08
0.00840045
7.05593e-08
0.00839906
1.7476e-07
0.00840152
4.3775e-07
0.00839635
1.07524e-06
0.00840395
2.70897e-06
0.00838918
6.87257e-06
0.00840097
1.85133e-05
0.00837485
5.45043e-05
0.00834895
0.000183303
0.00821812
0.000800995
0.00760424
0.00308694
0.00688004
0.0034075
0.00627833
0.00323799
0.00565454
0.0033357
0.00493175
0.00368416
0.00411982
0.00406165
0.00322433
0.00442651
0.00223538
0.00478427
0.00115134
0.00511669
0.00532011
0.00840003
1.50815e-10
0.00840004
1.45817e-09
0.0084
3.82076e-09
0.00840011
1.41538e-08
0.00839985
2.87879e-08
0.00840045
9.32829e-08
0.00839905
1.78963e-07
0.0084016
5.80804e-07
0.00839624
1.09818e-06
0.00840427
3.47085e-06
0.00838895
7.4696e-06
0.00840173
2.19896e-05
0.00837541
6.16553e-05
0.00835297
0.000207621
0.00824643
0.000881002
0.00760518
0.00368802
0.00701314
0.00398411
0.00640583
0.00385459
0.00577395
0.00397466
0.00508737
0.00437007
0.00429525
0.00485092
0.00340608
0.00531471
0.00239584
0.00579437
0.00125399
0.00625593
0.00656569
0.00840003
2.45766e-10
0.00840004
1.35573e-09
0.00840001
5.1174e-09
0.00840008
1.32696e-08
0.00839987
3.79352e-08
0.00840039
8.83732e-08
0.00839891
2.4195e-07
0.0084024
5.45764e-07
0.00839405
1.49651e-06
0.0084093
3.43069e-06
0.00838254
9.30467e-06
0.00840852
2.38203e-05
0.00837122
7.02573e-05
0.00835725
0.000230246
0.0082699
0.000940265
0.00768909
0.00422138
0.00718971
0.00448191
0.00659683
0.00445289
0.00591541
0.00465912
0.00526146
0.0050251
0.00451018
0.00559745
0.00364467
0.00618057
0.00262948
0.0068097
0.0014218
0.00746074
0.00798284
0.00840003
2.49146e-10
0.00840004
1.57269e-09
0.00839999
5.4964e-09
0.00840012
1.53114e-08
0.0083998
4.11579e-08
0.00840057
1.02299e-07
0.00839876
2.61052e-07
0.00840279
6.378e-07
0.00839389
1.60322e-06
0.00840954
3.95759e-06
0.00838264
1.00849e-05
0.00840957
2.65452e-05
0.0083712
7.61478e-05
0.00836695
0.000248313
0.00829965
0.000978101
0.0078399
0.00462879
0.00727632
0.00504833
0.00673617
0.00499706
0.0061376
0.0052607
0.00550004
0.00566584
0.00480049
0.00629547
0.00396369
0.00702078
0.00295676
0.00781759
0.00169544
0.0087188
0.0096716
0.00840003
2.67728e-10
0.00840004
1.78064e-09
0.0084
5.99416e-09
0.00840011
1.72743e-08
0.00839983
4.45331e-08
0.00840051
1.15261e-07
0.00839888
2.76306e-07
0.00840254
7.27279e-07
0.00839436
1.67708e-06
0.00840899
4.50525e-06
0.0083832
1.07021e-05
0.00840987
2.92125e-05
0.00837171
8.1244e-05
0.00837145
0.000263356
0.00831991
0.00100082
0.00801276
0.00487794
0.00745361
0.00561375
0.00693058
0.00552644
0.00639281
0.0057997
0.00581595
0.00624305
0.00517196
0.00693616
0.00441662
0.00777568
0.00349469
0.00873997
0.00216964
0.010039
0.0118346
0.00840003
3.44728e-10
0.00840003
1.62901e-09
0.00840003
6.95829e-09
0.00840003
1.6024e-08
0.00839999
5.15923e-08
0.00840011
1.06976e-07
0.00839952
3.30904e-07
0.00840105
6.61962e-07
0.00839658
2.03528e-06
0.00840497
4.21582e-06
0.00838879
1.23053e-05
0.00840518
2.94844e-05
0.00837914
8.63476e-05
0.00838152
0.000269339
0.0083562
0.00100001
0.00830646
0.00486341
0.0077378
0.00619192
0.00719439
0.00607701
0.00672294
0.00627356
0.00620075
0.00676719
0.005673
0.00746455
0.00508668
0.00836299
0.00426015
0.00956781
0.00300709
0.0112897
0.0148333
0.00840003
2.56165e-10
0.00840003
1.90819e-09
0.00840003
5.91147e-09
0.00840003
1.86349e-08
0.00840004
4.43073e-08
0.00839994
1.25366e-07
0.00840023
2.76852e-07
0.00839904
7.95555e-07
0.00840187
1.70219e-06
0.00839498
4.93361e-06
0.00840601
1.11109e-05
0.00838912
3.12289e-05
0.00840239
8.33742e-05
0.00839132
0.000263012
0.00843767
0.000944573
0.00882656
0.00440327
0.00821819
0.0068122
0.0075783
0.00672657
0.00712326
0.00673193
0.00671928
0.00717345
0.00632541
0.00785985
0.00590476
0.00878456
0.00553516
0.00993893
0.00556228
0.0112634
0.0116374
0.0087554
0.00840003
2.74104e-10
0.00840003
1.62227e-09
0.00840005
5.68545e-09
0.0084
1.58973e-08
0.00840012
4.22149e-08
0.00839988
1.04882e-07
0.00840035
2.73946e-07
0.00839959
6.35586e-07
0.00840073
1.73315e-06
0.00839922
3.89512e-06
0.00840286
1.07591e-05
0.00840023
2.596e-05
0.00841653
7.31468e-05
0.00844829
0.000216812
0.00862786
0.000755506
0.00970592
0.00325058
0.00899927
0.00752766
0.00818051
0.00755377
0.00769152
0.00722554
0.00728803
0.00757984
0.00694887
0.00820068
0.00671988
0.00901416
0.00669952
0.00995999
0.00718818
0.0107761
0.0105813
0.00824522
0.00840003
1.98407e-10
0.00840004
1.47457e-09
0.00840002
4.55931e-09
0.00840007
1.43461e-08
0.00839997
3.40625e-08
0.00840022
9.47017e-08
0.00839976
2.13321e-07
0.00840074
5.85402e-07
0.00839927
1.2973e-06
0.00840257
3.55639e-06
0.00839929
8.0985e-06
0.00841118
2.17739e-05
0.00841482
5.57067e-05
0.00847537
0.000163102
0.00868194
0.000535013
0.00971309
0.00218665
0.00943844
0.00778326
0.00902116
0.0079628
0.00833649
0.00791416
0.00791001
0.0080084
0.00763496
0.00847682
0.00753657
0.00911338
0.00774807
0.00974884
0.00830098
0.0102215
0.00994406
0.0089368
0.00840003
2.21502e-10
0.00840004
1.11638e-09
0.00840002
4.60504e-09
0.00840005
1.0886e-08
0.00839998
3.39075e-08
0.00840019
7.2938e-08
0.00839966
2.10894e-07
0.00840113
4.57614e-07
0.00839782
1.26297e-06
0.00840623
2.85334e-06
0.00839069
7.5863e-06
0.00841921
1.82632e-05
0.00839195
4.89736e-05
0.00844533
0.000137025
0.00850814
0.000442171
0.00897323
0.00171003
0.00949375
0.00720571
0.00916223
0.00828501
0.00872194
0.00835011
0.00842459
0.00830624
0.00826622
0.00863624
0.0082661
0.00911498
0.00850294
0.00951444
0.00898734
0.00973945
0.00944564
0.00948705
0.00840003
1.53333e-10
0.00840003
1.17979e-09
0.00840004
3.50794e-09
0.00840001
1.152e-08
0.00840008
2.63272e-08
0.0083999
7.60716e-08
0.00840041
1.67298e-07
0.00839917
4.67572e-07
0.00840247
1.03691e-06
0.00839545
2.83322e-06
0.00841086
6.51092e-06
0.00838598
1.73705e-05
0.00842366
4.36336e-05
0.00840005
0.000123271
0.00847635
0.000384845
0.00874284
0.00141492
0.0095651
0.00632777
0.00937975
0.00846715
0.00911563
0.00861244
0.0088666
0.00855635
0.00878679
0.00871713
0.00884671
0.00905541
0.00906128
0.00929968
0.00945403
0.00934557
0.0090271
0.00987129
0.00840003
1.73029e-10
0.00840003
9.13601e-10
0.00840003
3.56189e-09
0.00840003
8.92258e-09
0.00840003
2.63303e-08
0.00840005
5.92012e-08
0.00839997
1.67536e-07
0.00840034
3.67849e-07
0.00839923
1.03255e-06
0.00840249
2.28673e-06
0.00839617
6.31776e-06
0.00840949
1.47042e-05
0.00839672
4.00047e-05
0.00842626
0.000106473
0.00846505
0.000327517
0.00872292
0.00115159
0.0101249
0.00486226
0.00988776
0.00869764
0.00957444
0.00892245
0.00930037
0.00883314
0.0092305
0.00878894
0.00931527
0.00897304
0.00950107
0.00911578
0.00979857
0.00905079
0.0087027
0.0101249
0.00840003
1.10008e-10
0.00840003
8.24806e-10
0.00840003
2.51429e-09
0.00840003
8.0437e-09
0.00840005
1.87717e-08
0.00840001
5.28229e-08
0.0084002
1.18794e-07
0.00839974
3.21852e-07
0.00840137
7.30552e-07
0.0083983
1.92414e-06
0.00840775
4.49935e-06
0.00839517
1.16032e-05
0.00842961
2.85252e-05
0.0084298
7.6252e-05
0.00855993
0.000217456
0.00897653
0.000712455
0.0109953
0.00281773
0.0106278
0.00903635
0.0103447
0.00920134
0.00993223
0.00924501
0.00972295
0.00900063
0.00974146
0.00895663
0.00988469
0.00897431
0.0100955
0.00883943
0.00847119
0.010326
0.00840003
1.09096e-10
0.00840003
5.85339e-10
0.00840003
2.28151e-09
0.00840004
5.72931e-09
0.00840001
1.67956e-08
0.00840012
3.8324e-08
0.00839989
1.04412e-07
0.00840058
2.37844e-07
0.00839926
6.25492e-07
0.00840307
1.46256e-06
0.00839641
3.72766e-06
0.00841283
9.04533e-06
0.00839498
2.28653e-05
0.00843972
5.90455e-05
0.00845891
0.000164705
0.00866395
0.000521759
0.00947066
0.00197948
0.0107518
0.00769935
0.0106198
0.0093259
0.0103742
0.00948585
0.0101435
0.00923497
0.010099
0.00900366
0.0101926
0.00888075
0.0103409
0.00869083
0.00831699
0.0104947
0.00840003
7.25838e-11
0.00840003
5.39755e-10
0.00840003
1.6546e-09
0.00840003
5.26549e-09
0.00840005
1.23633e-08
0.00840001
3.47778e-08
0.00840015
7.793e-08
0.00839983
2.13796e-07
0.00840086
4.78821e-07
0.00839873
1.29285e-06
0.00840491
2.95451e-06
0.00839421
7.82506e-06
0.00841858
1.87166e-05
0.00839732
4.96075e-05
0.00845633
0.000133642
0.00853513
0.000410575
0.00904207
0.00146956
0.0107732
0.00590344
0.0108603
0.00923828
0.0107275
0.00961891
0.0104883
0.00947791
0.0104219
0.00907462
0.0104695
0.0088373
0.0105676
0.00859481
0.00822101
0.0106638
0.00840003
6.80888e-11
0.00840003
3.72868e-10
0.00840003
1.43006e-09
0.00840003
3.64013e-09
0.00840003
1.05516e-08
0.00840006
2.42291e-08
0.0084
6.60497e-08
0.00840026
1.49637e-07
0.00839975
3.98738e-07
0.00840159
9.14595e-07
0.00839841
2.3952e-06
0.00840869
5.63749e-06
0.00839613
1.45211e-05
0.00843366
3.59157e-05
0.00843816
9.62368e-05
0.00859186
0.000276433
0.00911237
0.000919413
0.0114121
0.00353287
0.0113836
0.0092601
0.0113059
0.00970481
0.0110709
0.00971999
0.0108212
0.0093291
0.0107577
0.00890472
0.0107907
0.0085645
0.00817499
0.0108379
0.00840003
4.32129e-11
0.00840003
3.14355e-10
0.00840003
9.72328e-10
0.00840003
3.07705e-09
0.00840004
7.26751e-09
0.00840002
2.00694e-08
0.00840012
4.60239e-08
0.00839992
1.2142e-07
0.00840063
2.81981e-07
0.00839935
7.23373e-07
0.00840356
1.71782e-06
0.0083969
4.30807e-06
0.00841671
1.05633e-05
0.00839779
2.64234e-05
0.00846054
6.82263e-05
0.00850574
0.000189005
0.00885409
0.000592482
0.0101503
0.00219873
0.0116084
0.00776433
0.0116146
0.00969803
0.0114322
0.00990388
0.0111778
0.00958567
0.0110626
0.00902153
0.0110266
0.00859985
0.00817951
0.0110225
0.00840003
3.71744e-11
0.00840003
2.19048e-10
0.00840003
8.02777e-10
0.00840004
2.13951e-09
0.00840003
5.94139e-09
0.00840006
1.43022e-08
0.0084
3.69871e-08
0.00840021
8.88898e-08
0.00839983
2.22168e-07
0.00840104
5.44893e-07
0.00839906
1.33124e-06
0.00840523
3.34195e-06
0.00839673
8.06956e-06
0.00842049
2.06923e-05
0.00840903
5.1759e-05
0.00848247
0.00014161
0.00862204
0.000422509
0.00932479
0.00149317
0.0115667
0.00546247
0.0118215
0.0094324
0.0118249
0.00989401
0.0116252
0.00978349
0.0113853
0.00926242
0.0112843
0.00870134
0.00823175
0.0112322
0.00840003
2.6884e-11
0.00840003
1.60055e-10
0.00840003
5.72829e-10
0.00840003
1.56382e-09
0.00840004
4.21488e-09
0.00840003
1.03064e-08
0.00840007
2.63232e-08
0.00840003
6.26813e-08
0.00840018
1.59359e-07
0.00840023
3.75191e-07
0.00840049
9.54342e-07
0.00840201
2.25012e-06
0.00840226
5.71353e-06
0.00841279
1.37292e-05
0.00842244
3.49948e-05
0.00847862
8.9849e-05
0.00863684
0.000253897
0.0093176
0.000809892
0.0118336
0.0029163
0.0123391
0.00889506
0.0123117
0.00991138
0.0120698
0.0100191
0.0117266
0.00960589
0.0115614
0.00886799
0.00834723
0.0114475
0.00840003
1.82523e-11
0.00840003
1.18611e-10
0.00840003
3.9753e-10
0.00840003
1.15705e-09
0.00840004
2.95547e-09
0.00840003
7.55381e-09
0.00840007
1.85864e-08
0.0084
4.57551e-08
0.00840024
1.12793e-07
0.0083999
2.72874e-07
0.00840119
6.78933e-07
0.00839955
1.6282e-06
0.00840547
4.08911e-06
0.00840083
9.82065e-06
0.0084237
2.49772e-05
0.00842949
6.26258e-05
0.00853091
0.000171317
0.008797
0.000518831
0.00983535
0.00186777
0.0121725
0.00649159
0.0124565
0.00961569
0.0124516
0.0100144
0.0121332
0.00992142
0.0118738
0.00913061
0.00852925
0.0116931
0.00840003
1.23848e-11
0.00840003
8.37458e-11
0.00840003
2.75209e-10
0.00840003
8.17046e-10
0.00840003
2.04481e-09
0.00840003
5.36127e-09
0.00840005
1.27937e-08
0.00840002
3.25089e-08
0.00840016
7.758e-08
0.00839994
1.93e-07
0.00840093
4.68561e-07
0.00839942
1.14595e-06
0.00840535
2.82314e-06
0.00839791
6.86524e-06
0.00842477
1.72057e-05
0.00841191
4.27494e-05
0.00850576
0.000112841
0.0086607
0.000320968
0.00947303
0.00106153
0.0121573
0.00372918
0.0127185
0.00903441
0.0127993
0.00993259
0.0126587
0.0100605
0.0122476
0.00954605
0.00879893
0.0119827
0.00840003
8.79976e-12
0.00840003
5.63563e-11
0.00840003
1.94365e-10
0.00840003
5.52344e-10
0.00840003
1.43111e-09
0.00840004
3.66022e-09
0.00840003
8.82803e-09
0.00840006
2.24951e-08
0.00840006
5.25286e-08
0.00840012
1.3585e-07
0.00840032
3.1136e-07
0.00840021
8.11933e-07
0.00840245
1.85895e-06
0.00840051
4.83658e-06
0.00841446
1.12682e-05
0.00841209
2.91838e-05
0.00847189
7.23621e-05
0.00856399
0.000199794
0.00903577
0.000606273
0.0105906
0.00213573
0.0127066
0.00687251
0.012933
0.0097018
0.0130027
0.00998891
0.0126268
0.009924
0.00911221
0.0123229
0.00840003
6.29252e-12
0.00840003
3.78924e-11
0.00840003
1.34032e-10
0.00840003
3.69074e-10
0.00840003
9.9407e-10
0.00840003
2.40134e-09
0.00840004
6.24561e-09
0.00840005
1.44643e-08
0.00840004
3.76803e-08
0.00840015
8.61408e-08
0.00840001
2.24792e-07
0.00840092
5.14165e-07
0.00839973
1.3333e-06
0.00840554
3.09251e-06
0.00839938
7.92952e-06
0.00842729
1.89151e-05
0.00842013
4.86025e-05
0.00852726
0.000125551
0.00873008
0.000362155
0.00966634
0.00120438
0.0124324
0.00403327
0.0131251
0.00898969
0.0132459
0.00986874
0.0131091
0.0100624
0.00952048
0.0127054
0.00840003
3.8591e-12
0.00840003
2.59995e-11
0.00840003
8.61301e-11
0.00840003
2.54543e-10
0.00840003
6.35348e-10
0.00840003
1.67633e-09
0.00840004
3.91985e-09
0.00840004
1.02035e-08
0.00840006
2.33994e-08
0.00840004
6.08588e-08
0.00840025
1.39387e-07
0.00840001
3.60055e-07
0.0084015
8.32198e-07
0.00839985
2.12654e-06
0.00840883
4.99834e-06
0.0084017
1.26207e-05
0.00844164
3.06517e-05
0.00845458
7.88054e-05
0.00863183
0.000212189
0.00915734
0.000649078
0.0109616
0.00221263
0.013119
0.00678101
0.0133139
0.00966789
0.0134853
0.00988814
0.00986615
0.0131422
0.00840003
2.76871e-12
0.00840003
1.63529e-11
0.00840003
5.89456e-11
0.00840003
1.59739e-10
0.00840003
4.34079e-10
0.00840003
1.0429e-09
0.00840003
2.70521e-09
0.00840004
6.27602e-09
0.00840003
1.62118e-08
0.0084001
3.72793e-08
0.00840001
9.58194e-08
0.00840049
2.21642e-07
0.00839992
5.64865e-07
0.00840267
1.32015e-06
0.00839986
3.32916e-06
0.00841374
7.93263e-06
0.00840597
1.98575e-05
0.00846232
4.9099e-05
0.00850583
0.000128567
0.00881773
0.000364592
0.00979323
0.00119821
0.0126425
0.00386862
0.0135155
0.00877588
0.0136565
0.00974786
0.0100122
0.0135122
0.00840003
1.64048e-12
0.00840003
1.09548e-11
0.00840003
3.6547e-11
0.00840003
1.06842e-10
0.00840003
2.69681e-10
0.00840003
6.98861e-10
0.00840003
1.66531e-09
0.00840004
4.23135e-09
0.00840004
9.91823e-09
0.00840005
2.50868e-08
0.00840011
5.88547e-08
0.00840007
1.47822e-07
0.00840058
3.49367e-07
0.00840015
8.68422e-07
0.0084035
2.08183e-06
0.008401
5.11631e-06
0.00841909
1.24929e-05
0.00841643
3.08073e-05
0.00849261
7.80355e-05
0.0086148
0.000209312
0.00919297
0.000631035
0.0109252
0.00210729
0.0133627
0.00628647
0.0136295
0.00947235
0.00974222
0.0139005
0.00840003
1.09128e-12
0.00840003
6.61988e-12
0.00840003
2.37545e-11
0.00840003
6.46779e-11
0.00840003
1.7454e-10
0.00840003
4.25664e-10
0.00840003
1.06971e-09
0.00840004
2.58618e-09
0.00840003
6.30813e-09
0.00840006
1.54191e-08
0.00840004
3.68584e-08
0.00840019
9.14176e-08
0.00840013
2.15567e-07
0.00840073
5.40084e-07
0.00840113
1.26165e-06
0.00840292
3.1933e-06
0.00840829
7.44635e-06
0.0084171
1.89702e-05
0.00845156
4.57086e-05
0.00853341
0.000119964
0.00882941
0.000331611
0.00985239
0.00106521
0.0127291
0.00333859
0.0138568
0.00832377
0.00965863
0.0139405
0.00840003
6.87165e-13
0.00840003
4.13533e-12
0.00840003
1.47847e-11
0.00840003
4.03653e-11
0.00840003
1.08767e-10
0.00840003
2.63329e-10
0.00840003
6.74183e-10
0.00840003
1.57844e-09
0.00840004
4.01478e-09
0.00840005
9.3171e-09
0.00840004
2.36297e-08
0.00840013
5.50566e-08
0.00840005
1.38088e-07
0.00840066
3.26319e-07
0.00840005
8.06027e-07
0.00840385
1.93892e-06
0.00840061
4.72179e-06
0.00842017
1.16001e-05
0.00841371
2.82715e-05
0.00849415
7.1709e-05
0.00859124
0.000188726
0.00912676
0.000558977
0.0105805
0.00184108
0.01342
0.00543175
0.00909059
0.0139765
0.00840003
3.92819e-13
0.00840003
2.61917e-12
0.00840003
8.66042e-12
0.00840003
2.55709e-11
0.00840003
6.38449e-11
0.00840003
1.65885e-10
0.00840003
3.95859e-10
0.00840003
9.87515e-10
0.00840004
2.36637e-09
0.00840003
5.75734e-09
0.00840006
1.39961e-08
0.00840004
3.34211e-08
0.00840018
8.23878e-08
0.00840014
1.94302e-07
0.00840072
4.83319e-07
0.00840113
1.12918e-06
0.008403
2.83658e-06
0.00840817
6.60424e-06
0.0084173
1.66891e-05
0.00845109
3.99303e-05
0.00853086
0.000103256
0.00880987
0.000278145
0.00977788
0.000861182
0.0125425
0.00264499
0.00749445
0.0141014
0.00840003
2.4379e-13
0.00840003
1.56096e-12
0.00840003
5.38205e-12
0.00840003
1.52305e-11
0.00840003
3.95389e-11
0.00840003
9.93372e-11
0.00840003
2.4149e-10
0.00840003
6.00817e-10
0.00840003
1.412e-09
0.00840004
3.56678e-09
0.00840004
8.20929e-09
0.00840004
2.09393e-08
0.00840012
4.79265e-08
0.00840006
1.21994e-07
0.0084006
2.81125e-07
0.00840013
7.08111e-07
0.00840342
1.65353e-06
0.00840097
4.11768e-06
0.00841822
9.79902e-06
0.00841278
2.42775e-05
0.00848666
5.99735e-05
0.0085627
0.000156232
0.00901023
0.000446497
0.0101693
0.00144184
0.00432614
0.0132749
0.00840003
1.48864e-13
0.00840003
9.36412e-13
0.00840003
3.22127e-12
0.00840003
9.11809e-12
0.00840003
2.36825e-11
0.00840003
5.89852e-11
0.00840003
1.46498e-10
0.00840003
3.502e-10
0.00840003
8.72649e-10
0.00840004
2.03645e-09
0.00840004
5.13182e-09
0.00840005
1.1843e-08
0.00840005
3.00024e-08
0.00840016
6.90397e-08
0.00840009
1.74481e-07
0.00840085
4.04594e-07
0.00840027
1.01184e-06
0.0084049
2.37677e-06
0.00840206
5.89157e-06
0.00842593
1.40832e-05
0.00842449
3.49679e-05
0.00852784
8.7146e-05
0.00869711
0.000233104
0.00946325
0.000692852
0.00217656
0.0115802
0.00840003
8.55565e-14
0.00840003
5.51616e-13
0.00840003
1.88895e-12
0.00840003
5.38541e-12
0.00840003
1.38308e-11
0.00840003
3.50394e-11
0.00840003
8.4278e-11
0.00840003
2.09829e-10
0.00840003
4.93502e-10
0.00840003
1.23276e-09
0.00840004
2.86607e-09
0.00840004
7.17207e-09
0.00840006
1.66605e-08
0.00840006
4.15474e-08
0.00840021
9.70513e-08
0.00840014
2.39652e-07
0.00840119
5.66937e-07
0.00840056
1.37983e-06
0.00840692
3.31617e-06
0.00840415
7.99098e-06
0.00843666
1.9558e-05
0.00844366
4.77002e-05
0.00859327
0.000122113
0.00889991
0.000334411
0.0010385
0.0100501
0.00840003
5.24968e-14
0.00840003
3.11414e-13
0.00840003
1.13021e-12
0.00840003
3.0387e-12
0.00840003
8.24983e-12
0.00840003
1.97691e-11
0.00840003
5.04258e-11
0.00840003
1.18009e-10
0.00840003
2.95161e-10
0.00840003
6.92271e-10
0.00840003
1.70561e-09
0.00840004
4.05189e-09
0.00840004
9.81492e-09
0.00840008
2.37006e-08
0.00840006
5.64345e-08
0.00840027
1.38385e-07
0.0084003
3.24655e-07
0.0084011
8.07337e-07
0.00840226
1.87428e-06
0.00840484
4.70208e-06
0.00841502
1.09496e-05
0.0084288
2.76533e-05
0.00849127
6.67912e-05
0.00863191
0.000176451
0.000501077
0.00917732
0.00840003
2.80374e-14
0.00840003
1.87156e-13
0.00840003
6.18664e-13
0.00840003
1.82107e-12
0.00840003
4.55729e-12
0.00840003
1.1692e-11
0.00840003
2.80893e-11
0.00840003
6.89658e-11
0.00840003
1.66345e-10
0.00840003
3.97907e-10
0.00840003
9.74056e-10
0.00840003
2.28789e-09
0.00840004
5.68014e-09
0.00840005
1.31602e-08
0.00840006
3.29381e-08
0.00840016
7.60243e-08
0.00840015
1.90306e-07
0.0084009
4.40527e-07
0.00840057
1.09467e-06
0.00840539
2.56771e-06
0.00840341
6.30657e-06
0.00842986
1.50809e-05
0.00843147
3.70996e-05
0.00855304
9.23999e-05
0.000245283
0.0087593
0.00840003
1.64047e-14
0.00840003
1.02382e-13
0.00840003
3.59092e-13
0.00840003
1.0021e-12
0.00840003
2.61677e-12
0.00840003
6.53013e-12
0.00840003
1.58159e-11
0.00840003
3.90155e-11
0.00840003
9.17663e-11
0.00840003
2.2803e-10
0.00840003
5.28098e-10
0.00840003
1.31867e-09
0.00840004
3.04443e-09
0.00840004
7.58579e-09
0.00840007
1.758e-08
0.00840006
4.34086e-08
0.00840025
1.01833e-07
0.00840017
2.47845e-07
0.00840127
5.90105e-07
0.00840104
1.41205e-06
0.00840678
3.42675e-06
0.00840716
8.09259e-06
0.00843499
2.00101e-05
0.00845859
4.78859e-05
0.000123013
0.00860296
0.00840003
9.31162e-15
0.00840003
5.74617e-14
0.00840003
2.01335e-13
0.00840003
5.57851e-13
0.00840003
1.47665e-12
0.00840003
3.58129e-12
0.00840003
9.04609e-12
0.00840003
2.10789e-11
0.00840003
5.29039e-11
0.00840003
1.22118e-10
0.00840003
3.04753e-10
0.00840003
7.05717e-10
0.00840003
1.74447e-09
0.00840004
4.08515e-09
0.00840004
9.95157e-09
0.00840008
2.36709e-08
0.00840007
5.6678e-08
0.00840028
1.37183e-07
0.00840036
3.22389e-07
0.00840114
7.95056e-07
0.00840255
1.83941e-06
0.00840509
4.59768e-06
0.00841653
1.06167e-05
0.00843007
2.68007e-05
6.39275e-05
0.00849855
0.00840003
4.8208e-15
0.00840003
3.23655e-14
0.00840003
1.0772e-13
0.00840003
3.16902e-13
0.00840003
7.88528e-13
0.00840003
2.04399e-12
0.00840003
4.79544e-12
0.00840003
1.20747e-11
0.00840003
2.79892e-11
0.00840003
6.9605e-11
0.00840003
1.62158e-10
0.00840003
3.97918e-10
0.00840003
9.38231e-10
0.00840003
2.26884e-09
0.00840004
5.43203e-09
0.00840004
1.29083e-08
0.00840009
3.14133e-08
0.00840012
7.34921e-08
0.00840027
1.81492e-07
0.00840066
4.19229e-07
0.00840107
1.04445e-06
0.00840434
2.40824e-06
0.00840521
6.00718e-06
0.00842569
1.39924e-05
3.50625e-05
0.00843739
0.00840003
2.7562e-15
0.00840003
1.70944e-14
0.00840003
6.09302e-14
0.00840003
1.65908e-13
0.00840003
4.43656e-13
0.00840003
1.07174e-12
0.00840003
2.6919e-12
0.00840003
6.32705e-12
0.00840003
1.56426e-11
0.00840003
3.65221e-11
0.00840003
8.97575e-11
0.00840003
2.10346e-10
0.00840003
5.11743e-10
0.00840004
1.20952e-09
0.00840004
2.91069e-09
0.00840004
6.96534e-09
0.00840006
1.65224e-08
0.00840008
3.99805e-08
0.0084002
9.38955e-08
0.00840024
2.29184e-07
0.00840115
5.34022e-07
0.00840105
1.3083e-06
0.00840685
3.0495e-06
0.00840619
7.47993e-06
1.75711e-05
0.00843876
0.00840003
1.4051e-15
0.00840003
9.42435e-15
0.00840003
3.19777e-14
0.00840003
9.16109e-14
0.00840003
2.33216e-13
0.00840003
5.88312e-13
0.00840003
1.41261e-12
0.00840003
3.47608e-12
0.00840003
8.17316e-12
0.00840003
2.00694e-11
0.00840003
4.68428e-11
0.00840003
1.14852e-10
0.00840003
2.67882e-10
0.00840003
6.53723e-10
0.00840004
1.53546e-09
0.00840004
3.70772e-09
0.00840005
8.78015e-09
0.00840005
2.10336e-08
0.00840014
5.01904e-08
0.00840014
1.19167e-07
0.0084006
2.86323e-07
0.00840077
6.75728e-07
0.00840278
1.63345e-06
0.00840529
3.83607e-06
9.3408e-06
0.00841399
0.00840003
8.42506e-16
0.00840003
4.99365e-15
0.00840003
1.72256e-14
0.00840003
4.7551e-14
0.00840003
1.26464e-13
0.00840003
3.07281e-13
0.00840003
7.63761e-13
0.00840003
1.81658e-12
0.00840003
4.39968e-12
0.00840003
1.05054e-11
0.00840003
2.50354e-11
0.00840003
6.03136e-11
0.00840003
1.42086e-10
0.00840003
3.45391e-10
0.00840003
8.05237e-10
0.00840004
1.97229e-09
0.00840004
4.57532e-09
0.00840004
1.12101e-08
0.00840009
2.60795e-08
0.00840008
6.34375e-08
0.00840036
1.49017e-07
0.00840031
3.58256e-07
0.00840189
8.52088e-07
0.0084018
2.02405e-06
4.88343e-06
0.00841027
0.00840003
4.18068e-16
0.00840003
2.50464e-15
0.00840003
8.77139e-15
0.00840003
2.51383e-14
0.00840003
6.59167e-14
0.00840003
1.61296e-13
0.00840003
4.00729e-13
0.00840003
9.45015e-13
0.00840003
2.32364e-12
0.00840003
5.41901e-12
0.00840003
1.32836e-11
0.00840003
3.09336e-11
0.00840003
7.55102e-11
0.00840003
1.76784e-10
0.00840003
4.27067e-10
0.00840003
1.01114e-09
0.00840003
2.4135e-09
0.00840005
5.78232e-09
0.00840005
1.36264e-08
0.00840009
3.29711e-08
0.00840013
7.70669e-08
0.00840032
1.87799e-07
0.00840073
4.36052e-07
0.00840135
1.06666e-06
2.47857e-06
0.0084047
0.00840003
1.51056e-16
0.00840003
1.239e-15
0.00840003
4.99237e-15
0.00840003
1.29033e-14
0.00840003
3.40984e-14
0.00840003
8.47383e-14
0.00840003
2.03982e-13
0.00840003
4.97146e-13
0.00840003
1.18272e-12
0.00840003
2.83439e-12
0.00840003
6.78899e-12
0.00840003
1.60411e-11
0.00840003
3.87715e-11
0.00840003
9.07282e-11
0.00840003
2.21052e-10
0.00840003
5.12974e-10
0.00840003
1.25572e-09
0.00840004
2.90825e-09
0.00840004
7.10676e-09
0.00840007
1.65224e-08
0.00840007
4.00598e-08
0.00840025
9.40113e-08
0.00840024
2.25303e-07
0.00840124
5.35187e-07
1.26603e-06
0.00840136
0.00840003
7.00395e-17
0.00840003
7.69079e-16
0.00840003
2.17502e-15
0.00840003
6.62716e-15
0.00840003
1.68593e-14
0.00840003
4.31974e-14
0.00840003
1.02547e-13
0.00840003
2.53921e-13
0.00840003
5.92591e-13
0.00840003
1.45186e-12
0.00840003
3.37162e-12
0.00840003
8.23773e-12
0.00840003
1.91609e-11
0.00840003
4.64446e-11
0.00840003
1.08964e-10
0.00840003
2.61466e-10
0.00840003
6.18553e-10
0.00840003
1.46906e-09
0.00840004
3.50938e-09
0.00840004
8.2521e-09
0.00840007
1.98557e-08
0.0084001
4.63043e-08
0.00840021
1.12128e-07
0.00840053
2.59965e-07
6.30523e-07
0.00840082
0.00840003
8.83625e-17
0.00840003
3.33094e-16
0.00840003
1.09559e-15
0.00840003
3.28291e-15
0.00840003
8.16076e-15
0.00840003
2.02106e-14
0.00840003
5.07615e-14
0.00840003
1.1901e-13
0.00840003
2.91918e-13
0.00840003
6.87588e-13
0.00840003
1.64769e-12
0.00840003
3.92422e-12
0.00840003
9.24179e-12
0.00840003
2.23485e-11
0.00840003
5.17405e-11
0.00840003
1.26687e-10
0.00840003
2.90486e-10
0.00840003
7.14347e-10
0.00840004
1.63437e-09
0.00840004
4.00446e-09
0.00840006
9.21227e-09
0.00840006
2.23446e-08
0.00840017
5.19599e-08
0.00840019
1.24267e-07
2.92767e-07
0.00840074
0.00840003
5.96311e-17
0.00840003
1.30999e-16
0.00840003
7.3452e-16
0.00840003
1.6321e-15
0.00840003
3.78159e-15
0.00840003
9.08174e-15
0.00840003
2.08087e-14
0.00840003
4.87834e-14
0.00840003
1.17494e-13
0.00840003
2.73147e-13
0.00840003
6.64449e-13
0.00840003
1.53752e-12
0.00840003
3.74289e-12
0.00840003
8.64597e-12
0.00840003
2.10057e-11
0.00840003
4.86089e-11
0.00840003
1.17195e-10
0.00840003
2.73386e-10
0.00840003
6.51233e-10
0.00840004
1.53016e-09
0.00840004
3.62412e-09
0.00840006
8.54128e-09
0.00840007
2.00777e-08
0.0084002
4.75573e-08
1.11156e-07
0.00840026
0.00840003
0.00840003
0.00840003
0.00840003
0.00840003
0.00840003
0.00840003
0.00840003
0.00840003
0.00840003
0.00840003
0.00840003
0.00840003
0.00840003
0.00840003
0.00840003
0.00840003
0.00840003
0.00840003
0.00840004
0.00840004
0.00840005
0.00840005
0.00840014
0.00840015
0.00472588
0.00402766
0.00312728
0.00159805
0.00244696
0.000680186
0.00217617
0.000270492
0.00216242
1.35485e-05
0.00235398
-0.000192135
0.00256815
-0.000215111
0.00268833
-0.000121473
0.00272999
-4.28372e-05
0.00272541
3.38935e-06
0.00270253
2.19771e-05
0.00268992
1.15819e-05
0.00268737
1.59055e-06
0.00269625
-9.52407e-06
0.00270845
-1.3375e-05
0.00271963
-1.20687e-05
0.00272851
-9.84852e-06
0.00273504
-7.38183e-06
0.00273956
-5.34204e-06
0.00274313
-4.33469e-06
0.00274778
-5.11826e-06
0.00275452
-6.79767e-06
0.00276275
-7.94304e-06
0.00277166
-8.34381e-06
0.00278083
-8.42273e-06
0.00279005
-8.44697e-06
0.00279916
-8.51834e-06
0.00280807
-8.62338e-06
0.00281671
-8.71672e-06
0.00282501
-8.76142e-06
0.00283294
-8.75045e-06
0.00284035
-8.69238e-06
0.00284724
-8.60097e-06
0.00285341
-8.49543e-06
0.00285879
-8.37709e-06
0.00286345
-8.25487e-06
0.00286727
-8.09077e-06
0.00286833
-7.99985e-06
0.00286902
-8.13121e-06
0.00286895
-8.41924e-06
0.00286485
-8.73752e-06
0.00285482
-8.82903e-06
0.00283313
-7.99607e-06
0.00278405
-4.81332e-06
0.00266048
1.1151e-05
0.00231412
8.27103e-05
0.00133961
0.000399894
0.000563145
0.000502223
0.000575206
6.87384e-05
0.00106031
-0.00045994
0.00160182
-0.000560528
0.00209427
-0.000519001
0.00254844
-0.000466768
0.00296001
-0.000416264
0.0033162
-0.000359052
0.00361457
-0.000298442
0.00386887
-0.000255145
0.00410335
-0.000230044
0.00431006
-0.000201532
0.004491
-0.00017916
0.00465124
-0.000160464
0.00479339
-0.00014349
0.00492096
-0.000128526
0.00503485
-0.000115369
0.00513721
-0.000104035
0.00522886
-9.41496e-05
0.00531053
-8.54319e-05