/*--------------------------------*- C++ -*----------------------------------*\
  =========                 |
  \\      /  F ield         | OpenFOAM: The Open Source CFD Toolbox
   \\    /   O peration     | Website:  https://openfoam.org
    \\  /    A nd           | Version:  13
     \\/     M anipulation  |
\*---------------------------------------------------------------------------*/
FoamFile
{
    format      ascii;
    class       volVectorField;
    location    "2";
    object      U;
}
// * * * * * * * * * * * * * * * * * * * * * * * * * * * * * * * * * * * * * //

dimensions      [0 1 -1 0 0 0 0];

internalField   nonuniform List<vector> 
5250
(
(3 5.52063e-09 0)
(2.99999 3.37812e-08 0)
(2.99998 1.18103e-07 0)
(2.99994 3.31396e-07 0)
(2.99984 8.75233e-07 0)
(2.99962 2.1916e-06 0)
(2.99904 5.39947e-06 0)
(2.99767 1.36827e-05 0)
(2.99417 3.33861e-05 0)
(2.98559 8.5931e-05 0)
(2.96347 0.000212375 0)
(2.90433 0.000553948 0)
(2.73604 0.00149185 0)
(2.2315 0.00423228 0)
(1.07063 0.0125459 0)
(0.371867 0.0211864 0)
(0.542359 0.0240871 0)
(0.595577 0.025943 0)
(0.540154 0.0278099 0)
(0.445576 0.0299914 0)
(0.355162 0.032765 0)
(0.28215 0.0360488 0)
(0.210162 0.0395495 0)
(0.127984 0.0437551 0)
(0.0581901 0.049451 0)
(3 1.23071e-08 0)
(2.99999 1.28012e-07 0)
(2.99998 2.8865e-07 0)
(2.99994 1.24489e-06 0)
(2.99985 2.17793e-06 0)
(2.99962 7.98976e-06 0)
(2.99905 1.40887e-05 0)
(2.99769 4.74234e-05 0)
(2.99423 9.43321e-05 0)
(2.98574 0.000276292 0)
(2.96386 0.000628477 0)
(2.9054 0.00171117 0)
(2.73909 0.00453876 0)
(2.24062 0.012978 0)
(1.08407 0.0383505 0)
(0.38026 0.0631924 0)
(0.544001 0.0691047 0)
(0.595877 0.071584 0)
(0.540382 0.074202 0)
(0.446176 0.0780017 0)
(0.355879 0.0829794 0)
(0.282099 0.0883522 0)
(0.208763 0.0932791 0)
(0.125033 0.0981835 0)
(0.0549045 0.103224 0)
(3 1.30882e-08 0)
(2.99999 2.32009e-07 0)
(2.99998 4.26763e-07 0)
(2.99994 2.24579e-06 0)
(2.99985 3.29655e-06 0)
(2.99963 1.44525e-05 0)
(2.99908 2.09555e-05 0)
(2.99774 8.79395e-05 0)
(2.99436 0.000137367 0)
(2.98604 0.000500869 0)
(2.96467 0.000981714 0)
(2.90758 0.00291179 0)
(2.74547 0.00745298 0)
(2.25996 0.0215957 0)
(1.1142 0.0639482 0)
(0.400778 0.107461 0)
(0.548881 0.117518 0)
(0.598141 0.120777 0)
(0.543537 0.125041 0)
(0.450938 0.132735 0)
(0.361351 0.14223 0)
(0.286873 0.151917 0)
(0.212161 0.161002 0)
(0.126735 0.169483 0)
(0.0546935 0.176528 0)
(3 3.66371e-08 0)
(2.99999 2.33732e-07 0)
(2.99998 8.0294e-07 0)
(2.99994 2.28464e-06 0)
(2.99986 5.99659e-06 0)
(2.99964 1.52321e-05 0)
(2.99911 3.79708e-05 0)
(2.99779 9.49408e-05 0)
(2.99458 0.000234012 0)
(2.98645 0.000586231 0)
(2.96587 0.00146447 0)
(2.91079 0.00378079 0)
(2.75471 0.0102087 0)
(2.28849 0.0290765 0)
(1.16018 0.0865061 0)
(0.433146 0.150894 0)
(0.55655 0.16676 0)
(0.601494 0.169387 0)
(0.549568 0.174769 0)
(0.460319 0.187366 0)
(0.371711 0.202013 0)
(0.296509 0.216477 0)
(0.220327 0.230408 0)
(0.132525 0.243279 0)
(0.0568519 0.25293 0)
(3 5.60653e-08 0)
(2.99999 2.56935e-07 0)
(2.99998 1.10575e-06 0)
(2.99994 2.52912e-06 0)
(2.99986 8.14688e-06 0)
(2.99965 1.70995e-05 0)
(2.99914 5.17238e-05 0)
(2.9979 0.000105882 0)
(2.99477 0.00031672 0)
(2.98706 0.00067351 0)
(2.96733 0.00188589 0)
(2.91488 0.0045635 0)
(2.76661 0.0125978 0)
(2.3245 0.035481 0)
(1.22193 0.1059 0)
(0.477683 0.194351 0)
(0.566173 0.218044 0)
(0.60405 0.21731 0)
(0.557809 0.222811 0)
(0.474016 0.241025 0)
(0.386256 0.261379 0)
(0.310236 0.281194 0)
(0.232592 0.300719 0)
(0.141694 0.318919 0)
(0.0609112 0.332005 0)
(3 4.71668e-08 0)
(2.99999 3.7939e-07 0)
(2.99998 1.12875e-06 0)
(2.99995 3.69743e-06 0)
(2.99987 8.45453e-06 0)
(2.99967 2.44532e-05 0)
(2.99919 5.27564e-05 0)
(2.99801 0.000151494 0)
(2.99505 0.000322317 0)
(2.98775 0.000907588 0)
(2.96911 0.0020621 0)
(2.91972 0.00556386 0)
(2.78054 0.0145364 0)
(2.36709 0.0413301 0)
(1.29967 0.123066 0)
(0.5355 0.241788 0)
(0.576528 0.267389 0)
(0.60308 0.263921 0)
(0.567677 0.270783 0)
(0.492167 0.294166 0)
(0.405428 0.321154 0)
(0.328808 0.347351 0)
(0.249959 0.374051 0)
(0.155258 0.399866 0)
(0.0673772 0.419112 0)
(3 5.82466e-08 0)
(2.99999 4.19197e-07 0)
(2.99998 1.32739e-06 0)
(2.99995 4.08595e-06 0)
(2.99988 9.91634e-06 0)
(2.99969 2.70472e-05 0)
(2.99925 6.25114e-05 0)
(2.99812 0.00016729 0)
(2.9954 0.000383855 0)
(2.98851 0.00101352 0)
(2.97121 0.00241594 0)
(2.92529 0.00632435 0)
(2.7964 0.0166636 0)
(2.41573 0.0470254 0)
(1.39722 0.139062 0)
(0.605955 0.293877 0)
(0.58453 0.310438 0)
(0.603231 0.308965 0)
(0.580599 0.321353 0)
(0.515084 0.347068 0)
(0.430351 0.380884 0)
(0.353533 0.415066 0)
(0.274357 0.451228 0)
(0.175945 0.488201 0)
(0.078369 0.518968 0)
(3 7.38714e-08 0)
(2.99999 4.34585e-07 0)
(2.99998 1.57429e-06 0)
(2.99995 4.24369e-06 0)
(2.99989 1.17148e-05 0)
(2.99972 2.83368e-05 0)
(2.99931 7.45408e-05 0)
(2.99828 0.000175817 0)
(2.99575 0.000458096 0)
(2.98945 0.00108663 0)
(2.97353 0.00279855 0)
(2.9316 0.00699216 0)
(2.81447 0.0186878 0)
(2.46977 0.0522884 0)
(1.51734 0.153301 0)
(0.68883 0.347326 0)
(0.590882 0.352012 0)
(0.610605 0.352648 0)
(0.59759 0.372238 0)
(0.54119 0.399791 0)
(0.462364 0.439817 0)
(0.387032 0.484055 0)
(0.308942 0.53298 0)
(0.20807 0.586576 0)
(0.0974893 0.63971 0)
(3 7.66262e-08 0)
(2.99999 5.00845e-07 0)
(2.99998 1.71629e-06 0)
(2.99996 4.86882e-06 0)
(2.9999 1.28191e-05 0)
(2.99974 3.24573e-05 0)
(2.99937 8.02405e-05 0)
(2.99844 0.000203254 0)
(2.99616 0.000487464 0)
(2.99047 0.00124801 0)
(2.97613 0.00301446 0)
(2.93853 0.00779478 0)
(2.83418 0.0203402 0)
(2.5285 0.0570799 0)
(1.65863 0.166069 0)
(0.785459 0.401798 0)
(0.59598 0.396197 0)
(0.622889 0.394892 0)
(0.620301 0.41982 0)
(0.571914 0.451215 0)
(0.502328 0.497584 0)
(0.432054 0.553293 0)
(0.35853 0.617556 0)
(0.261131 0.697793 0)
(0.133195 0.796626 0)
(3 9.1552e-08 0)
(2.99999 5.08852e-07 0)
(2.99999 1.94028e-06 0)
(2.99996 4.97826e-06 0)
(2.99991 1.43967e-05 0)
(2.99977 3.32426e-05 0)
(2.99945 9.08177e-05 0)
(2.99862 0.000207441 0)
(2.99662 0.000552877 0)
(2.99156 0.00129032 0)
(2.97898 0.00335594 0)
(2.94606 0.0082734 0)
(2.85551 0.0220116 0)
(2.59192 0.0609734 0)
(1.82286 0.17711 0)
(0.899945 0.454467 0)
(0.604567 0.440924 0)
(0.641616 0.436411 0)
(0.650634 0.462902 0)
(0.610003 0.500074 0)
(0.55191 0.552389 0)
(0.490561 0.618856 0)
(0.43039 0.704477 0)
(0.353266 0.830653 0)
(0.202502 1.05274 0)
(3 8.96929e-08 0)
(3 5.29952e-07 0)
(2.99999 1.9313e-06 0)
(2.99997 5.20424e-06 0)
(2.99992 1.44074e-05 0)
(2.99981 3.49438e-05 0)
(2.99952 9.13695e-05 0)
(2.99883 0.000219137 0)
(2.99706 0.000560765 0)
(2.9928 0.00136609 0)
(2.98194 0.00345293 0)
(2.9541 0.00869002 0)
(2.87811 0.0228147 0)
(2.65862 0.0632157 0)
(2.00822 0.1836 0)
(1.03672 0.499107 0)
(0.6286 0.489557 0)
(0.671346 0.484008 0)
(0.691911 0.50343 0)
(0.658757 0.543941 0)
(0.611655 0.600093 0)
(0.56759 0.675788 0)
(0.53989 0.781142 0)
(0.545836 0.939326 0)
(0.597062 1.20172 0)
(3 7.91362e-08 0)
(3 5.29447e-07 0)
(2.99999 1.73956e-06 0)
(2.99997 5.19201e-06 0)
(2.99993 1.30066e-05 0)
(2.99984 3.4634e-05 0)
(2.9996 8.28519e-05 0)
(2.99901 0.000215243 0)
(2.99758 0.000515984 0)
(2.99397 0.00132124 0)
(2.98509 0.00323765 0)
(2.96222 0.00826295 0)
(2.90103 0.0214279 0)
(2.72709 0.0589359 0)
(2.21112 0.17104 0)
(1.21382 0.492752 0)
(0.696809 0.53038 0)
(0.722787 0.539788 0)
(0.74576 0.545323 0)
(0.721163 0.583324 0)
(0.684343 0.640971 0)
(0.659364 0.72142 0)
(0.665005 0.8335 0)
(0.73077 0.988225 0)
(0.893556 1.19021 0)
(3 7.03768e-08 0)
(3 4.59618e-07 0)
(2.99999 1.52169e-06 0)
(2.99998 4.4913e-06 0)
(2.99995 1.13145e-05 0)
(2.99987 2.96307e-05 0)
(2.99967 7.22294e-05 0)
(2.99919 0.000181078 0)
(2.99798 0.000448122 0)
(2.99507 0.0010994 0)
(2.98773 0.00275321 0)
(2.96926 0.00683973 0)
(2.92046 0.0176073 0)
(2.78389 0.0472994 0)
(2.3852 0.134997 0)
(1.41308 0.405003 0)
(0.78841 0.559987 0)
(0.77454 0.590532 0)
(0.793462 0.594585 0)
(0.787224 0.624888 0)
(0.763426 0.678936 0)
(0.756141 0.755489 0)
(0.784938 0.858701 0)
(0.874603 0.986912 0)
(1.05756 1.11584 0)
(3 6.16422e-08 0)
(3 3.83642e-07 0)
(2.99999 1.3548e-06 0)
(2.99998 3.72357e-06 0)
(2.99996 1.00458e-05 0)
(2.99989 2.47159e-05 0)
(2.99973 6.26017e-05 0)
(2.99932 0.000153434 0)
(2.99834 0.000376755 0)
(2.99589 0.000937784 0)
(2.98987 0.00228306 0)
(2.97458 0.00571297 0)
(2.93473 0.0143893 0)
(2.82403 0.0379393 0)
(2.50218 0.105558 0)
(1.6244 0.313671 0)
(0.892723 0.605675 0)
(0.805813 0.636384 0)
(0.825982 0.645914 0)
(0.839681 0.665595 0)
(0.835348 0.712333 0)
(0.844327 0.779451 0)
(0.887566 0.864678 0)
(0.982163 0.962228 0)
(1.15316 1.04457 0)
(3 5.55481e-08 0)
(3 3.40835e-07 0)
(2.99999 1.20332e-06 0)
(2.99999 3.32246e-06 0)
(2.99996 8.93403e-06 0)
(2.99991 2.20977e-05 0)
(2.99977 5.60861e-05 0)
(2.99945 0.000137141 0)
(2.99864 0.000340556 0)
(2.99666 0.000839902 0)
(2.9917 0.00207048 0)
(2.97935 0.00515989 0)
(2.94721 0.0129839 0)
(2.85925 0.0340278 0)
(2.6047 0.0940607 0)
(1.87158 0.274325 0)
(1.04509 0.648554 0)
(0.832279 0.670881 0)
(0.8502 0.682359 0)
(0.879102 0.695381 0)
(0.896605 0.73579 0)
(0.919543 0.793622 0)
(0.971013 0.861949 0)
(1.06382 0.934214 0)
(1.21562 0.989979 0)
(3 4.88056e-08 0)
(3 3.12594e-07 0)
(3 1.05723e-06 0)
(2.99999 3.06007e-06 0)
(2.99997 7.88185e-06 0)
(2.99993 2.02652e-05 0)
(2.99982 5.01551e-05 0)
(2.99956 0.000125251 0)
(2.99893 0.00030999 0)
(2.99733 0.000766812 0)
(2.99347 0.00191092 0)
(2.98368 0.00473676 0)
(2.95876 0.0120155 0)
(2.89146 0.0312211 0)
(2.69926 0.0860554 0)
(2.1304 0.249855 0)
(1.23932 0.668145 0)
(0.882234 0.70362 0)
(0.885649 0.713194 0)
(0.919128 0.720101 0)
(0.952401 0.750916 0)
(0.984809 0.800058 0)
(1.0394 0.855581 0)
(1.12746 0.909844 0)
(1.26028 0.949375 0)
(3 4.21724e-08 0)
(3 2.58996e-07 0)
(3 9.06043e-07 0)
(2.99999 2.53029e-06 0)
(2.99998 6.72547e-06 0)
(2.99994 1.67159e-05 0)
(2.99986 4.26942e-05 0)
(2.99967 0.000102903 0)
(2.99917 0.000262771 0)
(2.99799 0.00062704 0)
(2.99501 0.00160505 0)
(2.98777 0.00386894 0)
(2.9693 0.00987965 0)
(2.92098 0.0251413 0)
(2.78704 0.0681748 0)
(2.39692 0.195447 0)
(1.50386 0.570806 0)
(0.993014 0.713391 0)
(0.947829 0.739629 0)
(0.968023 0.750137 0)
(1.00761 0.767749 0)
(1.04578 0.805405 0)
(1.09897 0.849611 0)
(1.17973 0.890778 0)
(1.2952 0.91938 0)
(3 3.23289e-08 0)
(3 2.08425e-07 0)
(3 7.07221e-07 0)
(2.99999 2.02898e-06 0)
(2.99998 5.23849e-06 0)
(2.99996 1.34117e-05 0)
(2.9999 3.28358e-05 0)
(2.99974 8.2212e-05 0)
(2.99937 0.00019895 0)
(2.99845 0.000495592 0)
(2.99617 0.00119919 0)
(2.99057 0.0029851 0)
(2.97649 0.00731158 0)
(2.93993 0.0185133 0)
(2.83975 0.0483108 0)
(2.55093 0.133839 0)
(1.76753 0.39998 0)
(1.10922 0.725285 0)
(0.997949 0.765364 0)
(1.00916 0.783566 0)
(1.05112 0.790463 0)
(1.09743 0.814577 0)
(1.15021 0.847249 0)
(1.22382 0.877795 0)
(1.32447 0.898088 0)
(3 2.6929e-08 0)
(3 1.66984e-07 0)
(3 5.83925e-07 0)
(2.99999 1.6304e-06 0)
(2.99999 4.32695e-06 0)
(2.99997 1.08432e-05 0)
(2.99992 2.70641e-05 0)
(2.99981 6.69862e-05 0)
(2.99952 0.000163902 0)
(2.99883 0.00040829 0)
(2.99709 0.000989521 0)
(2.99286 0.00248352 0)
(2.98221 0.0060598 0)
(2.955 0.0153789 0)
(2.88132 0.0397005 0)
(2.67115 0.108943 0)
(2.0584 0.318611 0)
(1.28676 0.751312 0)
(1.04536 0.799264 0)
(1.04405 0.814578 0)
(1.084 0.815305 0)
(1.13864 0.823951 0)
(1.19323 0.846232 0)
(1.26124 0.868806 0)
(1.3498 0.883115 0)
(3 2.08844e-08 0)
(3 1.3563e-07 0)
(3 4.5823e-07 0)
(3 1.32285e-06 0)
(2.99999 3.40468e-06 0)
(2.99998 8.7682e-06 0)
(2.99994 2.13957e-05 0)
(2.99986 5.40425e-05 0)
(2.99965 0.000130439 0)
(2.99914 0.000328286 0)
(2.9979 0.000794159 0)
(2.9948 0.00199415 0)
(2.98723 0.0048764 0)
(2.96793 0.012303 0)
(2.9173 0.0315142 0)
(2.77653 0.0852489 0)
(2.36314 0.245546 0)
(1.55085 0.674763 0)
(1.14338 0.80866 0)
(1.09907 0.832796 0)
(1.12109 0.838777 0)
(1.17494 0.836671 0)
(1.23302 0.848173 0)
(1.29599 0.863412 0)
(1.37384 0.872985 0)
(3 1.64733e-08 0)
(3 1.01587e-07 0)
(3 3.54451e-07 0)
(3 9.90333e-07 0)
(2.99999 2.62396e-06 0)
(2.99998 6.52676e-06 0)
(2.99996 1.64938e-05 0)
(2.9999 3.98874e-05 0)
(2.99975 0.000100088 0)
(2.99938 0.00024053 0)
(2.99848 0.000603191 0)
(2.99627 0.00145219 0)
(2.9908 0.00364163 0)
(2.97718 0.00889892 0)
(2.94191 0.0226684 0)
(2.84625 0.0593016 0)
(2.57153 0.165848 0)
(1.84965 0.491091 0)
(1.27234 0.802816 0)
(1.15659 0.843863 0)
(1.16103 0.860825 0)
(1.20704 0.856762 0)
(1.26712 0.855671 0)
(1.32748 0.862335 0)
(1.39707 0.867326 0)
(3 1.19186e-08 0)
(3 7.89574e-08 0)
(3 2.62474e-07 0)
(3 7.70644e-07 0)
(2.99999 1.95249e-06 0)
(2.99999 5.07742e-06 0)
(2.99997 1.22685e-05 0)
(2.99993 3.10816e-05 0)
(2.99982 7.44764e-05 0)
(2.99955 0.000187434 0)
(2.99891 0.000449802 0)
(2.99733 0.00112782 0)
(2.99343 0.00273079 0)
(2.98376 0.00684199 0)
(2.9591 0.016949 0)
(2.89319 0.0440745 0)
(2.70748 0.119481 0)
(2.16652 0.351621 0)
(1.45965 0.799373 0)
(1.21635 0.867703 0)
(1.20162 0.882498 0)
(1.23342 0.879117 0)
(1.29261 0.86839 0)
(1.35462 0.866333 0)
(1.4193 0.866484 0)
(3 9.50014e-09 0)
(3 5.61793e-08 0)
(3 2.03708e-07 0)
(3 5.47068e-07 0)
(3 1.50217e-06 0)
(2.99999 3.63313e-06 0)
(2.99998 9.36512e-06 0)
(2.99995 2.23697e-05 0)
(2.99988 5.64575e-05 0)
(2.99969 0.000135777 0)
(2.99926 0.000338088 0)
(2.99817 0.00082426 0)
(2.99556 0.00203004 0)
(2.98902 0.00502115 0)
(2.97288 0.0124346 0)
(2.93083 0.0317827 0)
(2.81674 0.0846135 0)
(2.48521 0.242545 0)
(1.75192 0.663786 0)
(1.32989 0.859209 0)
(1.26054 0.8894 0)
(1.27069 0.89721 0)
(1.31951 0.88527 0)
(1.38055 0.875497 0)
(1.44141 0.870384 0)
(3 6.70019e-09 0)
(3 4.12193e-08 0)
(3 1.4304e-07 0)
(3 4.00894e-07 0)
(3 1.05421e-06 0)
(2.99999 2.62703e-06 0)
(2.99999 6.59462e-06 0)
(2.99996 1.59281e-05 0)
(2.99991 3.99195e-05 0)
(2.99979 9.50424e-05 0)
(2.99949 0.000239156 0)
(2.99874 0.000566936 0)
(2.99693 0.00142823 0)
(2.99243 0.00340954 0)
(2.98136 0.00855605 0)
(2.95299 0.0210815 0)
(2.87712 0.054804 0)
(2.66291 0.149166 0)
(2.06983 0.437214 0)
(1.47721 0.836581 0)
(1.31618 0.899471 0)
(1.30789 0.914833 0)
(1.34289 0.906112 0)
(1.40191 0.887946 0)
(1.46165 0.877107 0)
(3 4.5485e-09 0)
(3 2.99419e-08 0)
(3 9.92191e-08 0)
(3 2.90944e-07 0)
(3 7.3611e-07 0)
(3 1.90234e-06 0)
(2.99999 4.61844e-06 0)
(2.99998 1.15294e-05 0)
(2.99994 2.80203e-05 0)
(2.99986 6.86286e-05 0)
(2.99965 0.000168885 0)
(2.99916 0.000408456 0)
(2.99793 0.00101578 0)
(2.99496 0.00244534 0)
(2.98758 0.00612883 0)
(2.96913 0.0150035 0)
(2.92082 0.0385883 0)
(2.78842 0.102547 0)
(2.40094 0.296575 0)
(1.72728 0.741339 0)
(1.40553 0.895029 0)
(1.35629 0.9224 0)
(1.37014 0.925108 0)
(1.42057 0.906049 0)
(1.48098 0.887567 0)
(3 3.13325e-09 0)
(3 2.0681e-08 0)
(3 6.90776e-08 0)
(3 2.01015e-07 0)
(3 5.10243e-07 0)
(3 1.32281e-06 0)
(2.99999 3.17125e-06 0)
(2.99998 8.06354e-06 0)
(2.99996 1.90732e-05 0)
(2.99991 4.82064e-05 0)
(2.99977 0.000114256 0)
(2.99944 0.00028685 0)
(2.99863 0.000684708 0)
(2.99669 0.00170835 0)
(2.99183 0.00412936 0)
(2.97996 0.0102925 0)
(2.94941 0.0256469 0)
(2.86815 0.067022 0)
(2.63689 0.18568 0)
(2.0424 0.530661 0)
(1.54299 0.867226 0)
(1.41408 0.925111 0)
(1.40567 0.939011 0)
(1.43905 0.927565 0)
(1.49569 0.901828 0)
(3 2.22665e-09 0)
(3 1.38824e-08 0)
(3 4.82283e-08 0)
(3 1.34983e-07 0)
(3 3.55358e-07 0)
(3 8.87125e-07 0)
(3 2.20752e-06 0)
(2.99999 5.40723e-06 0)
(2.99997 1.32108e-05 0)
(2.99994 3.24806e-05 0)
(2.99985 7.85021e-05 0)
(2.99963 0.000193957 0)
(2.99912 0.000466958 0)
(2.99783 0.00115716 0)
(2.99473 0.00279291 0)
(2.98702 0.00692844 0)
(2.96781 0.0170595 0)
(2.91753 0.0435914 0)
(2.77975 0.116243 0)
(2.3811 0.336931 0)
(1.76844 0.775628 0)
(1.494 0.916214 0)
(1.44987 0.943233 0)
(1.46161 0.944875 0)
(1.50826 0.92226 0)
(3 1.49585e-09 0)
(3 9.39591e-09 0)
(3 3.22366e-08 0)
(3 9.12549e-08 0)
(3 2.37986e-07 0)
(3 5.96202e-07 0)
(3 1.48454e-06 0)
(2.99999 3.60561e-06 0)
(2.99998 8.92127e-06 0)
(2.99996 2.14804e-05 0)
(2.9999 5.31998e-05 0)
(2.99977 0.000127682 0)
(2.99943 0.000316238 0)
(2.99863 0.000761034 0)
(2.99663 0.0018823 0)
(2.99183 0.00456145 0)
(2.97984 0.0113197 0)
(2.94949 0.0282112 0)
(2.8688 0.0735616 0)
(2.63923 0.204526 0)
(2.07513 0.566024 0)
(1.62556 0.883427 0)
(1.50756 0.942413 0)
(1.49579 0.955527 0)
(1.52292 0.944102 0)
(3 9.73484e-10 0)
(3 6.22101e-09 0)
(3 2.12188e-08 0)
(3 6.04441e-08 0)
(3 1.56067e-07 0)
(3 3.96347e-07 0)
(3 9.66005e-07 0)
(3 2.40182e-06 0)
(2.99999 5.774e-06 0)
(2.99997 1.43047e-05 0)
(2.99994 3.42681e-05 0)
(2.99985 8.47752e-05 0)
(2.99965 0.000203352 0)
(2.99913 0.000501672 0)
(2.9979 0.00120885 0)
(2.99488 0.00297437 0)
(2.98747 0.00723946 0)
(2.96897 0.0179392 0)
(2.92106 0.0454469 0)
(2.7903 0.120962 0)
(2.41644 0.347238 0)
(1.84779 0.777638 0)
(1.58589 0.926186 0)
(1.53874 0.955375 0)
(1.54523 0.958949 0)
(3 6.50174e-10 0)
(3 4.01047e-09 0)
(3 1.39644e-08 0)
(3 3.8911e-08 0)
(3 1.02555e-07 0)
(3 2.53914e-07 0)
(3 6.36621e-07 0)
(3 1.53109e-06 0)
(2.99999 3.80661e-06 0)
(2.99998 9.08476e-06 0)
(2.99996 2.25354e-05 0)
(2.99991 5.37885e-05 0)
(2.99978 0.000133163 0)
(2.99947 0.000318323 0)
(2.99869 0.000786998 0)
(2.99686 0.00189143 0)
(2.99229 0.00467068 0)
(2.98119 0.0113687 0)
(2.95291 0.0285165 0)
(2.87857 0.0734468 0)
(2.6682 0.20322 0)
(2.15176 0.554373 0)
(1.71859 0.88609 0)
(1.59562 0.952441 0)
(1.57861 0.966914 0)
(3 4.01884e-10 0)
(3 2.58005e-09 0)
(3 8.80709e-09 0)
(3 2.49778e-08 0)
(3 6.46921e-08 0)
(3 1.63505e-07 0)
(3 3.97893e-07 0)
(3 9.91187e-07 0)
(3 2.35878e-06 0)
(2.99999 5.88985e-06 0)
(2.99998 1.39046e-05 0)
(2.99994 3.47868e-05 0)
(2.99987 8.1996e-05 0)
(2.99968 0.000204711 0)
(2.99921 0.000484661 0)
(2.99811 0.00120476 0)
(2.99536 0.00287573 0)
(2.98881 0.00712574 0)
(2.97231 0.017354 0)
(2.93026 0.0440176 0)
(2.817 0.115913 0)
(2.49328 0.329935 0)
(1.95514 0.750306 0)
(1.67988 0.924718 0)
(1.62333 0.960432 0)
(3 2.62224e-10 0)
(3 1.57594e-09 0)
(3 5.6204e-09 0)
(3 1.52638e-08 0)
(3 4.11451e-08 0)
(3 9.99452e-08 0)
(3 2.5299e-07 0)
(3 6.03612e-07 0)
(3 1.49679e-06 0)
(2.99999 3.58309e-06 0)
(2.99999 8.7652e-06 0)
(2.99997 2.12067e-05 0)
(2.99992 5.12119e-05 0)
(2.9998 0.000125341 0)
(2.99953 0.000299063 0)
(2.99885 0.000741231 0)
(2.99723 0.00175335 0)
(2.99324 0.00438102 0)
(2.98351 0.0104756 0)
(2.959 0.0263395 0)
(2.89517 0.0668021 0)
(2.71662 0.182501 0)
(2.26217 0.499067 0)
(1.8223 0.867114 0)
(1.67924 0.950274 0)
(3 1.59421e-10 0)
(3 9.88617e-10 0)
(3 3.41343e-09 0)
(3 9.57934e-09 0)
(3 2.50186e-08 0)
(3 6.2237e-08 0)
(3 1.54978e-07 0)
(3 3.71822e-07 0)
(3 9.24206e-07 0)
(3 2.18351e-06 0)
(2.99999 5.45058e-06 0)
(2.99998 1.28116e-05 0)
(2.99995 3.19433e-05 0)
(2.99988 7.53652e-05 0)
(2.99972 0.000186785 0)
(2.99933 0.000443759 0)
(2.99839 0.00109325 0)
(2.99607 0.00262245 0)
(2.99056 0.00643668 0)
(2.97682 0.0157068 0)
(2.94231 0.039408 0)
(2.85109 0.102749 0)
(2.59151 0.28886 0)
(2.08176 0.691388 0)
(1.77509 0.908811 0)
(3 9.34294e-11 0)
(3 6.11202e-10 0)
(3 2.03856e-09 0)
(3 5.90883e-09 0)
(3 1.49471e-08 0)
(3 3.83087e-08 0)
(3 9.20071e-08 0)
(3 2.29218e-07 0)
(3 5.44938e-07 0)
(3 1.34466e-06 0)
(3 3.19946e-06 0)
(2.99999 7.83216e-06 0)
(2.99997 1.87563e-05 0)
(2.99993 4.55153e-05 0)
(2.99983 0.000109862 0)
(2.99961 0.000263868 0)
(2.99904 0.000643626 0)
(2.99769 0.00153288 0)
(2.9944 0.00376492 0)
(2.98637 0.00902789 0)
(2.9664 0.0223218 0)
(2.915 0.0559667 0)
(2.7743 0.149037 0)
(2.39704 0.409832 0)
(1.94213 0.80877 0)
(3 5.75394e-11 0)
(3 3.64738e-10 0)
(3 1.24918e-09 0)
(3 3.52312e-09 0)
(3 9.14318e-09 0)
(3 2.28675e-08 0)
(3 5.60447e-08 0)
(3 1.37292e-07 0)
(3 3.29901e-07 0)
(3 8.08922e-07 0)
(3 1.92662e-06 0)
(2.99999 4.73459e-06 0)
(2.99998 1.12574e-05 0)
(2.99996 2.76027e-05 0)
(2.99991 6.58437e-05 0)
(2.99977 0.000160852 0)
(2.99945 0.000385158 0)
(2.99867 0.000938294 0)
(2.99681 0.00226156 0)
(2.99224 0.00550369 0)
(2.98115 0.0134334 0)
(2.95321 0.0333193 0)
(2.88049 0.0856665 0)
(2.67525 0.235281 0)
(2.21844 0.60243 0)
(3 3.43511e-11 0)
(3 2.16688e-10 0)
(3 7.39499e-10 0)
(3 2.09349e-09 0)
(3 5.4015e-09 0)
(3 1.35433e-08 0)
(3 3.31938e-08 0)
(3 8.06184e-08 0)
(3 1.96481e-07 0)
(3 4.70339e-07 0)
(3 1.15028e-06 0)
(3 2.73443e-06 0)
(2.99999 6.71119e-06 0)
(2.99998 1.58918e-05 0)
(2.99995 3.90414e-05 0)
(2.99987 9.24979e-05 0)
(2.99969 0.000226821 0)
(2.99926 0.000538417 0)
(2.9982 0.00131935 0)
(2.99567 0.00314627 0)
(2.98952 0.00771905 0)
(2.97446 0.0186878 0)
(2.93629 0.0470063 0)
(2.83482 0.122514 0)
(2.55247 0.341357 0)
(3 2.01491e-11 0)
(3 1.25659e-10 0)
(3 4.36515e-10 0)
(3 1.21304e-09 0)
(3 3.17846e-09 0)
(3 7.87356e-09 0)
(3 1.93576e-08 0)
(3 4.70508e-08 0)
(3 1.13222e-07 0)
(3 2.76178e-07 0)
(3 6.55751e-07 0)
(3 1.60958e-06 0)
(2.99999 3.7939e-06 0)
(2.99999 9.35155e-06 0)
(2.99997 2.19717e-05 0)
(2.99993 5.41297e-05 0)
(2.99982 0.000127474 0)
(2.99958 0.000312661 0)
(2.99898 0.00074045 0)
(2.99757 0.00180705 0)
(2.99407 0.00431906 0)
(2.98575 0.0105429 0)
(2.96485 0.0256982 0)
(2.91156 0.0649739 0)
(2.76513 0.173627 0)
(3 1.18215e-11 0)
(3 7.24382e-11 0)
(3 2.52659e-10 0)
(3 6.99269e-10 0)
(3 1.84e-09 0)
(3 4.5175e-09 0)
(3 1.12708e-08 0)
(3 2.68336e-08 0)
(3 6.62437e-08 0)
(3 1.56394e-07 0)
(3 3.84606e-07 0)
(3 9.09386e-07 0)
(3 2.22422e-06 0)
(2.99999 5.28732e-06 0)
(2.99998 1.28307e-05 0)
(2.99996 3.07642e-05 0)
(2.9999 7.39359e-05 0)
(2.99977 0.000179088 0)
(2.99944 0.000426163 0)
(2.99866 0.0010426 0)
(2.99679 0.00246962 0)
(2.99223 0.00608055 0)
(2.98123 0.0145748 0)
(2.95367 0.0363783 0)
(2.88234 0.0926508 0)
(3 6.49507e-12 0)
(3 4.20465e-11 0)
(3 1.40783e-10 0)
(3 4.05598e-10 0)
(3 1.02802e-09 0)
(3 2.61036e-09 0)
(3 6.28109e-09 0)
(3 1.54525e-08 0)
(3 3.68973e-08 0)
(3 8.95207e-08 0)
(3 2.14644e-07 0)
(3 5.15474e-07 0)
(3 1.24626e-06 0)
(3 2.96317e-06 0)
(2.99999 7.21346e-06 0)
(2.99998 1.70442e-05 0)
(2.99995 4.16953e-05 0)
(2.99987 9.81349e-05 0)
(2.9997 0.000240203 0)
(2.99928 0.000566313 0)
(2.99827 0.00138345 0)
(2.99583 0.00327783 0)
(2.99 0.00801337 0)
(2.97566 0.0192768 0)
(2.93981 0.0481929 0)
(3 3.7449e-12 0)
(3 2.3163e-11 0)
(3 8.05892e-11 0)
(3 2.2329e-10 0)
(3 5.85409e-10 0)
(3 1.44341e-09 0)
(3 3.54872e-09 0)
(3 8.56914e-09 0)
(3 2.06297e-08 0)
(3 4.99007e-08 0)
(3 1.18657e-07 0)
(3 2.88335e-07 0)
(3 6.81676e-07 0)
(3 1.66114e-06 0)
(2.99999 3.91503e-06 0)
(2.99999 9.53836e-06 0)
(2.99997 2.25161e-05 0)
(2.99993 5.4683e-05 0)
(2.99983 0.000129438 0)
(2.99961 0.000312845 0)
(2.99905 0.000745322 0)
(2.99775 0.0017913 0)
(2.99453 0.00430155 0)
(2.98693 0.0103702 0)
(2.96794 0.0252513 0)
(3 2.06486e-12 0)
(3 1.29946e-11 0)
(3 4.43773e-11 0)
(3 1.25151e-10 0)
(3 3.23326e-10 0)
(3 8.02574e-10 0)
(3 1.97349e-09 0)
(3 4.72591e-09 0)
(3 1.15304e-08 0)
(3 2.73185e-08 0)
(3 6.6548e-08 0)
(3 1.57209e-07 0)
(3 3.82317e-07 0)
(3 9.04934e-07 0)
(3 2.19215e-06 0)
(2.99999 5.20917e-06 0)
(2.99998 1.25521e-05 0)
(2.99996 3.00067e-05 0)
(2.99991 7.18018e-05 0)
(2.99979 0.000173009 0)
(2.9995 0.000410877 0)
(2.99879 0.00099772 0)
(2.99715 0.00236278 0)
(2.99307 0.00576931 0)
(2.98341 0.0138193 0)
(3 1.10132e-12 0)
(3 7.14387e-12 0)
(3 2.41361e-11 0)
(3 6.88849e-11 0)
(3 1.75404e-10 0)
(3 4.43342e-10 0)
(3 1.06446e-09 0)
(3 2.61684e-09 0)
(3 6.19988e-09 0)
(3 1.50858e-08 0)
(3 3.57841e-08 0)
(3 8.64347e-08 0)
(3 2.05892e-07 0)
(3 4.94024e-07 0)
(3 1.18426e-06 0)
(3 2.82125e-06 0)
(2.99999 6.80231e-06 0)
(2.99998 1.60994e-05 0)
(2.99995 3.90742e-05 0)
(2.99989 9.1944e-05 0)
(2.99974 0.000223852 0)
(2.99938 0.000526393 0)
(2.99851 0.00128167 0)
(2.99647 0.00302677 0)
(2.9915 0.00736756 0)
(3 6.05882e-13 0)
(3 3.82375e-12 0)
(3 1.33023e-11 0)
(3 3.66612e-11 0)
(3 9.62234e-11 0)
(3 2.35581e-10 0)
(3 5.82431e-10 0)
(3 1.38994e-09 0)
(3 3.3773e-09 0)
(3 8.01882e-09 0)
(3 1.93598e-08 0)
(3 4.60563e-08 0)
(3 1.10402e-07 0)
(3 2.63698e-07 0)
(3 6.29053e-07 0)
(3 1.50939e-06 0)
(3 3.5758e-06 0)
(2.99999 8.62149e-06 0)
(2.99998 2.03389e-05 0)
(2.99994 4.91671e-05 0)
(2.99986 0.000115613 0)
(2.99967 0.000279518 0)
(2.99923 0.000658302 0)
(2.99814 0.00158739 0)
(2.99561 0.00375385 0)
(3 3.28142e-13 0)
(3 2.08239e-12 0)
(3 7.0312e-12 0)
(3 1.98105e-11 0)
(3 5.10595e-11 0)
(3 1.26992e-10 0)
(3 3.0835e-10 0)
(3 7.49668e-10 0)
(3 1.77949e-09 0)
(3 4.32956e-09 0)
(3 1.01665e-08 0)
(3 2.47953e-08 0)
(3 5.79517e-08 0)
(3 1.41374e-07 0)
(3 3.30736e-07 0)
(3 8.0325e-07 0)
(3 1.88647e-06 0)
(2.99999 4.55735e-06 0)
(2.99999 1.07704e-05 0)
(2.99997 2.57915e-05 0)
(2.99993 6.14684e-05 0)
(2.99983 0.000145938 0)
(2.9996 0.000350766 0)
(2.99905 0.000825889 0)
(2.99773 0.00200213 0)
(3 1.82721e-13 0)
(3 1.0772e-12 0)
(3 3.69348e-12 0)
(3 1.02842e-11 0)
(3 2.72362e-11 0)
(3 6.62276e-11 0)
(3 1.64714e-10 0)
(3 3.90156e-10 0)
(3 9.50293e-10 0)
(3 2.24899e-09 0)
(3 5.41279e-09 0)
(3 1.28841e-08 0)
(3 3.0722e-08 0)
(3 7.37234e-08 0)
(3 1.73878e-07 0)
(3 4.2121e-07 0)
(3 9.85875e-07 0)
(3 2.39881e-06 0)
(2.99999 5.5998e-06 0)
(2.99998 1.3609e-05 0)
(2.99996 3.18877e-05 0)
(2.99991 7.70589e-05 0)
(2.99979 0.000181676 0)
(2.99952 0.000435835 0)
(2.99884 0.00103718 0)
(3 8.17962e-14 0)
(3 5.30979e-13 0)
(3 1.95193e-12 0)
(3 5.38683e-12 0)
(3 1.41503e-11 0)
(3 3.47318e-11 0)
(3 8.5319e-11 0)
(3 2.03258e-10 0)
(3 4.94349e-10 0)
(3 1.16245e-09 0)
(3 2.82883e-09 0)
(3 6.61302e-09 0)
(3 1.61015e-08 0)
(3 3.76534e-08 0)
(3 9.12837e-08 0)
(3 2.14503e-07 0)
(3 5.16598e-07 0)
(3 1.22317e-06 0)
(3 2.91798e-06 0)
(2.99999 6.9655e-06 0)
(2.99998 1.64783e-05 0)
(2.99996 3.96615e-05 0)
(2.9999 9.29926e-05 0)
(2.99976 0.000225364 0)
(2.99943 0.000525957 0)
(3 3.21433e-14 0)
(3 2.87153e-13 0)
(3 1.03117e-12 0)
(3 2.78392e-12 0)
(3 7.21107e-12 0)
(3 1.80729e-11 0)
(3 4.31693e-11 0)
(3 1.05808e-10 0)
(3 2.49757e-10 0)
(3 6.03139e-10 0)
(3 1.42879e-09 0)
(3 3.41366e-09 0)
(3 8.14363e-09 0)
(3 1.92725e-08 0)
(3 4.63823e-08 0)
(3 1.08729e-07 0)
(3 2.63305e-07 0)
(3 6.14142e-07 0)
(3 1.49068e-06 0)
(3 3.47381e-06 0)
(2.99999 8.40608e-06 0)
(2.99998 1.96618e-05 0)
(2.99995 4.72957e-05 0)
(2.99988 0.000111326 0)
(2.99972 0.000265378 0)
(3 2.1077e-14 0)
(3 1.49814e-13 0)
(3 4.40528e-13 0)
(3 1.36222e-12 0)
(3 3.45906e-12 0)
(3 8.82889e-12 0)
(3 2.143e-11 0)
(3 5.22516e-11 0)
(3 1.23971e-10 0)
(3 3.00178e-10 0)
(3 7.03593e-10 0)
(3 1.70622e-09 0)
(3 3.97966e-09 0)
(3 9.64547e-09 0)
(3 2.25025e-08 0)
(3 5.43827e-08 0)
(3 1.27204e-07 0)
(3 3.05587e-07 0)
(3 7.19318e-07 0)
(3 1.71345e-06 0)
(3 4.06145e-06 0)
(2.99999 9.58429e-06 0)
(2.99997 2.29063e-05 0)
(2.99994 5.35656e-05 0)
(2.99986 0.000128714 0)
(3 2.17113e-14 0)
(3 6.34389e-14 0)
(3 2.56796e-13 0)
(3 7.02464e-13 0)
(3 1.68699e-12 0)
(3 4.13139e-12 0)
(3 1.00741e-11 0)
(3 2.35196e-11 0)
(3 5.73781e-11 0)
(3 1.34385e-10 0)
(3 3.23529e-10 0)
(3 7.63452e-10 0)
(3 1.81429e-09 0)
(3 4.3301e-09 0)
(3 1.01514e-08 0)
(3 2.44723e-08 0)
(3 5.68283e-08 0)
(3 1.37788e-07 0)
(3 3.18151e-07 0)
(3 7.71188e-07 0)
(3 1.78503e-06 0)
(2.99999 4.29691e-06 0)
(2.99999 1.00043e-05 0)
(2.99997 2.38623e-05 0)
(2.99992 5.60203e-05 0)
(3 1.11107e-14 0)
(3 2.94036e-14 0)
(3 1.37169e-13 0)
(3 2.86364e-13 0)
(3 6.05019e-13 0)
(3 1.38683e-12 0)
(3 3.03642e-12 0)
(3 6.93773e-12 0)
(3 1.654e-11 0)
(3 3.81559e-11 0)
(3 9.26946e-11 0)
(3 2.1379e-10 0)
(3 5.20556e-10 0)
(3 1.19923e-09 0)
(3 2.91552e-09 0)
(3 6.72689e-09 0)
(3 1.62147e-08 0)
(3 3.77408e-08 0)
(3 8.97604e-08 0)
(3 2.1046e-07 0)
(3 4.97232e-07 0)
(3 1.16972e-06 0)
(2.99999 2.7391e-06 0)
(2.99998 6.47984e-06 0)
(2.99995 1.50747e-05 0)
(1.28588 1.10402 0)
(1.70297 0.900087 0)
(1.8885 0.630598 0)
(1.91504 0.361543 0)
(1.86407 0.136688 0)
(1.76791 -0.0112761 0)
(1.67113 -0.0468768 0)
(1.62489 -0.0155779 0)
(1.61901 0.0248954 0)
(1.62333 0.0452923 0)
(1.62934 0.0437812 0)
(1.63259 0.0326615 0)
(1.63248 0.0220998 0)
(1.63197 0.0136755 0)
(1.6308 0.010098 0)
(1.63089 0.0105604 0)
(1.63308 0.0118173 0)
(1.63606 0.0128691 0)
(1.63955 0.0133897 0)
(1.644 0.0131212 0)
(1.64906 0.0116529 0)
(1.65419 0.00964894 0)
(1.65957 0.00808715 0)
(1.66535 0.00719449 0)
(1.67154 0.00670039 0)
(1.67808 0.00633447 0)
(1.68491 0.00595396 0)
(1.69197 0.00553203 0)
(1.69924 0.00509595 0)
(1.70669 0.00468278 0)
(1.71432 0.00431452 0)
(1.72208 0.00399775 0)
(1.72997 0.00372851 0)
(1.73793 0.00349789 0)
(1.74592 0.00329959 0)
(1.75381 0.00313719 0)
(1.76145 0.00301742 0)
(1.76769 0.00298323 0)
(1.77243 0.00291501 0)
(1.77601 0.00284355 0)
(1.77642 0.00291492 0)
(1.76936 0.00344444 0)
(1.74527 0.00520493 0)
(1.6824 0.00995615 0)
(1.52993 0.0214776 0)
(1.17176 0.049223 0)
(0.564368 0.120875 0)
(0.134106 0.141174 0)
(0.0670668 0.00121771 0)
(0.217681 -0.109702 0)
(0.365383 -0.126057 0)
(0.472995 -0.110524 0)
(0.572764 -0.0882529 0)
(0.66429 -0.0713522 0)
(0.743527 -0.0568141 0)
(0.813878 -0.0451713 0)
(0.882414 -0.0378974 0)
(0.949608 -0.0348312 0)
(1.01073 -0.0317455 0)
(1.06541 -0.0289627 0)
(1.11525 -0.0263694 0)
(1.16177 -0.0238863 0)
(1.20579 -0.0216047 0)
(1.24768 -0.0195794 0)
(1.28773 -0.0178391 0)
(1.32614 -0.0163466 0)
(1.36308 -0.0150517 0)
(1.3987 -0.0138986 0)
(1.43314 -0.0128391 0)
(1.4665 -0.0118499 0)
(1.49891 -0.0109108 0)
(1.53043 -0.0100243 0)
(1.56116 -0.00917515 0)
(1.59113 -0.00836823 0)
(1.62038 -0.007596 0)
(1.64892 -0.00686256 0)
(1.67679 -0.00617165 0)
(1.70399 -0.0055185 0)
(1.73058 -0.00489935 0)
(1.75654 -0.00429457 0)
(1.78193 -0.00375768 0)
(1.80678 -0.00329237 0)
(1.83114 -0.00288664 0)
(1.85503 -0.00254109 0)
(1.8785 -0.00225358 0)
(1.90153 -0.00205723 0)
(1.92417 -0.00187862 0)
(1.94647 -0.00166915 0)
(1.96849 -0.00143295 0)
(1.99023 -0.00119896 0)
(2.0117 -0.000976992 0)
(2.03288 -0.000773452 0)
(2.05377 -0.00057877 0)
(2.07436 -0.000389949 0)
(2.09462 -0.000195765 0)
(2.11445 1.64104e-05 0)
(2.13362 0.000262377 0)
(2.15143 0.000636056 0)
(2.16668 0.00106128 0)
(2.17825 0.00210213 0)
(1.3761 1.00942 0)
(1.69518 0.721582 0)
(1.87126 0.402366 0)
(1.95637 0.129492 0)
(2.00727 -0.0656368 0)
(2.0382 -0.167429 0)
(2.04828 -0.172416 0)
(2.04766 -0.130787 0)
(2.03516 -0.0821639 0)
(2.0147 -0.0433124 0)
(1.99929 -0.0214779 0)
(1.99562 -0.0152456 0)
(1.99716 -0.0171084 0)
(2.00015 -0.0216139 0)
(2.00354 -0.0242788 0)
(2.00571 -0.0246005 0)
(2.0071 -0.023407 0)
(2.00843 -0.0214324 0)
(2.00986 -0.019383 0)
(2.01155 -0.0177622 0)
(2.01361 -0.0169633 0)
(2.01643 -0.0166701 0)
(2.01996 -0.0165156 0)
(2.02367 -0.0163189 0)
(2.02734 -0.0160601 0)
(2.03101 -0.0157562 0)
(2.03476 -0.0154253 0)
(2.03865 -0.015073 0)
(2.04273 -0.0147049 0)
(2.04699 -0.0143275 0)