/*--------------------------------*- C++ -*----------------------------------*\
  =========                 |
  \\      /  F ield         | OpenFOAM: The Open Source CFD Toolbox
   \\    /   O peration     | Website:  https://openfoam.org
    \\  /    A nd           | Version:  13
     \\/     M anipulation  |
\*---------------------------------------------------------------------------*/
FoamFile
{
    format      ascii;
    class       volScalarField;
    location    "0.665";
    object      T;
}
// * * * * * * * * * * * * * * * * * * * * * * * * * * * * * * * * * * * * * //

dimensions      [0 0 0 1 0 0 0];

internalField   nonuniform List<scalar> 
1000
(
1.52062e-230
8.74819e-230
5.74301e-229
3.77507e-228
2.47669e-227
1.62162e-226
1.05962e-225
6.91e-225
4.49705e-224
2.92077e-223
1.89315e-222
1.22459e-221
7.90514e-221
5.09262e-220
3.27404e-219
2.10056e-218
1.34491e-217
8.5932e-217
5.47923e-216
3.48646e-215
2.21386e-214
1.40285e-213
8.87084e-213
5.59774e-212
3.52493e-211
2.21501e-210
1.38896e-209
8.69131e-209
5.42705e-208
3.3816e-207
2.10261e-206
1.30458e-205
8.07709e-205
4.99013e-204
3.07637e-203
1.89248e-202
1.16169e-201
7.11558e-201
4.34902e-200
2.65235e-199
1.61409e-198
9.80115e-198
5.93853e-197
3.59029e-196
2.16585e-195
1.30368e-194
7.82994e-194
4.69229e-193
2.80576e-192
1.67398e-191
9.96519e-191
5.91904e-190
3.50789e-189
2.07428e-188
1.22381e-187
7.20413e-187
4.23125e-186
2.47955e-185
1.44975e-184
8.45717e-184
4.92229e-183
2.85836e-182
1.65605e-181
9.57261e-181
5.52063e-180
3.17647e-179
1.82346e-178
1.04434e-177
5.96728e-177
3.40173e-176
1.93468e-175
1.09774e-174
6.21402e-174
3.50932e-173
1.97719e-172
1.11134e-171
6.23183e-171
3.48619e-170
1.9456e-169
1.08322e-168
6.01645e-168
3.33366e-167
1.84271e-166
1.01612e-165
5.58959e-165
3.06734e-164
1.67915e-163
9.16974e-163
4.99532e-162
2.7146e-161
1.47157e-160
7.95766e-160
4.29258e-159
2.3098e-158
1.23981e-157
6.63823e-157
3.54541e-156
1.88884e-155
1.00377e-154
5.32082e-154
2.81339e-153
1.48382e-152
7.8061e-152
4.09621e-151
2.14399e-150
1.11932e-149
5.82871e-149
3.02744e-148
1.56841e-147
8.10443e-147
4.17696e-146
2.14719e-145
1.10091e-144
5.62984e-144
2.87148e-143
1.46075e-142
7.41141e-142
3.75043e-141
1.89283e-140
9.52773e-140
4.78313e-139
2.39484e-138
1.19585e-137
5.95546e-137
2.95791e-136
1.46515e-135
7.23775e-135
3.56573e-134
1.75191e-133
8.58399e-133
4.19449e-132
2.04399e-131
9.93305e-131
4.81381e-130
2.32645e-129
1.12123e-128
5.38872e-128
2.58265e-127
1.23433e-126
5.88272e-126
2.79578e-125
1.32496e-124
6.26141e-124
2.9506e-123
1.38647e-122
6.49641e-122
3.03523e-121
1.41405e-120
6.56878e-120
3.04265e-119
1.40527e-118
6.47156e-118
2.97161e-117
1.36052e-116
6.21079e-116
2.82691e-115
1.28291e-114
5.80493e-114
2.61885e-113
1.17796e-112
5.28272e-112
2.36202e-111
1.05295e-110
4.67977e-110
2.07362e-109
9.16052e-109
4.03452e-108
1.7715e-107
7.75465e-107
3.38417e-106
1.47234e-105
6.38594e-105
2.7612e-104
1.19021e-103
5.11445e-103
2.19088e-102
9.35572e-102
3.98265e-101
1.69005e-100
7.14915e-100
3.01462e-99
1.26715e-98
5.30934e-98
2.21749e-97
9.23187e-97
3.83106e-96
1.58469e-95
6.53378e-95
2.68517e-94
1.09993e-93
4.4909e-93
1.82759e-92
7.41301e-92
2.99692e-91
1.20759e-90
4.84972e-90
1.94118e-89
7.74398e-89
3.07896e-88
1.22006e-87
4.81828e-87
1.8964e-86
7.43862e-86
2.90786e-85
1.13284e-84
4.39815e-84
1.70168e-83
6.56119e-83
2.52105e-82
9.65319e-82
3.68336e-81
1.40054e-80
5.30666e-80
2.00362e-79
7.5383e-79
2.82611e-78
1.05575e-77
3.92986e-77
1.4576e-76
5.38688e-76
1.98366e-75
7.27823e-75
2.66076e-74
9.69172e-74
3.51729e-73
1.2718e-72
4.58175e-72
1.64452e-71
5.88077e-71
2.09514e-70
7.43652e-70
2.62965e-69
9.2639e-69
3.25125e-68
1.13674e-67
3.95933e-67
1.37381e-66
4.74863e-66
1.63509e-65
5.60845e-65
1.9163e-64
6.52226e-64
2.21127e-63
7.46769e-63
2.51205e-62
8.41704e-62
2.80915e-61
9.33832e-61
3.09196e-60
1.01968e-59
3.34932e-59
1.09572e-58
3.57018e-58
1.15857e-57
3.74443e-57
1.20525e-56
3.86361e-56
1.23345e-55
3.92156e-55
1.24165e-54
3.915e-54
1.22929e-53
3.84378e-53
1.19685e-52
3.71096e-52
1.14577e-51
3.52259e-51
1.07839e-50
3.28722e-50
9.97742e-50
3.01533e-49
9.07343e-49
2.71845e-48
8.10921e-48
2.40843e-47
7.12169e-47
2.09661e-46
6.14509e-46
1.79313e-45
5.20902e-45
1.50646e-44
4.3372e-44
1.24309e-43
3.54672e-43
1.00735e-42
2.84808e-42
8.0156e-42
2.24555e-41
6.26192e-41
1.73812e-40
4.80214e-40
1.32057e-39
3.61457e-39
9.84709e-39
2.66999e-38
7.20533e-38
1.93523e-37
5.17294e-37
1.37613e-36
3.6433e-36
9.59914e-36
2.51689e-35
6.56722e-35
1.70521e-34
4.406e-34
1.13285e-33
2.89838e-33
7.37874e-33
1.86916e-32
4.7113e-32
1.18156e-31
2.94837e-31
7.32001e-31
1.80816e-30
4.44374e-30
1.08652e-29
2.64301e-29
6.39617e-29
1.5399e-28
3.68817e-28
8.78746e-28
2.08277e-27
4.91065e-27
1.15171e-26
2.6869e-26
6.23518e-26
1.43923e-25
3.30433e-25
7.54574e-25
1.71387e-24
3.87168e-24
8.69881e-24
1.94379e-23
4.31976e-23
9.5473e-23
2.09848e-22
4.58692e-22
9.97063e-22
2.15526e-21
4.63278e-21
9.90243e-21
2.1047e-20
4.44812e-20
9.34745e-20
1.95313e-19
4.0577e-19
8.3817e-19
1.72138e-18
3.51486e-18
7.13531e-18
1.44007e-17
2.88944e-17
5.76355e-17
1.1429e-16
2.25296e-16
4.41489e-16
8.60002e-16
1.66526e-15
3.20522e-15
6.13225e-15
1.16616e-14
2.20426e-14
4.14121e-14
7.73286e-14
1.43514e-13
2.64717e-13
4.8528e-13
8.84133e-13
1.60085e-12
2.88057e-12
5.15108e-12
9.15373e-12
1.61648e-11
2.83666e-11
4.94653e-11
8.57121e-11
1.47579e-10
2.52486e-10
4.29215e-10
7.24986e-10
1.21673e-09
2.02889e-09
3.36137e-09
5.53301e-09
9.04871e-09
1.47023e-08
2.37327e-08
3.80601e-08
6.06378e-08
9.59762e-08
1.50912e-07
2.35731e-07
3.65794e-07
5.63871e-07
8.63452e-07
1.31343e-06
1.98465e-06
2.97894e-06
4.44155e-06
6.5781e-06
9.67731e-06
1.41414e-05
2.05264e-05
2.95943e-05
4.23818e-05
6.0287e-05
8.51799e-05
0.000119542
0.000166636
0.000230719
0.000317294
0.000433418
0.000588055
0.000792491
0.00106081
0.00141043
0.00186268
0.00244343
0.00318376
0.00412063
0.00529755
0.00676522
0.00858202
0.0108145
0.0135375
0.0168345
0.0207969
0.0255237
0.0311208
0.0376992
0.0453736
0.0542601
0.0644736
0.0761248
0.0893169
0.104142
0.120679
0.138986
0.159102
0.18104
0.204785
0.230294
0.257492
0.286274
0.316503
0.348012
0.38061
0.414081
0.44819
0.482686
0.517314
0.55181
0.585919
0.61939
0.651988
0.683497
0.713726
0.742508
0.769706
0.795215
0.81896
0.840898
0.861014
0.879321
0.895858
0.910683
0.923875
0.935526
0.94574
0.954626
0.962301
0.968879
0.974476
0.979203
0.983165
0.986462
0.989186
0.991418
0.993235
0.994702
0.995879
0.996816
0.997557
0.998137
0.99859
0.998939
0.999207
0.999412
0.999567
0.999683
0.999769
0.999833
0.99988
0.999914
0.999939
0.999956
0.999968
0.999976
0.999981
0.999984
0.999984
0.999981
0.999976
0.999968
0.999956
0.999939
0.999914
0.99988
0.999833
0.999769
0.999683
0.999567
0.999412
0.999207
0.998939
0.99859
0.998137
0.997557
0.996816
0.995879
0.994702
0.993235
0.991418
0.989186
0.986462
0.983165
0.979203
0.974476
0.968879
0.962301
0.954626
0.94574
0.935526
0.923875
0.910683
0.895858
0.879321
0.861014
0.840898
0.81896
0.795215
0.769706
0.742508
0.713726
0.683497
0.651988
0.61939
0.585919
0.55181
0.517314
0.482686
0.44819
0.414081
0.38061
0.348012
0.316503
0.286274
0.257492
0.230294
0.204785
0.18104
0.159102
0.138986
0.120679
0.104142
0.0893169
0.0761248
0.0644736
0.0542601
0.0453736
0.0376992
0.0311208
0.0255237
0.0207969
0.0168345
0.0135375
0.0108145
0.00858202
0.00676522
0.00529755
0.00412063
0.00318376
0.00244343
0.00186268
0.00141043
0.00106081
0.000792491
0.000588055
0.000433418
0.000317294
0.000230719
0.000166636
0.000119542
8.51799e-05
6.0287e-05
4.23818e-05
2.95943e-05
2.05264e-05
1.41414e-05
9.67731e-06
6.5781e-06
4.44155e-06
2.97894e-06
1.98465e-06
1.31343e-06
8.63452e-07
5.63871e-07
3.65794e-07
2.35731e-07
1.50912e-07
9.59762e-08
6.06378e-08
3.80601e-08
2.37327e-08
1.47023e-08
9.04871e-09
5.53301e-09
3.36137e-09
2.02889e-09
1.21673e-09
7.24986e-10
4.29215e-10
2.52486e-10
1.47579e-10
8.57121e-11
4.94653e-11
2.83666e-11
1.61648e-11
9.15373e-12
5.15108e-12
2.88057e-12
1.60085e-12
8.84133e-13
4.8528e-13
2.64717e-13
1.43514e-13
7.73286e-14
4.14121e-14
2.20426e-14
1.16616e-14
6.13225e-15
3.20522e-15
1.66526e-15
8.60002e-16
4.41489e-16
2.25296e-16
1.1429e-16
5.76355e-17
2.88944e-17
1.44007e-17
7.13531e-18
3.51486e-18
1.72138e-18
8.3817e-19
4.0577e-19
1.95313e-19
9.34745e-20
4.44812e-20
2.1047e-20
9.90243e-21
4.63278e-21
2.15526e-21
9.97063e-22
4.58692e-22
2.09848e-22
9.5473e-23
4.31976e-23
1.94379e-23
8.69881e-24
3.87168e-24
1.71387e-24
7.54574e-25
3.30433e-25
1.43923e-25
6.23518e-26
2.6869e-26
1.15171e-26
4.91065e-27
2.08277e-27
8.78746e-28
3.68817e-28
1.5399e-28
6.39617e-29
2.64301e-29
1.08652e-29
4.44374e-30
1.80816e-30
7.32001e-31
2.94837e-31
1.18156e-31
4.7113e-32
1.86916e-32
7.37874e-33
2.89838e-33
1.13285e-33
4.406e-34
1.70521e-34
6.56722e-35
2.51689e-35
9.59914e-36
3.6433e-36
1.37613e-36
5.17294e-37
1.93523e-37
7.20533e-38
2.66999e-38
9.84709e-39
3.61457e-39
1.32057e-39
4.80214e-40
1.73812e-40
6.26192e-41
2.24555e-41
8.0156e-42
2.84808e-42
1.00735e-42
3.54672e-43
1.24309e-43
4.3372e-44
1.50646e-44
5.20902e-45
1.79313e-45
6.14509e-46
2.09661e-46
7.12169e-47
2.40843e-47
8.10921e-48
2.71845e-48
9.07343e-49
3.01533e-49
9.97742e-50
3.28722e-50
1.07839e-50
3.52259e-51
1.14577e-51
3.71096e-52
1.19685e-52
3.84378e-53
1.22929e-53
3.915e-54
1.24165e-54
3.92156e-55
1.23345e-55
3.86361e-56
1.20525e-56
3.74443e-57
1.15857e-57
3.57018e-58
1.09572e-58
3.34932e-59
1.01968e-59
3.09196e-60
9.33832e-61
2.80915e-61
8.41704e-62
2.51205e-62
7.46769e-63
2.21127e-63
6.52226e-64
1.9163e-64
5.60845e-65
1.63509e-65
4.74863e-66
1.37381e-66
3.95933e-67
1.13674e-67
3.25125e-68
9.2639e-69
2.62965e-69
7.43652e-70
2.09514e-70
5.88077e-71
1.64452e-71
4.58175e-72
1.2718e-72
3.51729e-73
9.69172e-74
2.66076e-74
7.27823e-75
1.98366e-75
5.38688e-76
1.4576e-76
3.92986e-77
1.05575e-77
2.82611e-78
7.5383e-79
2.00362e-79
5.30666e-80
1.40054e-80
3.68336e-81
9.65319e-82
2.52105e-82
6.56119e-83
1.70168e-83
4.39815e-84
1.13284e-84
2.90786e-85
7.43862e-86
1.8964e-86
4.81828e-87
1.22006e-87
3.07896e-88
7.74398e-89
1.94118e-89
4.84972e-90
1.20759e-90
2.99692e-91
7.41301e-92
1.82759e-92
4.4909e-93
1.09993e-93
2.68517e-94
6.53378e-95
1.58469e-95
3.83106e-96
9.23187e-97
2.21749e-97
5.30934e-98
1.26715e-98
3.01462e-99
7.14915e-100
1.69005e-100
3.98265e-101
9.35572e-102
2.19088e-102
5.11445e-103
1.19021e-103
2.7612e-104
6.38594e-105
1.47234e-105
3.38417e-106
7.75465e-107
1.7715e-107
4.03452e-108
9.16052e-109
2.07362e-109
4.67977e-110
1.05295e-110
2.36202e-111
5.28272e-112
1.17796e-112
2.61885e-113
5.80493e-114
1.28291e-114
2.82691e-115
6.21079e-116
1.36052e-116
2.97161e-117
6.47156e-118
1.40527e-118
3.04265e-119
6.56878e-120
1.41405e-120
3.03523e-121
6.49641e-122
1.38647e-122
2.9506e-123
6.26141e-124
1.32496e-124
2.79578e-125
5.88272e-126
1.23433e-126
2.58265e-127
5.38872e-128
1.12123e-128
2.32645e-129
4.81381e-130
9.93305e-131
2.04399e-131
4.19449e-132
8.58399e-133
1.75191e-133
3.56573e-134
7.23775e-135
1.46515e-135
2.95791e-136
5.95546e-137
1.19585e-137
2.39484e-138
4.78313e-139
9.52773e-140
1.89283e-140
3.75043e-141
7.41141e-142
1.46075e-142
2.87148e-143
5.62984e-144
1.10091e-144
2.14719e-145
4.17696e-146
8.10443e-147
1.56841e-147
3.02744e-148
5.82871e-149
1.11932e-149
2.14399e-150
4.09621e-151
7.8061e-152
1.48382e-152
2.81339e-153
5.32082e-154
1.00377e-154
1.88884e-155
3.54541e-156
6.63823e-157
1.23981e-157
2.3098e-158
4.29258e-159
7.95766e-160
1.47157e-160
2.7146e-161
4.99532e-162
9.16974e-163
1.67915e-163
3.06734e-164
5.58959e-165
1.01612e-165
1.84271e-166
3.33366e-167
6.01645e-168
1.08322e-168
1.9456e-169
3.48619e-170
6.23183e-171
1.11134e-171
1.97719e-172
3.50932e-173
6.21402e-174
1.09774e-174
1.93468e-175
3.40173e-176
5.96728e-177
1.04434e-177
1.82346e-178
3.17647e-179
5.52063e-180
9.57261e-181
1.65605e-181
2.85836e-182
4.92229e-183
8.45717e-184
1.44975e-184
2.47955e-185
4.23125e-186
7.20413e-187
1.22381e-187
2.07428e-188
3.50789e-189
5.91904e-190
9.96519e-191
1.67398e-191
2.80576e-192
4.69229e-193
7.82994e-194
1.30368e-194
2.16585e-195
3.59029e-196
5.93853e-197
9.80115e-198
1.61409e-198
2.65235e-199
4.34902e-200
7.11558e-201
1.16169e-201
1.89248e-202
3.07637e-203
4.99013e-204
8.07709e-205
1.30458e-205
2.10261e-206
3.3816e-207
5.42705e-208
8.69131e-209
1.38896e-209
2.21501e-210
3.52493e-211
5.59774e-212
8.87084e-213
1.40285e-213
2.21386e-214
3.48646e-215
5.47923e-216
8.5932e-217
1.34491e-217
2.10056e-218
3.27404e-219
5.09262e-220
7.90514e-221
1.22459e-221
1.89315e-222
2.92077e-223
4.49705e-224
6.91e-225
1.05962e-225
1.62162e-226
2.47669e-227
3.77507e-228
5.74301e-229
8.74819e-230
1.52062e-230
)
;

boundaryField
{
    sides
    {
        type            zeroGradient;
    }
    empty
    {
        type            empty;
    }
}


// ************************************************************************* //
