/*--------------------------------*- C++ -*----------------------------------*\
  =========                 |
  \\      /  F ield         | OpenFOAM: The Open Source CFD Toolbox
   \\    /   O peration     | Website:  https://openfoam.org
    \\  /    A nd           | Version:  13
     \\/     M anipulation  |
\*---------------------------------------------------------------------------*/
FoamFile
{
    format      ascii;
    class       volScalarField;
    location    "57";
    object      p;
}
// * * * * * * * * * * * * * * * * * * * * * * * * * * * * * * * * * * * * * //

dimensions      [0 2 -2 0 0 0 0];

internalField   nonuniform List<scalar> 
918
(
0.556129
1.18684
0.000633632
0.555553
-0.0091411
1.15384
-0.508292
0.679558
0.536318
-0.109305
-0.0435045
0.535663
1.01447
0.779673
-1.12569
-0.00963784
0.651518
-0.384408
0.53541
-0.0538504
0.704733
0.542867
0.545893
0.536473
0.600865
0.755528
0.895285
0.0215876
0.0112771
0.00499071
-0.0148995
-0.0367505
-0.0311858
1.03751
1.08857
1.11126
0.504185
0.331396
-0.373881
-0.444911
-0.4358
-0.546575
0.674909
0.672948
-0.204719
0.682636
0.685984
0.523377
0.535685
0.536593
0.537627
0.536604
0.537988
0.404032
-0.112206
-0.144305
-0.0895827
-0.0807925
0.0554791
-0.0440264
-0.0466444
-0.0418351
-0.0416537
0.453561
0.529986
0.526917
0.540947
0.55156
1.12639
1.09833
1.12446
1.03806
1.05458
0.992486
0.965078
0.80106
0.822661
0.763854
0.751769
-1.55863
-2.51227
-0.534724
-0.283706
-0.0152927
-0.00720389
-0.00157386
0.647892
0.648532
0.651236
0.655007
1.07971
-0.381582
-0.481481
0.535549
0.534355
0.54269
0.54339
0.539408
0.538499
-0.0437645
-0.039612
-0.0467366
-0.0496574
-0.049358
0.693757
0.693855
0.537004
0.534011
0.558632
0.579488
0.571079
0.278466
0.608701
0.62354
0.585599
0.748508
0.741714
0.751
0.868898
0.83175
0.932516
0.955831
0.017491
-0.000810155
-0.0147229
-0.0187773
-0.0172124
0.500033
0.492604
0.519811
0.507606
0.510101
0.24776
0.113891
0.41666
0.441748
-0.291598
-0.355846
-0.431385
-0.460357
-0.568039
0.610538
0.668034
0.665007
-0.217328
-0.144773
-0.276737
-0.0710862
-0.13338
0.513666
0.520662
0.51567
0.531197
0.525669
0.52763
0.539948
0.537021
0.53858
0.466458
0.59026
0.330217
0.295122
-0.247233
-0.161495
-0.24802
-0.0683265
-0.0634675
0.069295
0.094639
0.0425776
0.030886
-0.0573652
-0.0492376
-0.0529713
-0.0406914
-0.0393571
0.446351
0.435206
0.466221
0.473748
0.518334
0.519709
0.523817
0.521945
0.915982
0.938335
0.945794
0.919621
-3.50427
-6.29022
0.0418735
0.178763
-0.00609756
-0.0101853
0.00511984
-0.0105546
-0.00278337
-0.00447618
-0.0046048
-0.00611503
-0.00153196
0.000203406
0.641382
0.642211
1.00103
1.00674
0.977859
0.930217
0.523736
0.525816
0.531328
0.527204
-0.0392101
-0.0397386
-0.0396583
0.688372
0.692411
0.691022
0.240319
0.151222
0.329144
0.358025
0.63487
0.623188
0.633274
0.64609
0.681269
0.963239
0.981369
0.979699
0.98799
1.03208
1.04853
1.01377
0.47955
0.489495
0.484465
0.522923
0.520692
0.521597
0.517388
0.518723
0.516658
-0.036946
-0.417755
0.489958
0.50747
0.491373
0.494814
0.690528
0.768804
0.655442
0.660697
0.659227
-0.0026011
-0.0609485
0.250799
0.217181
0.386173
0.422443
0.40148
0.887089
0.847592
0.897602
0.87112
0.832437
0.858485
-0.36937
-1.87167
-0.989244
0.528523
0.342919
0.429938
0.0128162
-0.00416888
0.000429101
0.999931
1.07333
0.646097
0.820168
0.823478
0.718765
0.749633
0.804724
0.729442
0.764845
0.800461
0.782389
0.566917
0.503265
0.518992
0.837952
0.893631
0.12186
0.0615337
0.0175349
0.113256
0.17021
0.144486
1.03404
0.947702
1.01812
0.53377
0.534486
-0.00314458
-0.0176672
0.53871
0.538763
-0.0158921
-0.00272872
0.413361
-0.834019
0.103645
0.527271
0.517242
0.534333
-0.0919945
0.355734
-0.0442499
0.0504126
-0.00493281
0.531541
0.464614
0.423942
0.00199221
-0.0182518
-0.0443279
-0.21689
0.53144
0.529746
0.5338
0.534749
0.535425
-0.0166333
-0.0119631
-0.00895042
-0.0425695
-0.0378789
-0.0474437
0.498358
0.517196
-0.170584
0.533944
0.536075
0.535895
0.52914
0.534778
0.533024
-0.00914557
-0.0156907
-0.0172069
0.221712
0.351434
0.65363
0.741667
0.624965
0.400578
0.165067
0.55663
0.620185
0.525589
0.679434
0.664143
0.679445
0.169081
0.0188003
0.17751
0.118697
0.52513
0.523833
0.515496
0.512474
0.529197
0.527307
0.531869
0.528879
0.531831
0.533218
-0.0497855
-0.0746815
-0.0868935
-0.15607
0.310372
0.572196
0.2533
0.28378
0.143204
-0.0390756
-0.0399787
-0.043437
-0.0493603
0.00374322
-0.0198823
0.04545
0.0461655
0.0186285
-0.00756688
-0.00395812
-0.0148038
-0.0112668
0.524624
0.523368
0.529069
0.538088
0.474221
0.477997
0.442996
0.463652
0.448958
0.38792
0.423108
0.398313
-0.00635787
0.00431374
-0.00373138
-0.0153459
-0.0113963
-0.0304204
-0.0269941
-0.0232461
-0.0188005
-0.0255904
-0.0396673
-0.0411351
-0.174219
-0.288935
0.987857
0.910522
0.133712
0.520599
0.527046
0.523812
0.52871
0.531838
0.532647
0.530365
0.526918
0.517552
0.519099
0.515896
0.516753
-0.102708
-0.243139
-0.0711729
-0.143788
0.142684
0.626561
0.363369
0.299931
0.294875
0.522399
0.919055
0.704197
0.678954
0.689736
-0.343641
0.0470722
-0.279416
0.337221
0.163238
0.653419
0.702548
0.724265
0.672043
0.624986
-0.105142
0.553947
-0.0694422
-0.0185612
0.181824
0.0609465
0.674846
0.649465
0.653208
0.670185
0.686328
0.655786
0.640823
0.635806
0.666082
0.668334
0.488579
0.252587
0.204034
0.165526
0.641717
0.523999
0.577393
0.493917
0.52031
0.522926
0.521557
0.503173
0.510736
0.506276
0.512773
0.516244
0.52491
0.525361
0.520662
0.522795
-0.0546238
-0.0583818
-0.0305416
-0.139422
-0.132412
-0.195072
-0.06482
0.07361
0.0342815
0.234974
0.340184
0.051122
-0.0600177
-0.0328283
0.00875925
0.178449
0.205085
0.0749653
0.163216
0.152708
0.135504
0.237205
0.241357
-0.0242866
-0.0281228
-0.0308893
-0.0332672
0.0214235
0.0915655
0.101393
-0.00147157
-0.00747156
-0.0368253
-0.036358
-0.0207742
-0.0253737
-0.0217144
0.0115781
-0.050132
-0.0174958
-0.00314877
0.00159455
-0.0010021
-0.00652436
0.516934
0.519416
0.518965
0.524881
0.54237
0.557289
0.517115
0.496364
0.48718
0.490187
0.463133
0.473452
0.469119
0.48286
0.504021
0.513685
0.510911
0.513722
0.496148
0.497845
0.484338
0.48806
0.46282
0.4438
0.431951
-0.0397259
-0.00146303
-0.00914863
-0.0356652
-0.00663797
-0.0185933
-0.00690743
0.0116512
-0.00427865
-0.00624282
-0.0163982
-0.0225628
-0.0220894
-0.0756891
0.0104044
-0.184639
-0.220904
-0.292994
0.889614
1.01366
0.809786
0.582893
0.602103
0.845401
0.930169
0.543284
0.734929
0.758432
0.585557
0.852436
0.52543
0.525033
0.522633
0.522113
0.523329
-0.00817218
0.0974185
0.097364
0.159201
0.274605
0.386686
0.316733
0.192186
0.322643
0.325238
0.618823
0.631034
0.586544
0.610769
0.610324
0.425376
0.501227
0.553387
0.511582
0.563938
0.585029
0.540066
0.572548
0.522738
0.477525
0.473406
0.424172
0.443804
0.419991
0.402974
0.514973
0.492391
0.502924
0.493198
0.512239
0.539109
0.534489
0.56171
0.575016
0.496871
0.452365
0.461709
0.492072
0.452994
0.4681
0.484556
0.229774
0.131286
0.214056
-0.0730032
0.000240109
-0.0131869
-0.0613557
-0.0113419
0.273392
-0.419356
-0.395438
-1.02384
0.499928
0.953769
0.617065
0.589855
0.683692
0.665837
0.670594
0.687011
0.690594
0.630307
0.643082
0.646441
0.608971
0.631092
0.65011
0.647253
0.523967
0.386021
0.383513
0.333642
0.203797
0.2426
0.441552
0.364537
0.289211
0.289933
0.458186
0.34506
0.414298
0.449336
0.380812
0.335115
0.538163
0.603031
0.595596
0.570107
0.484409
0.497838
0.521734
0.556065
0.581689
0.612299
0.512227
0.518134
0.51937
0.516854
0.514119
0.517163
0.517394
0.519937
0.520604
0.523587
0.522629
-0.0440876
-0.0320992
-0.045455
-0.053572
-0.0202721
-0.0233514
0.0195492
0.00525273
-0.0113061
-0.00549632
-0.0307191
-0.0350426
-0.0304099
-0.0215405
0.0987872
0.111331
0.0945388
0.0549555
0.248459
0.378364
0.452738
0.327907
0.220608
0.243783
0.26407
-0.0115738
0.0153867
0.00228849
0.0414906
0.0331277
-0.0314213
-0.0353564
-0.0327706
-0.0258387
-0.0166671
-0.0329036
-0.0355272
-0.0268598
-0.0316022
-0.0331853
-0.0367743
0.498624
0.492105
0.493826
0.487642
0.48635
0.500734
0.504973
0.506964
0.512466
0.514832
0.504803
0.510657
0.51452
-0.00774149
-0.0305293
-0.0345853
-0.0229386
-0.0258551
-0.0239555
-0.0255606
0.121848
0.0509587
0.0557636
0.00795591
-0.12318
-0.0655292
0.489634
0.48883
0.478868
0.719343
0.568679
0.489214
0.586386
0.691995
0.274175
0.471348
0.306027
0.887036
0.783049
0.929491
0.540819
0.242609
0.404056
0.449117
0.26091
0.335573
0.325467
0.21403
0.245123
0.281733
0.381118
0.263174
0.239507
-0.00317919
0.187009
0.299539
0.281374
0.406472
0.467651
0.26378
0.183675
0.138593
0.604225
0.623438
0.637839
0.610035
0.631172
0.576968
0.567663
0.58456
0.593363
0.588475
-0.751832
-0.458487
-1.40452
-0.725184
-0.271423
0.530197
0.499667
0.766409
0.64668
0.689777
0.675247
0.634508
0.60319
0.624215
0.649329
0.345873
0.457156
0.432323
0.437396
0.339165
0.270234
0.568422
0.564265
0.597471
0.620842
0.592289
0.622054
0.510047
0.50976
0.509237
0.505497
0.503772
0.506121
0.0580034
0.026581
0.0630906
0.0435632
0.0203443
0.00855662
-0.00380152
-0.0135589
-0.0205962
-0.0207632
-0.00760441
-0.00350224
0.169137
0.10764
0.0273065
0.0574066
-0.00364728
-0.072659
-0.0908899
0.0128158
0.109065
0.0993614
0.403644
0.653623
0.473598
0.641028
0.483099
0.538856
0.467551
0.459066
0.484621
0.377858
0.458272
0.240932
-0.265921
-0.174978
0.789148
0.801882
0.579416
0.401661
0.170509
0.351522
0.543551
0.475353
0.511711
0.580662
0.569014
0.0220129
0.0822199
0.361634
0.588773
0.236836
0.227947
0.221775
0.40333
0.323223
)
;

boundaryField
{
    wall-4
    {
        type            zeroGradient;
    }
    velocity-inlet-5
    {
        type            zeroGradient;
    }
    velocity-inlet-6
    {
        type            zeroGradient;
    }
    pressure-outlet-7
    {
        type            fixedValue;
        value           uniform 0;
    }
    wall-8
    {
        type            zeroGradient;
    }
    frontAndBackPlanes
    {
        type            empty;
    }
}


// ************************************************************************* //
