/*--------------------------------*- C++ -*----------------------------------*\
  =========                 |
  \\      /  F ield         | OpenFOAM: The Open Source CFD Toolbox
   \\    /   O peration     | Website:  https://openfoam.org
    \\  /    A nd           | Version:  13
     \\/     M anipulation  |
\*---------------------------------------------------------------------------*/
FoamFile
{
    format      ascii;
    class       surfaceScalarField;
    location    "57";
    object      phi;
}
// * * * * * * * * * * * * * * * * * * * * * * * * * * * * * * * * * * * * * //

dimensions      [0 3 -1 0 0 0 0];

internalField   nonuniform List<scalar> 
1300
(
3.75095
5.62643
-3.31978
3.75095
-7.73469
5.62643
-4.36959
4.36959
-0.537913
0.537913
1.87639
1.87456
-2.73889
2.73889
-2.21384
2.21384
-2.53639
2.53639
-5.24641
5.24641
-5.06911
5.06911
4.65694
-4.65694
-6.29093
6.29093
-0.97306
0.97306
-3.66003
3.66003
3.16965
-3.16965
-2.14637
2.14637
-0.0481387
0.0481387
-0.553483
4.30444
3.19747
3.19747
-2.00594
2.00594
-4.86748
4.86748
6.21796
-6.21796
5.3177
-5.3177
-1.99791
-2.43727
1.80183
-11.5376
-5.93286
-5.93286
-8.44037
8.44037
-2.81394
2.81249
2.94566
-2.94566
-1.77656
1.77656
-4.32984
-0.0397503
-4.32984
4.33925
0.0303362
4.33925
-0.603067
0.0651543
-0.603067
3.96531
-3.96531
0.44382
0.0940925
0.44382
3.06524
-3.06524
-1.87711
3.7535
1.87385
-1.87189
6.17632
-1.87907
3.75363
-6.01238
6.01238
-2.95457
0.215678
-2.95457
2.55667
0.182218
2.55667
-6.83543
6.83543
-2.2549
0.0410604
-2.2549
2.18386
0.0299731
2.18386
2.87856
-2.87856
-2.64694
0.110549
-2.64694
2.41019
0.126204
2.41019
0.353518
5.27291
-5.97995
8.79243
-5.27291
0.0265065
5.20829
0.0381121
5.20829
-5.10603
0.0369205
-5.10603
5.0128
0.0563072
5.0128
4.74408
-0.0871431
4.74408
-4.77437
0.117428
-4.77437
-3.38627
-4.03943
-6.44086
0.14993
-6.44086
-1.05308
0.080023
-1.05308
0.869629
0.103431
0.869629
-3.67865
3.67865
-4.07577
0.415746
-4.07577
3.12404
0.0456141
3.12404
1.86849
1.88246
5.61945
-5.61945
2.4498
-2.13472
-0.0116521
-2.13472
-2.18992
-3.12778
2.18992
-0.043548
-0.280182
0.232043
-0.280182
3.1594
0.0380685
3.1594
2.24098
0.169211
-2.24098
0.23504
3.2661
-3.2661
1.33847
0.667467
1.33847
-5.56467
5.56467
4.95589
0.0569096
-4.95589
0.0884099
6.15668
0.0612756
6.15668
-6.19956
-0.0183928
-6.19956
2.54655
-4.98382
-2.60663
6.11175
0.179179
-6.11175
0.178886
2.91722
0.0284378
2.91722
-2.9199
2.9199
-2.98436
0.0386999
-2.98436
-2.17558
0.399026
-2.17558
1.47774
0.29882
1.47774
-4.22808
-0.101754
-4.22808
-4.22757
0.1518
4.22757
0.111678
1.12671
-1.12671
-0.700387
0.0973205
-0.700387
-4.09027
-0.13781
4.09027
-0.124965
-3.85561
-0.109691
-3.85561
-3.02431
0.039958
3.02431
0.0409278
3.11282
0.0465831
-3.11282
0.0475773
-1.87082
3.75328
-1.88013
3.75398
-5.63226
-0.380122
-5.63226
6.32174
-0.309357
6.32174
3.31952
0.340504
-3.31952
0.364952
2.41967
0.137006
2.41967
-6.80022
-0.0352018
-6.80022
6.8179
0.0175222
6.8179
2.32198
0.0976844
-2.32198
0.0670876
2.15976
0.0241036
2.15976
2.89769
-0.0191348
2.89769
-2.87344
-0.00512289
-2.87344
2.79675
-2.79675
2.72599
0.0707555
-2.72599
0.0790487
-11.133
11.1146
-0.0350989
-11.0979
5.17319
5.17319
4.17226
0.571823
4.17226
-4.99235
0.217982
-4.99235
2.68285
-5.28947
3.0532
-6.43946
4.66004
-16.1976
4.313
-8.35243
6.6815
-6.6815
6.56989
0.111609
-6.56989
0.12903
-1.1634
0.110321
-1.1634
-3.07506
-0.60359
-3.07506
4.32298
-0.644331
4.32298
-3.02831
3.02831
-3.07756
0.049244
3.07756
0.0464799
2.13379
0.025974
-2.13379
-0.000935409
0.362074
0.081746
-0.362074
0.0818922
3.47447
-0.208371
3.47447
-3.07073
-0.195368
-3.07073
-1.25608
0.0926774
1.25608
0.0823879
-5.81338
0.248715
-5.81338
-11.1908
0.0929849
-11.1527
-6.10658
-6.10658
2.3338
11.1262
-2.89207
0.0186336
2.89207
0.0251476
2.9753
0.0530155
-2.9753
0.0553985
-2.86091
0.0641682
2.86091
0.0589842
-2.55069
0.375109
-2.55069
-1.07418
1.07418
-1.24159
0.167415
1.24159
0.236147
1.39637
-0.269658
1.39637
0.782668
0.086961
-0.782668
0.0822801
-3.76033
-0.0952849
-3.76033
6.55459
-0.232851
6.55459
-2.95824
-0.112487
2.95824
-0.0605498
-0.0333548
11.1479
-5.13984
0.0338121
5.13984
-11.2092
11.243
-3.22193
0.671235
3.22193
0.950333
5.2856
0.279073
-5.2856
0.293247
6.76656
0.0513399
-6.76656
0.0850677
-2.58264
-0.492417
-2.58264
-5.04968
-0.582581
5.04968
-0.726703
-11.4741
-0.205483
11.6795
-11.4177
6.01887
0.137811
-6.01887
11.3808
-1.0301
-0.0966102
1.0301
0.0440726
1.72251
-0.326144
1.72251
3.66458
-0.190112
-3.66458
-0.0957476
-6.70627
-0.0939545
6.70627
-0.151678
-2.13858
-0.44406
2.13858
-0.416065
-4.26708
4.30515
1.90924
-2.40424
-2.57958
-5.53202
1.85188
1.9014
4.30167
-10.1608
-6.03683
-9.98188
7.26271
-6.96946
-9.24881
9.16166
7.83725
-7.94695
-5.78498
5.83146
6.4827
-6.44177
1.87878
1.87472
7.95994
-7.74427
-15.6332
15.2531
7.50267
-7.4616
15.7819
-15.8171
-17.861
17.9123
-5.69544
5.80599
-6.73677
6.73165
-6.96903
6.90848
-2.83786
-3.60161
13.1238
-12.9739
8.53782
-8.54947
-8.58261
8.99836
3.38256
0.922591
3.42915
-1.88218
3.76096
-1.87144
3.78068
2.70224
-5.5401
2.58723
-5.16681
4.32323
4.2146
-4.27968
-1.25234
-5.92362
5.95206
-5.81577
5.87475
9.10858
-9.14833
-1.88515
3.75988
-1.86883
3.77023
-3.42503
-2.35995
3.37942
0.922257
8.08014
5.0437
-8.25931
-1.72257
-8.01374
7.82363
-8.21866
8.02329
-0.435174
5.81836
-5.38318
4.43231
-1.56254
7.3809
5.70017
5.91815
5.86612
-5.58705
1.10334
-6.48652
-6.39811
-2.3619
2.45922
2.24612
-2.15203
6.10238
1.73488
5.97741
-5.73309
-2.21386
-5.82837
3.82077
2.01069
3.87001
4.07806
2.40463
4.11802
3.03058
-3.03586
0.00527735
-3.05655
6.08714
0.724017
-5.4165
-4.49425
4.9652
2.99474
5.14742
-5.51656
-2.22771
-5.15161
-9.55275
-6.08047
-10.1353
10.0978
5.15534
9.7884
-11.9713
11.8197
4.79091
2.71175
4.82088
-4.91839
-2.54321
-4.8513
11.6367
-2.61418
-9.02252
-10.327
-7.53401
10.3095
5.47241
10.9687
6.94366
11.0537
4.42378
7.21293
-9.89619
2.36218
-3.86086
-1.83458
-3.78182
3.6634
2.14259
3.7896
-4.21637
-2.5204
-4.19774
-4.2936
-2.67542
4.31274
2.41891
-4.41364
-3.80502
4.52612
2.38235
4.02908
-10.0659
4.32335
-7.92495
-9.20232
-3.77159
-9.07329
3.49678
2.60563
-6.10241
-2.04331
8.46247
-4.24787
7.21013
-5.16711
-3.38237
-5.16804
-6.85736
-1.72526
-6.70556
-8.88775
8.39534
-9.18675
8.54242
12.557
-5.67266
-6.88436
-3.96837
-2.4734
3.9208
-0.49165
-3.7106
3.71588
0.0503532
3.83104
4.75363
4.26198
-3.88505
-1.93072
-3.82965
3.82666
2.04809
3.89083
6.81826
2.29032
6.8486
-6.58327
-2.56506
-6.68503
9.0479
-8.64887
2.85586
-2.76318
5.38282
2.64047
-5.17445
-2.83929
6.21418
-3.2152
-2.99899
-12.1999
10.5342
1.66569
-4.81896
-0.386655
-0.338516
-5.49031
-3.75849
5.37288
0.545265
11.0794
7.32093
-5.51275
5.76147
6.16678
6.22369
-0.174419
5.81364
-5.1424
5.26725
-2.54814
-2.71911
5.44116
-5.57897
-1.24387
-5.49119
4.24732
0.39844
1.55734
-1.3253
-1.83811
-0.523792
-1.75583
1.33325
0.912875
1.415
0.928376
1.53084
-2.94841
0.556033
2.39238
-2.02003
-1.596
-3.76933
-1.1247
4.89404
5.7122
2.11142
-5.61646
-0.211918
2.58344
-2.48001
-0.752486
-3.01685
2.22814
-2.98063
-3.67385
-2.02434
5.69819
-3.37001
-0.459644
3.31699
0.55302
-3.82683
-2.09679
3.78813
0.329891
-3.12718
6.19052
-3.06334
-5.05789
2.52788
3.55926
4.53857
-4.78958
2.44729
2.34229
-1.23032
4.24259
0.904827
4.3796
-6.8971
4.66939
5.78293
3.21543
-6.12343
0.971823
-5.92528
8.5358
-7.36063
-1.17516
4.13663
4.39917
7.08903
5.468
-5.68394
12.773
-1.19206
-6.16858
7.11733
-3.9019
4.8467
-8.7486
-10.3147
4.14612
-9.16436
10.9385
-1.77415
-3.62573
-8.34561
12.7901
-1.20994
-11.5801
8.57846
-4.23001
-4.31281
8.54283
-6.8442
6.85603
-1.98337
-4.87266
-10.1154
-5.70167
10.2094
1.61029
-9.87757
12.2398
-2.66464
4.10327
0.717618
4.12737
3.27955
-5.45494
2.17539
3.56465
-5.54802
2.08534
-7.54027
-6.73333
12.0641
-5.33077
-10.5049
-9.52385
-0.981066
2.53337
9.70638
-9.47704
7.43179
2.04524
3.30303
0.5878
-3.37379
-0.408029
0.235486
4.53403
-4.76952
4.02509
4.1943
3.29934
1.23469
3.84438
2.10768
-3.86952
-0.328212
-4.16167
1.48625
-1.74276
-3.69073
5.17698
-4.06593
0.375208
-2.74597
-3.50037
6.24634
-4.58055
3.03645
3.15407
5.08454
-4.91273
1.41237
-2.39381
-2.51893
2.65357
-4.39633
1.98827
3.18871
4.37062
0.565595
5.87182
6.19228
-8.47745
0.552496
11.236
-9.51342
2.46861
8.58513
-9.9004
0.376552
-8.69674
0.994145
-5.24202
-5.10827
5.18527
-6.91052
-3.56333
6.19143
0.657166
-6.30311
-0.40245
-6.04006
-2.84769
-6.48412
-3.04813
-6.13862
-8.73207
-1.65312
-7.07894
6.74221
-6.6892
-3.44613
7.4159
1.12652
-7.41357
7.31696
-7.49265
7.16651
0.0952508
3.62063
4.35723
1.88383
-2.39031
4.27414
-5.10627
7.39659
-8.69261
3.58635
4.17637
-6.74143
-4.51624
5.02669
4.02121
5.32551
8.89759
-10.3724
1.47484
-10.6721
12.0074
-1.33532
-16.4381
5.76601
-7.54051
2.47845
0.377404
2.58878
0.558505
2.50015
-3.05866
-2.20468
-2.12229
-2.42255
-3.46431
5.88685
1.11183
-3.51119
2.39936
-3.56856
4.68039
-0.185336
-3.32585
5.28745
-2.78729
5.66485
-3.7539
1.91095
3.42689
5.7484
-2.32151
4.39229
-1.75181
1.91131
-4.23282
-1.55299
-2.96225
5.10485
-3.28409
3.65929
-0.335328
3.99462
-4.06807
0.852871
-0.76873
3.42557
3.66061
4.30687
-3.07217
2.92494
-4.67675
-1.30788
-4.11116
-0.922449
-0.268757
-3.71719
3.98595
5.99612
-6.26487
-5.23883
9.53604
-4.29721
7.69896
-5.3858
-2.31316
-4.25732
-4.39155
3.88221
1.93142
9.63038
0.209797
-5.5956
-4.9326
-3.98227
3.12784
2.13942
-1.79928
3.46497
2.13779
-0.580448
0.461645
0.95335
1.79058
-1.32893
0.290059
1.50052
-1.03524
1.80474
0.778701
-1.8917
0.135874
-1.31075
3.53889
1.08163
-1.9945
0.66557
0.995502
-3.54365
5.0001
-2.6427
-2.3574
5.9956
1.14586
-3.78856
4.34533
-3.94689
2.37233
-3.49703
-1.41623
-5.36312
-3.62824
-2.53188
4.93124
-3.35497
5.46639
1.25739
-5.25448
6.51187
-3.70587
1.68153
-3.07426
3.85297
-0.974522
-2.09974
2.8902
2.80799
-3.03612
0.0192739
-0.145917
2.39731
-2.54323
-0.583317
-2.60335
-4.57301
4.9029
-2.10576
4.55305
2.16838
-1.91634
6.46939
1.80948
-3.72582
-3.24841
-3.70806
-1.38353
3.15504
-0.594634
-4.25667
-5.4673
4.15899
0.22061
-6.98942
7.80454
-0.815116
-3.99468
-0.674712
4.81134
-6.03273
0.484714
-3.9474
3.85714
4.76197
4.98258
-11.3694
-0.210769
-6.21404
1.1298
-7.34384
5.52897
-3.5504
7.69652
-10.3491
6.90296
-9.22257
6.52136
-0.822483
6.24968
-4.07429
2.77284
-8.47451
-6.86422
5.47013
-2.75837
6.18774
-3.11982
9.30757
-5.78446
5.25922
4.04834
-1.00831
-4.15973
-5.25283
4.24452
0.0063884
4.13376
4.97905
-2.87136
4.65083
2.2659
-4.65971
-2.13043
-6.49486
1.83516
-3.3408
-1.91966
3.75482
3.16488
3.75268
1.2359
-3.34465
7.18215
-8.16321
-1.85138
-3.25689
5.23974
-0.995219
3.38464
-6.64153
-1.85737
4.81714
-0.7834
-4.03374
0.855523
-4.41886
1.66931
-6.08816
5.24122
-5.64367
2.22195
-9.76246
-5.19163
-5.14755
-2.2591
-5.23355
-7.57976
5.32066
-1.81375
5.50321
-8.52128
7.73788
-3.48613
8.80679
-5.43303
-1.0511
5.84909
1.31741
10.1242
0.207424
-4.72367
-1.90567
3.87375
-1.96808
1.22217
-3.50977
0.363979
2.48834
3.50726
-6.73567
-0.00576082
-4.72943
-3.91952
7.94073
5.61652
11.6126
1.24021
9.12357
-1.18284
10.3638
4.14267
4.37881
-3.0046
4.47944
0.981353
4.5677
-0.910504
2.82146
1.67827
1.7583
0.721715
2.30706
1.35355
3.15993
0.101275
-2.02101
4.62453
-8.6068
-0.97107
-8.03497
1.12669
5.71209
-4.58541
2.99143
-0.852014
1.02335
-0.0488086
-1.3496
1.3984
-2.76792
-1.93004
-0.429528
-1.67276
2.33833
1.86613
-1.9088
-0.859119
0.356807
-3.98505
3.14022
-3.12095
-0.312961
6.19891
-2.81477
0.271547
-1.13325
-2.3318
-2.85559
2.71972
6.17615
0.293241
3.11281
5.19614
3.09935
0.227989
3.90446
-5.67861
-3.63582
-5.88938
-0.360405
4.45093
1.74663
7.95975
5.79497
4.79975
-1.84178
-10.005
6.54324
-2.06381
5.20792
-1.17419
-4.91398
5.02977
2.36682
-5.68693
0.0432636
-4.87071
-6.93452
-0.513632
8.25152
-9.61058
8.55948
5.71179
1.36715
-4.40891
-0.73864
4.2415
0.137315
10.5011
-1.12774
-6.74689
7.87463
-4.58436
3.61329
0.770563
2.69441
2.16897
1.31695
-5.42993
-10.0153
-2.01461
-1.52904
-4.37202
0.522022
-2.38815
6.22959
-2.6163
3.91643
5.25833
6.28168
-2.13779
-4.12708
6.43501
-2.51858
3.7631
)
;

boundaryField
{
    wall-4
    {
        type            calculated;
        value           uniform 0;
    }
    velocity-inlet-5
    {
        type            calculated;
        value           uniform -3.75095;
    }
    velocity-inlet-6
    {
        type            calculated;
        value           uniform -5.62643;
    }
    pressure-outlet-7
    {
        type            calculated;
        value           nonuniform List<scalar> 8(3.31978 7.73469 4.43518 9.73572 7.4257 5.15318 5.73604 8.97304);
    }
    wall-8
    {
        type            calculated;
        value           uniform 0;
    }
    frontAndBackPlanes
    {
        type            empty;
    }
}


// ************************************************************************* //
