/*--------------------------------*- C++ -*----------------------------------*\
  =========                 |
  \\      /  F ield         | OpenFOAM: The Open Source CFD Toolbox
   \\    /   O peration     | Website:  https://openfoam.org
    \\  /    A nd           | Version:  13
     \\/     M anipulation  |
\*---------------------------------------------------------------------------*/
FoamFile
{
    format      ascii;
    class       volVectorField;
    location    "57";
    object      U;
}
// * * * * * * * * * * * * * * * * * * * * * * * * * * * * * * * * * * * * * //

dimensions      [0 1 -1 0 0 0 0];

internalField   nonuniform List<vector> 
918
(
(0.985161 -0.000505757 0)
(0.00501365 2.96625 0)
(0.00799248 0.885126 0)
(0.979704 0.00214655 0)
(-0.0129165 2.06167 3.31403e-20)
(-0.0070484 2.9488 -2.46998e-18)
(0.816083 1.15825 4.47243e-19)
(0.168052 0.0887335 -1.51112e-20)
(0.999909 -0.00027796 0)
(0.0598976 0.750763 0)
(0.0114725 0.546783 0)
(0.735435 -0.0187287 0)
(0.0111384 2.93034 0)
(0.00266259 2.79526 0)
(-0.0177372 3.15023 7.81277e-19)
(-0.0184405 1.91145 7.92145e-21)
(0.280272 0.0397846 1.01777e-18)
(0.185693 1.13605 3.20136e-19)
(0.962738 0.00501893 0)
(0.00940194 0.503662 0)
(0.00146704 0.118214 -7.09365e-19)
(1.00197 -0.00497671 0)
(1.00022 -0.00978657 0)
(0.975735 -0.00643913 0)
(0.595736 0.00558116 0)
(0.0153776 2.6409 0)
(-0.0148719 2.91002 9.08632e-19)
(0.0118702 0.938415 0)
(-0.0127803 1.18212 0)
(0.0128944 0.919702 0)
(-0.0143017 2.59596 0)
(-0.0014297 2.111 -2.64669e-20)
(-0.00882548 1.89341 0)
(-0.0205965 2.98761 -8.87868e-23)
(-0.0166839 3.00529 1.9195e-18)
(0.00210056 3.00017 0)
(0.871199 -0.00962906 0)
(0.403502 0.934714 1.78848e-19)
(0.801166 1.17273 -5.10675e-19)
(0.952192 1.0185 5.52439e-19)
(0.670133 1.26404 -1.03715e-19)
(0.671391 1.23784 5.97097e-19)
(0.204565 0.147212 1.47422e-20)
(0.181983 0.064038 0)
(1.15253 0.559654 0)
(0.17754 0.136129 6.7199e-20)
(0.143368 0.0857033 -6.97283e-20)
(0.919872 -0.00745464 0)
(1.00027 0.000158819 0)
(0.999909 0.000337106 0)
(1.00363 -0.00776257 0)
(1.00096 -0.000922 0)
(1.00017 3.50122e-05 0)
(0.0737812 1.82357 -7.72481e-19)
(0.0265609 0.957337 0)
(0.0947718 0.819844 0)
(0.0102457 0.913475 0)
(0.035383 0.682305 0)
(0.00686123 2.00818 0)
(0.00108752 0.81737 0)
(0.0111242 0.566336 0)
(-0.00342018 0.813101 0)
(0.0095988 0.531324 0)
(0.840951 -0.0157983 0)
(0.840994 0.0319239 0)
(0.767611 -0.00812327 0)
(0.805821 0.0416817 0)
(0.70408 -0.0162056 0)
(0.0146846 3.00041 9.15589e-19)
(0.0114906 3.00809 0)
(0.00610331 3.00275 0)
(0.0135509 2.99738 1.03877e-23)
(0.00795654 2.95846 -1.36079e-18)
(0.0145016 2.98199 0)
(0.0108876 2.90355 0)
(0.0242354 2.93062 2.08354e-24)
(0.00468846 2.82526 0)
(0.0307429 2.9166 0)
(-0.00474663 2.74557 0)
(0.30607 3.54423 0)
(-0.131603 3.62512 0)
(0.138244 3.24039 -7.27053e-19)
(-0.0134926 2.97808 0)
(-0.0197665 1.98034 0)
(-0.0067727 2.16202 -7.8129e-21)
(-0.0128442 1.91947 1.41862e-21)
(0.365358 0.145828 -3.53283e-19)
(0.306631 0.025026 -3.42808e-19)
(0.326813 0.153967 -1.05812e-18)
(0.247045 0.0476903 -6.90097e-19)
(0.228118 0.97903 0)
(0.269672 1.2835 -3.69841e-19)
(0.363922 1.21975 6.16588e-19)
(0.987445 0.00856745 0)
(0.941878 0.00583234 0)
(1.0003 0.000580163 0)
(1.00286 0.00930832 0)
(1.00301 0.00846897 -2.73956e-18)
(0.991909 0.00969643 2.06882e-18)
(-0.00368932 0.802074 0)
(0.00960361 0.515889 0)
(-0.0399975 1.00824 0)
(-0.0195236 0.839609 0)
(0.00436163 0.499036 0)
(0.0116496 0.127641 2.19008e-19)
(0.0890464 0.0982872 0)
(0.99355 -0.00837351 0)
(0.954453 -0.00652744 0)
(0.749204 0.0438975 0)
(0.684066 0.0371533 0)
(0.663449 -0.0131628 0)
(0.968733 -0.0077672 0)
(0.596484 0.0697076 0)
(0.444187 -0.0144913 1.53738e-18)
(-0.03705 2.86219 6.70687e-19)
(0.0409577 2.91014 0)
(0.0537322 2.88599 0)
(-0.00418774 2.70046 0)
(-0.0131212 2.98516 8.60194e-19)
(-0.0178728 2.89502 0)
(-0.0154316 2.98804 -2.66762e-18)
(-0.0132582 2.92518 9.13487e-19)
(-0.0210745 1.34525 0)
(0.00142663 1.37404 0)
(-0.00687966 2.1279 4.76841e-22)
(-0.00597741 2.0902 0)
(-0.0202896 1.89957 0)
(0.938457 -0.00744426 0)
(0.857242 -0.00994356 0)
(0.863299 0.00580617 0)
(0.949505 -0.00786364 0)
(0.883964 -0.00817553 0)
(0.515097 1.1278 -2.25949e-19)
(0.564238 1.17885 0)
(0.368087 0.879676 3.34739e-20)
(0.310582 0.738439 0)
(0.913058 1.05605 -1.52248e-19)
(1.02972 0.865902 3.07894e-19)
(0.357482 1.3461 0)
(0.522959 1.31908 0)
(0.545969 1.25647 0)
(0.120354 0.185078 -3.01559e-19)
(0.229545 0.142397 0)
(0.205622 0.0723874 1.93416e-19)
(1.0008 0.920309 0)
(1.07373 0.774558 0)
(1.09882 0.716025 -2.43006e-19)
(1.13194 0.619141 0)
(1.18278 0.403307 5.67369e-20)
(0.957704 -0.00873496 0)
(0.962482 -0.0100514 0)
(0.901697 -0.00797437 0)
(0.984197 -0.00915276 0)
(0.974696 -0.00934471 0)
(0.937118 -0.00636975 0)
(1.00019 0.00233909 0)
(1.0009 0.00141088 0)
(0.99991 0.000854633 0)
(0.0352302 2.07348 4.28175e-19)
(0.119125 1.76661 0)
(0.0176286 2.18767 6.58001e-19)
(0.0465607 1.87722 -5.49125e-19)
(0.101799 1.14493 -2.62288e-19)
(0.0436579 1.03183 0)
(0.14039 0.975806 0)
(0.00428133 0.874133 0)
(0.016995 0.629965 0)
(-0.00141354 2.24005 -8.55066e-22)
(0.0160393 2.01311 0)
(-0.00222714 2.2416 -3.19981e-20)
(0.00848032 2.01662 5.0906e-20)
(0.00186472 0.85041 0)
(0.00202421 0.829926 0)
(0.0113492 0.592505 0)
(-0.00583866 0.810066 0)
(0.00163227 0.521636 0)
(0.937782 0.00963634 0)
(0.849308 -0.0148375 0)
(0.927139 0.000294817 0)
(0.842036 -0.0129414 0)
(0.812094 -0.000974539 0)
(0.899646 0.0213768 0)
(0.873944 0.0264385 0)
(0.788735 -0.00406194 0)
(0.00557183 3.06471 -8.53591e-21)
(0.0166462 3.05778 0)
(0.0146226 2.96902 0)
(0.00861941 2.8762 0)
(0.92191 3.95781 0)
(1.23551 3.29122 9.28541e-19)
(0.0691248 3.07043 0)
(-0.0293172 2.90317 0)
(-0.00771433 1.39437 0)
(-0.0251604 1.69247 0)
(-0.0126629 1.52872 0)
(-0.0271487 2.55625 -1.16732e-20)
(-0.0110503 2.24376 0)
(-0.0161568 2.39229 0)
(3.07989e-05 1.94349 8.53858e-22)
(-0.00371269 2.2352 -4.60214e-21)
(-0.00570588 2.19643 -1.57919e-21)
(-0.00736824 1.93004 0)
(0.414235 0.126847 5.38452e-19)
(0.354932 0.0138601 -5.28397e-19)
(0.259207 1.58495 0)
(0.276259 0.752299 -3.15065e-19)
(0.17702 1.67185 -1.04827e-18)
(0.226145 1.21663 1.05061e-18)
(0.902064 0.00639868 0)
(0.96742 0.0111085 0)
(0.974558 0.0108028 0)
(0.92333 0.00642473 0)
(-0.00150529 0.803662 0)
(-0.00673209 0.802356 0)
(0.00102052 0.516089 0)
(0.154646 0.125844 6.21348e-19)
(0.130156 0.114651 -7.32844e-19)
(0.118476 0.0874393 0)
(1.09583 0.0853567 2.71575e-20)
(1.07803 0.038933 0)
(1.01108 0.0395925 0)
(0.905583 -0.00589178 0)
(0.462392 0.106409 0)
(0.520531 0.0875702 -2.456e-18)
(0.398685 0.0091628 9.18102e-19)
(0.008738 2.98047 7.19955e-19)
(-0.0332384 2.86494 4.55128e-20)
(0.00364552 3.05025 -1.8074e-20)
(0.0201978 3.04335 6.42965e-19)
(-0.0149892 2.99657 3.00019e-20)
(-0.0129699 2.94948 -1.20679e-22)
(-0.0172754 3.01191 -5.55138e-19)
(0.0149167 3.02366 4.02047e-19)
(0.00741952 3.03689 -6.37082e-19)
(0.933698 -0.00132098 0)
(0.939266 -0.00327753 0)
(0.845631 -0.00946166 0)
(0.956568 0.0118734 0)
(0.942733 0.0131967 0)
(0.88162 0.00590552 0)
(0.917061 0.0172091 0)
(0.925977 0.0150083 0)
(0.838524 0.00248483 0)
(0.717614 1.40516 4.27626e-20)
(0.750897 1.51389 0)
(0.183057 0.317493 7.05339e-20)
(0.226961 0.668098 5.68348e-19)
(0.262345 0.721145 -3.3169e-19)
(0.264264 0.524816 6.59618e-19)
(0.344644 0.809022 1.58711e-18)
(0.139467 0.229495 3.74629e-19)
(0.289618 0.156063 7.31354e-19)
(0.258125 0.152566 1.90013e-19)
(0.223077 0.0607991 3.60961e-19)
(1.17198 0.461407 5.90497e-20)
(1.18829 0.255225 5.45024e-20)
(0.00978566 2.23574 2.53752e-19)
(0.0407301 1.94443 0)
(0.969373 0.029085 0)
(0.94239 0.0137296 0)
(0.867859 -0.0180167 0)
(0.0113695 3.07445 0)
(0.0197193 2.94403 1.17656e-18)
(0.0164216 2.95637 0)
(0.00633285 2.8506 -1.16735e-18)
(0.00621833 3.09087 2.85466e-19)
(0.00716156 3.08238 0)
(0.783734 1.81566 -1.59948e-19)
(1.24333 2.49181 4.07286e-19)
(0.765761 1.95507 -1.23405e-18)
(0.0198633 2.98097 -6.19927e-19)
(0.0351908 2.99991 0)
(-0.0343458 2.87738 0)
(-0.00421953 2.22055 -1.30968e-20)
(-0.00330251 2.24154 5.49715e-21)
(0.00227631 1.9778 -7.32552e-21)
(0.277831 1.39347 1.02372e-18)
(0.236638 0.545326 -7.02036e-19)
(0.0635849 1.99825 7.62963e-19)
(0.135356 1.88464 -9.10208e-19)
(0.180282 1.50881 9.45656e-20)
(0.00185448 3.11916 -1.77662e-18)
(0.0138124 3.11879 1.92014e-18)
(-0.00902354 2.98116 7.89738e-19)
(-0.00415199 2.97749 -7.45092e-19)
(-0.0210114 2.88092 -8.04332e-19)
(0.00858862 3.10026 -2.12345e-18)
(0.00229368 3.10521 2.09032e-18)
(0.281081 0.694608 0)
(0.248003 0.684023 -1.17996e-18)
(0.0959668 0.225576 5.24e-19)
(0.356482 0.93546 1.11007e-18)
(0.194534 0.275003 -1.71144e-18)
(1.18117 0.173863 6.38266e-20)
(1.18886 0.309703 0)
(1.16955 0.1219 -7.78091e-21)
(0.00104329 2.25259 -1.49642e-21)
(0.00444209 2.24479 0)
(0.0249047 1.9795 0)
(0.340078 1.30241 -3.67795e-19)
(0.37369 1.14717 -7.98714e-19)
(0.208995 0.37604 1.42359e-18)
(1.00588 -0.0108379 0)
(1.00767 -0.00763907 5.0542e-19)
(-0.0186486 1.32542 0)
(-0.032976 1.32264 0)
(1.00222 0.0035102 1.80903e-21)
(1.00366 0.00946178 1.03188e-18)
(-0.0179595 2.54015 1.47978e-20)
(-0.0228259 2.58275 0)
(0.0343957 3.17733 4.10109e-19)
(0.391954 3.48548 0)
(1.17036 0.659718 -5.93395e-20)
(1.01287 0.0131241 -2.13954e-21)
(1.02131 -0.0103216 0)
(1.0017 0.000122204 7.6891e-23)
(0.103927 1.36221 0)
(0.144044 2.57393 0)
(0.0264844 1.30473 0)
(-0.00108523 2.62469 3.0123e-20)
(-0.0222197 2.58115 6.2071e-21)
(0.999365 0.0289146 2.32912e-21)
(1.06278 0.00445027 0)
(1.09685 0.0246312 0)
(-0.026702 1.73503 0)
(-0.0184804 2.58214 0)
(-0.00335253 1.30738 0)
(0.30946 1.47682 -1.71182e-19)
(1.01129 -0.00962573 0)
(1.0094 -0.014921 0)
(1.00236 0.000743581 6.45862e-19)
(1.00547 -0.00480726 -7.59148e-19)
(1.00118 -0.000974383 0)
(-0.0124398 1.46012 0)
(-0.00591127 1.37242 0)
(-0.00450334 1.41785 0)
(-0.0071925 1.29574 0)
(-0.0134976 1.28393 0)
(-0.00543424 1.26504 0)
(1.03492 -0.00613748 0)
(1.0199 0.015628 -8.55927e-22)
(0.820319 1.27107 2.59415e-19)
(1.00223 0.000307463 -6.43491e-19)
(1.00406 0.0052554 7.53261e-19)
(1.00118 0.00207129 0)
(1.01275 0.0103425 6.40282e-19)
(1.00799 0.00830601 -7.75815e-19)
(1.00856 0.0146923 0)
(-0.0229063 2.61012 0)
(-0.0242614 2.58987 -1.84011e-20)
(-0.0221106 2.60381 1.31368e-20)
(1.23487 0.26544 5.84305e-19)
(1.16086 0.0863221 0)
(0.0409363 3.07766 -9.17308e-19)
(0.0646912 2.85571 -6.67482e-20)
(0.138755 3.19218 1.40303e-18)
(0.133921 3.22023 -1.98655e-19)
(0.13296 3.23128 0)
(0.019747 3.1375 2.36666e-19)
(0.0748194 3.15991 9.04641e-19)
(0.0674184 3.18538 -4.46082e-19)
(0.0224385 3.12966 0)
(0.604029 0.277363 0)
(0.527631 0.307658 0)
(1.14104 0.695957 1.36568e-19)
(1.13587 0.817375 -1.22215e-19)
(1.19821 0.582478 0)
(1.22682 0.517539 0)
(1.01607 0.0133565 -1.1935e-18)
(1.01498 0.0142748 1.49814e-18)
(1.02533 -0.00984219 0)
(1.0234 -0.0118755 0)
(1.00642 0.00260217 0)
(1.01042 0.00372385 0)
(1.00459 0.00185288 0)
(1.0098 0.00623161 0)
(1.00782 0.00596092 0)
(1.00451 0.00470217 0)
(0.0930951 1.35999 0)
(0.0880773 1.32725 0)
(0.125974 1.39844 0)
(0.141748 1.40392 0)
(0.145479 2.59885 0)
(0.185556 2.66834 -4.23612e-19)
(0.101058 2.6546 0)
(0.0847801 2.65711 1.97925e-19)
(0.037968 2.67941 -1.50238e-19)
(0.0182102 1.31844 0)
(0.0206173 1.2457 0)
(0.0202479 1.32917 0)
(0.0339809 1.26723 0)
(0.00210449 1.98364 7.2534e-22)
(-0.0210404 2.60901 -1.55635e-20)
(-0.00946321 2.66623 1.60839e-20)
(-0.0191939 2.68453 0)
(-0.0237379 2.61469 -1.12495e-20)
(-0.0237919 2.60947 9.04366e-21)
(0.0110256 1.98219 2.0474e-21)
(-0.00806103 2.39724 2.08815e-20)
(-0.0141786 2.41914 -1.82406e-20)
(1.00952 0.0380128 1.21672e-18)
(1.00509 0.016016 -1.50716e-18)
(1.00146 0.0456714 -1.22535e-18)
(0.976492 0.0262447 1.55544e-18)
(1.064 0.00824645 0)
(1.04919 -0.00834585 0)
(1.09399 0.0346816 0)
(1.07403 0.0126986 0)
(1.07181 0.000413391 0)
(1.13988 0.0824689 0)
(1.11126 0.0441301 0)
(1.11483 0.032018 0)
(-0.023311 2.43133 1.10268e-21)
(-0.0126771 2.0096 0)
(-0.0129491 2.21413 0)
(-0.0201797 2.60291 -9.71818e-21)
(-0.0175729 2.61277 1.39452e-22)
(0.00349362 1.56987 -3.29356e-20)
(-0.00410104 1.49879 3.35385e-20)
(-0.0133526 1.38806 0)
(-0.0168575 1.39491 0)
(-0.0211417 1.38976 0)
(-0.00305761 1.30798 0)
(0.00766527 1.23595 0)
(0.386862 1.49389 2.79324e-19)
(0.429967 1.49413 1.45989e-19)
(0.597942 2.44751 -2.39832e-19)
(0.399502 2.54473 7.05898e-19)
(0.351528 2.05823 7.05284e-20)
(1.02104 -0.00813745 0)
(1.01549 -0.00975949 0)
(1.01491 -0.0155062 0)
(1.0074 -0.00110025 0)
(1.00493 -0.000920497 0)
(1.00778 -0.00470423 0)
(1.00927 -0.003633 0)
(1.01421 -0.00440106 0)
(1.02065 0.0162668 1.169e-18)
(1.01775 0.0155822 -1.49571e-18)
(1.02098 0.0182663 -1.178e-18)
(1.01867 0.0166502 1.4745e-18)
(0.783711 1.32193 0)
(0.721047 1.3711 2.46738e-19)
(0.89445 1.22238 9.68105e-20)
(0.940067 1.16691 -1.28798e-19)
(1.15551 2.60158 2.72952e-19)
(0.775489 0.120463 5.98698e-19)
(1.16285 0.107953 0)
(1.21097 0.193009 -4.69953e-19)
(1.19771 0.154541 -1.99591e-20)
(1.00596 0.155309 0)
(0.130358 2.95911 5.33995e-19)
(0.107068 2.86505 -1.16284e-18)
(0.0164693 2.37482 7.78928e-19)
(0.0923469 -0.119077 -3.37839e-19)
(0.33686 3.41527 -2.1544e-19)
(0.191439 3.30943 0)
(0.235238 3.35025 2.80578e-19)
(0.240824 3.0316 -1.78229e-18)
(0.334592 3.1901 0)
(0.00701155 3.12092 4.61768e-20)
(0.0163622 3.12983 -5.44547e-19)
(0.0151364 3.12589 8.01477e-19)
(0.035233 3.13978 0)
(0.0335767 3.15036 0)
(1.21169 2.59956 0)
(0.542591 0.811865 -5.27702e-19)
(1.06271 0.990931 -6.12469e-21)
(0.996792 1.07656 0)
(0.850521 0.973189 -1.10176e-19)
(1.08678 0.892141 2.8197e-20)
(0.328566 0.350254 -8.72457e-19)
(0.666823 0.3182 -1.79733e-20)
(0.592317 0.220887 4.12409e-19)
(0.553865 0.343925 3.04472e-20)
(0.4494 0.292457 -1.22362e-18)
(0.629849 0.322491 0)
(0.703635 0.419809 7.02922e-19)
(0.710518 0.421663 0)
(0.590743 0.340807 0)
(0.533192 0.250704 0)
(0.816821 0.619955 4.14378e-19)
(1.23593 0.287825 -4.92372e-19)
(1.23544 0.426296 0)
(1.24389 0.366569 0)
(0.704298 0.194261 6.19743e-19)
(0.865796 0.548668 -3.81079e-19)
(0.763623 0.518314 6.76523e-19)
(0.959255 0.44009 -7.4247e-19)
(1.01934 0.0148959 8.0205e-19)
(1.01764 0.0143181 -8.07177e-19)
(1.01591 0.0154197 0)
(1.03638 -0.00567282 0)
(1.02984 -0.00842095 -7.55967e-19)
(1.02788 -0.0119972 7.48453e-19)
(1.02489 0.0103555 0)
(1.02343 0.0140673 0)
(1.01142 0.00413146 0)
(1.01422 0.00911731 0)
(1.01514 0.00412275 0)
(1.01426 0.00286632 0)
(0.0622869 1.34388 0)
(0.0671806 1.2962 0)
(0.143515 1.38004 1.31196e-20)
(0.279859 1.47445 9.17148e-20)
(0.171784 1.44553 1.93282e-19)
(0.204824 1.45082 -3.14782e-19)
(0.167727 1.40532 0)
(0.135181 1.59995 -6.94043e-20)
(0.117721 1.57634 0)
(0.348944 2.00913 -1.02547e-19)
(0.343812 2.34358 6.13762e-19)
(0.192512 1.46091 6.04929e-20)
(0.265396 1.3939 2.48116e-20)
(0.201349 1.38353 -2.01102e-20)
(0.277937 1.33799 -9.92572e-20)
(0.243847 1.58183 0)
(0.267211 1.61963 1.09345e-19)
(0.030513 2.26426 -2.8936e-20)
(0.0430035 2.66894 0)
(0.0659416 2.40106 1.33526e-19)
(0.0623647 2.42189 0)
(0.0690122 2.67079 -2.19327e-19)
(0.0485275 2.69891 0)
(0.0265515 1.42471 2.93036e-20)
(0.0336551 1.4766 0)
(0.028883 1.39284 0)
(0.0238478 1.39635 -3.30646e-20)
(-0.000458376 2.65253 -1.72728e-20)
(0.0289491 2.698 1.68824e-19)
(0.00956197 2.72254 1.19318e-21)
(0.00221196 1.83313 1.52274e-22)
(-0.00359715 1.68523 -1.9571e-21)
(0.015196 1.2983 0)
(0.0198835 1.22136 0)
(0.0461895 1.58483 -2.59237e-20)
(0.0292405 1.4585 -3.1494e-20)
(0.0360779 1.5233 3.96586e-20)
(0.0390811 1.60894 0)
(-0.02919 2.27007 9.06293e-20)
(-0.0303379 2.54958 -3.79349e-20)
(-0.0164081 2.44695 3.25546e-21)
(-0.00408159 1.84974 -1.84516e-22)
(-0.0255876 2.49941 7.58676e-22)
(-0.0210928 2.44281 5.3146e-21)
(1.01882 0.021149 -8.00291e-19)
(1.01455 0.0272514 8.02329e-19)
(1.0137 0.01677 0)
(1.01155 0.0718346 1.12426e-18)
(0.990452 0.0594543 -1.2662e-18)
(0.948133 0.0508058 1.41449e-18)
(1.01448 0.112027 -1.50008e-19)
(1.04277 -0.0056797 0)
(1.05111 -0.00134437 7.20954e-19)
(1.03906 -0.00983084 -7.22468e-19)
(1.07141 0.0425343 -4.28746e-20)
(1.06467 0.0238132 3.69719e-19)
(1.06326 0.0563034 0)
(1.0536 0.0500434 -1.3297e-19)
(1.03258 0.0430648 0)
(1.02533 0.0394105 0)
(1.02782 0.0134195 0)
(1.02391 0.0160844 0)
(1.03987 0.0324121 2.73949e-19)
(1.03916 0.0275244 -6.0571e-19)
(1.05106 0.0342787 -2.90255e-19)
(1.04819 0.0342549 -3.19793e-19)
(1.07134 0.0648805 6.23499e-19)
(1.09655 0.0524375 0)
(1.10527 0.0964525 0)
(-0.0246872 2.27516 5.12436e-20)
(-0.0227516 2.01712 6.27711e-22)
(-0.0191696 2.02387 0)
(-0.0265968 2.44465 -5.10168e-20)
(-0.0208844 2.40037 -1.67519e-21)
(-0.0313676 2.47243 5.27291e-21)
(-0.0210016 2.62195 -8.34924e-21)
(-0.0230544 2.56352 -1.7602e-22)
(-0.0215383 2.51511 -1.96968e-21)
(-0.0158882 2.61576 8.46016e-21)
(-0.0210091 2.61775 -8.77316e-21)
(-0.00450504 1.48958 -3.941e-22)
(0.00438186 1.61818 -3.00716e-20)
(0.371306 1.44414 -1.18341e-19)
(0.371196 1.3819 3.25331e-20)
(0.661461 1.42136 -2.38674e-19)
(0.528908 1.48714 -1.43415e-19)
(0.58768 1.4534 0)
(0.593741 2.42433 2.06613e-19)
(0.661844 2.41908 3.37228e-19)
(0.41162 2.51463 8.74633e-20)
(0.403144 2.53915 -6.08116e-19)
(0.511153 2.48071 6.11245e-19)
(0.553568 2.46129 0)
(0.488742 2.51894 -5.58837e-19)
(0.248734 2.59199 1.14355e-18)
(0.355047 2.56394 -7.80206e-20)
(0.284374 2.65364 -1.58548e-18)
(0.947849 2.37644 7.25209e-19)
(0.83828 2.38181 0)
(1.01105 0.000499176 2.62002e-20)
(1.01533 -0.00540731 -2.12567e-20)
(1.01766 -0.00352588 -3.88242e-19)
(1.01501 -0.000881077 3.90269e-19)
(1.01243 0.00120795 0)
(0.647255 1.28729 0)
(0.669419 1.18286 0)
(0.782232 1.10123 0)
(0.662028 1.14591 0)
(1.18542 2.61522 5.97663e-20)
(1.07364 2.36237 0)
(0.835461 2.16919 3.79975e-21)
(0.824769 2.43433 0)
(0.922409 2.52739 -4.19812e-19)
(0.957695 2.48349 2.79283e-19)
(0.802877 0.178795 0)
(0.751862 0.153904 1.62398e-19)
(0.912666 0.150027 9.45231e-19)
(0.827249 0.152819 -3.54919e-19)
(0.785137 0.0883212 -1.09144e-18)
(1.08123 0.238741 -8.92251e-19)
(0.998645 0.299853 -1.67284e-20)
(0.929292 0.302906 8.61447e-19)
(1.00778 0.231022 7.20623e-19)
(0.950119 0.195873 -1.25123e-18)
(0.913472 0.200171 1.56429e-19)
(0.952997 0.264689 -3.32096e-19)
(0.928677 0.226559 0)
(0.994636 0.192201 6.16921e-19)
(1.04693 0.192254 0)
(1.04446 0.22019 0)
(1.10681 0.120018 2.8959e-19)
(1.07087 0.179262 -1.48422e-20)
(1.07505 0.238946 -1.57573e-19)
(1.10147 0.205248 0)
(1.02321 0.0471757 6.17861e-19)
(1.03968 0.0598861 7.70344e-19)
(1.03405 0.0456835 -6.12565e-19)
(1.04309 0.0669719 -5.1623e-19)
(1.02043 0.0750753 -7.91229e-19)
(0.987097 0.160911 0)
(0.995397 0.106107 0)
(0.96455 0.0697622 -5.02623e-19)
(0.90821 0.0963944 1.98569e-19)
(1.03954 0.106731 7.13981e-19)
(1.06917 0.12344 -8.35256e-19)
(1.07507 0.155972 7.45729e-19)
(1.03017 0.147344 0)
(1.07487 0.111281 0)
(1.05486 0.0921649 -3.42137e-19)
(1.04357 0.0965045 -5.83643e-19)
(0.579686 1.06006 1.38324e-19)
(0.606422 1.3879 -3.97739e-20)
(1.1553 2.73116 -2.24473e-19)
(1.2211 3.07327 1.14439e-21)
(1.24724 2.7141 -1.18804e-19)
(1.276 2.69758 -3.46782e-20)
(1.2037 2.33797 -1.08871e-20)
(1.20873 2.97715 -9.05455e-20)
(1.22874 2.94255 2.3009e-19)
(1.21136 3.22631 -1.44448e-19)
(1.37131 2.9575 1.99637e-19)
(1.36038 2.87564 0)
(0.557292 0.820061 -4.99708e-20)
(0.11705 1.23317 5.6967e-19)
(0.548636 0.382159 5.68002e-19)
(0.387187 0.129165 6.20372e-19)
(0.488997 0.33212 6.9227e-19)
(0.541523 0.443902 -1.1149e-18)
(0.543882 0.441241 9.118e-19)
(0.472902 0.33993 -3.46541e-19)
(0.363139 0.270003 7.87029e-19)
(0.721664 0.264839 -3.57405e-19)
(0.683098 0.288123 0)
(0.639359 0.206932 7.4599e-21)
(0.738135 0.506085 3.70024e-19)
(0.712392 0.477076 -1.34712e-18)
(0.616698 0.451112 1.24717e-20)
(0.619026 0.44114 0)
(0.686225 0.720279 3.97141e-19)
(0.846882 0.777276 3.96855e-19)
(0.771644 0.860142 -4.64353e-19)
(0.894564 0.815632 -1.55899e-19)
(0.926612 0.860017 -3.77403e-20)
(0.933732 0.860329 3.86451e-20)
(0.859502 0.655723 -6.86458e-19)
(0.940543 0.709888 1.448e-19)
(1.00113 0.726131 0)
(0.991871 0.70255 -1.96101e-19)
(1.02797 0.339441 2.13519e-19)
(1.14723 0.303614 2.89434e-19)
(1.06873 0.275853 3.64814e-19)
(1.01651 0.371771 -4.32476e-19)
(1.06442 0.43486 0)
(1.12022 0.418365 0)
(0.92292 0.373976 2.80549e-21)
(0.841657 0.308873 0)
(0.884721 0.306333 4.0632e-19)
(0.911382 0.31057 -7.02902e-21)
(0.952706 0.442978 2.06852e-18)
(0.911922 0.498872 5.33541e-19)
(0.917576 0.465597 -5.68369e-19)
(0.836501 0.450425 6.09232e-19)
(0.81904 0.44303 3.65663e-19)
(0.788045 0.425373 -3.59649e-19)
(1.02735 -0.000283482 6.46665e-19)
(1.01999 2.55205e-05 0)
(1.01852 0.000951623 4.21651e-19)
(1.0217 -0.00159797 -9.55148e-19)
(1.02235 0.00443695 4.64014e-19)
(1.02033 0.011433 -9.71688e-19)
(1.02125 0.0108031 0)
(1.02051 0.0110254 -2.0252e-19)
(1.01595 0.00779867 5.08068e-19)
(1.01663 0.0105749 -2.53511e-19)
(1.01733 0.00992301 1.86702e-19)
(0.028392 1.31955 0)
(0.0343531 1.36559 0)
(0.0427891 1.32066 0)
(0.0474649 1.27439 0)
(0.070048 1.3897 -5.12743e-20)
(0.0767509 1.35871 2.24384e-20)
(0.114827 1.53278 -1.16677e-20)
(0.09701 1.37824 -8.10746e-21)
(0.0340534 1.46354 1.29013e-20)
(0.0379576 1.45676 -9.78194e-21)
(0.061967 1.37442 -8.57783e-21)
(0.0540261 1.37551 4.37153e-20)
(0.0478546 1.3508 6.36068e-21)
(0.0386982 1.37381 3.05115e-21)
(0.107404 2.37085 -1.47361e-19)
(0.0962802 2.41825 0)
(0.171431 2.04581 1.06422e-19)
(0.112401 1.71055 3.76457e-20)
(0.234021 2.04023 -8.86682e-20)
(0.202278 2.43145 0)
(0.263971 2.38132 -6.01273e-19)
(0.304172 2.37894 4.25177e-19)
(0.231112 2.00138 -2.45578e-19)
(0.155678 2.16047 1.67846e-19)
(0.142497 2.26832 0)
(0.0174572 1.87868 4.92171e-21)
(-0.00108939 2.39506 -3.71989e-20)
(0.0051221 2.15075 0)
(0.0106872 2.45757 -1.35497e-20)
(0.0273318 2.30155 9.19928e-21)
(0.0157406 1.40606 -6.0583e-21)
(0.0143634 1.39084 1.02826e-19)
(0.0136757 1.39604 -3.39603e-20)
(0.0205328 1.39728 -2.86454e-20)
(0.0252817 1.42851 0)
(0.00980233 1.37772 0)
(0.000500803 1.29203 -3.90607e-20)
(0.00722441 1.36908 1.09521e-20)
(0.00950922 1.36926 0)
(0.00790045 1.28586 -2.89704e-20)
(0.0159222 1.21144 5.9192e-20)
(1.04069 0.0118825 0)
(1.04684 0.00813843 -6.76444e-20)
(1.03859 0.0219524 -4.88197e-19)
(1.04826 0.0208055 0)
(1.05229 0.0206925 0)
(1.03628 0.0120735 -6.79523e-21)
(1.03096 0.0118984 7.84682e-19)
(1.0317 0.0168251 9.51354e-19)
(1.02551 0.0207084 0)
(1.02235 0.0210739 0)
(1.03506 0.0257093 4.87052e-19)
(1.02558 0.0270978 0)
(1.02365 0.0272064 0)
(-0.0185927 2.02202 0)
(0.00100599 1.64818 -4.31711e-21)
(-0.00466939 1.75726 -2.9294e-20)
(0.00117097 1.38034 0)
(-0.00704368 1.54784 -1.5409e-20)
(-0.00739311 1.45775 1.00908e-20)
(-0.00163261 1.39368 0)
(0.39144 1.65199 0)
(0.374679 1.3098 -6.53071e-20)
(0.303803 1.34532 0)
(0.428436 1.30835 2.30987e-22)
(0.476683 1.46567 0)
(0.457596 1.41266 2.76294e-20)
(1.03671 2.67765 -1.53292e-20)
(0.968483 2.40528 -9.11535e-19)
(0.921384 2.19295 1.02373e-18)
(0.852229 2.37365 2.41639e-19)
(0.848135 2.48782 0)
(0.918026 2.48386 0)
(0.93118 2.37006 0)
(0.910076 2.35915 -9.42411e-19)
(0.688232 2.45262 -3.92518e-19)
(0.800985 2.44219 -9.72582e-20)
(0.811384 2.4162 7.39354e-20)
(0.695941 2.39216 0)
(0.800927 2.38723 0)
(0.759212 2.40071 -3.68035e-19)
(0.768387 2.47799 0)
(0.627453 1.09368 0)
(0.481023 0.905227 -5.05448e-19)
(0.562869 0.946281 -3.20371e-20)
(0.520085 1.0384 0)
(0.520279 0.982971 7.57587e-19)
(0.792385 0.88303 -1.302e-19)
(0.805017 1.01959 0)
(0.779882 0.986306 1.86088e-19)
(0.662152 1.03265 0)
(0.663685 0.935804 0)
(1.16418 2.75394 -2.28173e-19)
(1.14165 2.81727 -9.57628e-20)
(0.930008 2.33287 9.80916e-20)
(0.897907 2.31223 -8.26584e-20)
(1.12967 2.72697 0)
(1.08347 2.69652 9.9451e-20)
(1.08969 2.48046 -3.12976e-19)
(0.984315 2.23293 -3.04664e-20)
(0.494726 1.33643 0)
(0.509641 1.06441 -1.2194e-19)
(0.576221 1.16806 0)
(0.854951 0.245185 0)
(0.768738 0.194659 0)
(0.692476 0.15557 0)
(0.847031 0.246624 -6.39549e-19)
(0.741261 0.237422 3.72862e-19)
(0.924565 0.0848231 -4.0996e-19)
(0.934231 0.129408 0)
(0.918638 0.138686 1.76782e-19)
(0.854183 0.11678 7.07971e-19)
(0.818931 0.0768347 -4.43703e-19)
(1.15705 3.35137 -7.21636e-19)
(1.20574 3.27083 0)
(1.15487 3.38011 -1.49253e-18)
(0.643193 3.54141 1.26694e-18)
(0.865648 3.10994 7.51128e-20)
(0.51989 0.812035 6.02088e-19)
(0.425776 0.808578 0)
(0.31572 0.415954 -1.49415e-19)
(0.466059 0.657085 8.56415e-19)
(0.551493 0.384686 -1.9918e-19)
(0.512418 0.4741 2.32664e-19)
(0.670047 0.516144 4.99124e-19)
(0.706626 0.5504 0)
(0.657318 0.584226 0)
(0.619722 0.532251 0)
(1.00247 0.612231 9.02745e-20)
(0.916808 0.548912 -5.19345e-19)
(0.942201 0.581465 3.91758e-19)
(0.974585 0.520219 -4.01428e-19)
(1.08186 0.492008 0)
(1.09023 0.581595 -9.8218e-20)
(0.857736 0.403665 -8.35803e-19)
(0.858085 0.392712 -1.03533e-18)
(0.796006 0.38823 6.51528e-19)
(0.802129 0.363739 -6.63489e-19)
(0.846349 0.327108 -5.22695e-19)
(0.79516 0.3274 6.39965e-19)
(1.02666 0.00598008 -4.93206e-19)
(1.02637 0.00620184 1.00306e-18)
(1.02941 0.000148273 6.2667e-19)
(1.03361 0.0010532 -7.54738e-19)
(1.03375 0.00912916 0)
(1.03004 0.00981974 -1.22868e-18)
(0.0629749 1.644 1.97647e-20)
(0.0463447 1.58443 0)
(0.0868352 1.6949 1.16602e-19)
(0.0974145 1.67708 -1.02065e-19)
(0.0893665 1.5418 2.1871e-20)
(0.0883563 1.53344 0)
(0.0102997 1.68137 0)
(-0.00345818 1.4867 5.57205e-21)
(-0.00297258 1.43285 -5.01057e-21)
(-0.00749196 1.54466 5.27201e-21)
(0.00116578 1.88244 8.32422e-21)
(-0.0108362 1.93526 -6.14148e-22)
(0.498509 1.3623 -2.72094e-19)
(0.491947 1.36413 2.98887e-19)
(0.455207 1.30277 -2.79441e-20)
(0.438557 1.28937 7.62468e-21)
(0.639077 1.30602 0)
(0.55542 1.39535 1.07225e-19)
(0.570617 1.40143 -1.04393e-19)
(0.468756 1.29052 2.71815e-20)
(0.522435 1.24181 0)
(0.57433 1.20409 0)
(0.655387 2.41234 5.76613e-19)
(0.670451 2.4535 1.25754e-18)
(0.714971 2.46424 -8.66322e-19)
(0.611262 2.43867 -2.01544e-19)
(0.561159 2.52882 2.82605e-19)
(0.510071 2.50338 -7.53654e-19)
(0.97842 2.37645 -5.72791e-19)
(1.01303 2.38874 0)
(0.925985 2.17075 -6.59521e-19)
(1.0543 2.67561 0)
(1.05658 2.66223 0)
(0.60219 2.26155 -1.19796e-19)
(1.03814 3.15583 1.34485e-19)
(0.909258 3.02621 -3.88789e-20)
(0.268962 0.864304 0)
(0.298443 0.711926 -3.16185e-19)
(0.466258 0.670215 -3.17094e-19)
(0.38174 2.00648 0)
(0.463204 2.78033 -5.22858e-20)
(0.417678 2.54324 0)
(0.707328 0.670758 -8.39835e-19)
(0.78924 0.681582 1.13083e-18)
(0.81159 0.625007 -1.11764e-18)
(0.687066 0.634301 -1.08063e-19)
(0.741855 0.590698 -4.44179e-19)
(1.00147 2.75604 -1.02275e-19)
(1.04157 2.81602 -1.60469e-19)
(0.634121 2.12881 6.8208e-19)
(0.587304 1.69624 -4.86348e-19)
(0.69535 1.8934 -4.01965e-19)
(0.987712 2.43961 -1.12928e-19)
(0.994274 2.43275 2.92404e-19)
(0.652832 1.82875 2.79126e-20)
(0.44352 1.31618 1.42704e-19)
)
;

boundaryField
{
    wall-4
    {
        type            noSlip;
    }
    velocity-inlet-5
    {
        type            fixedValue;
        value           uniform (1 0 0);
    }
    velocity-inlet-6
    {
        type            fixedValue;
        value           uniform (0 3 0);
    }
    pressure-outlet-7
    {
        type            zeroGradient;
    }
    wall-8
    {
        type            noSlip;
    }
    frontAndBackPlanes
    {
        type            empty;
    }
}


// ************************************************************************* //
