/*--------------------------------*- C++ -*----------------------------------*\
  =========                 |
  \\      /  F ield         | OpenFOAM: The Open Source CFD Toolbox
   \\    /   O peration     | Website:  https://openfoam.org
    \\  /    A nd           | Version:  13
     \\/     M anipulation  |
\*---------------------------------------------------------------------------*/
FoamFile
{
    format      ascii;
    class       volScalarField;
    location    "47";
    object      p;
}
// * * * * * * * * * * * * * * * * * * * * * * * * * * * * * * * * * * * * * //

dimensions      [0 2 -2 0 0 0 0];

internalField   nonuniform List<scalar> 
918
(
0.563874
1.20884
0.0029066
0.563257
-0.0084269
1.17584
-0.492896
0.707916
0.544036
-0.0905269
-0.0220572
0.54084
1.03663
0.802622
-1.11527
-0.0022678
0.663499
-0.372019
0.543099
-0.0364654
0.740681
0.550609
0.553638
0.544222
0.610122
0.778923
0.917718
0.0194686
0.00733508
0.00336393
-0.0135
-0.0344416
-0.0269432
1.05949
1.11057
1.13326
0.512125
0.340842
-0.360029
-0.427382
-0.41979
-0.536497
0.702369
0.701342
-0.18445
0.71075
0.716339
0.531165
0.543402
0.544311
0.545368
0.54433
0.545722
0.419512
-0.0930925
-0.125703
-0.0697295
-0.0614751
0.0734759
-0.0227992
-0.0252273
-0.0218012
-0.0204065
0.46215
0.536124
0.533188
0.546069
0.555237
1.14839
1.12032
1.14645
1.06015
1.07661
1.01462
0.987165
0.823052
0.844917
0.787943
0.773715
-1.55137
-2.51046
-0.521283
-0.268607
-0.0148183
0.00356482
0.0119446
0.657648
0.657463
0.665276
0.673327
1.09143
-0.370855
-0.473518
0.54323
0.54203
0.550398
0.551094
0.547109
0.546202
-0.0320173
-0.0289808
-0.0327721
-0.0353873
-0.0333113
0.729666
0.727696
0.544758
0.541772
0.561958
0.58289
0.574732
0.289482
0.613306
0.626805
0.60693
0.769165
0.764256
0.772742
0.891458
0.85484
0.95465
0.977978
0.0168741
0.000671014
-0.0116158
-0.0141406
-0.0142421
0.508017
0.500659
0.52737
0.515508
0.517974
0.256664
0.121888
0.426521
0.451729
-0.275433
-0.336409
-0.420399
-0.446847
-0.558191
0.614315
0.693257
0.690865
-0.199824
-0.12629
-0.25628
-0.0529346
-0.113935
0.521509
0.528462
0.523494
0.538961
0.533446
0.535401
0.547658
0.544737
0.546292
0.481965
0.605626
0.346092
0.31185
-0.232366
-0.143578
-0.234218
-0.0490608
-0.0439716
0.0872885
0.112624
0.0603797
0.0489298
-0.0375199
-0.0296762
-0.0338924
-0.0192285
-0.0235817
0.455048
0.444095
0.47468
0.482107
0.525711
0.526954
0.530498
0.52885
0.938022
0.960487
0.967867
0.941529
-3.50839
-6.30566
0.0590497
0.196907
-0.00491343
-0.010473
0.00474598
-0.00903707
-0.00208556
-0.00388103
0.010511
0.00727721
0.0122411
0.0134049
0.649082
0.64918
1.01092
1.01341
0.990299
0.941505
0.531364
0.533463
0.538997
0.534862
-0.02311
-0.0265854
-0.0249129
0.718219
0.724471
0.722488
0.251839
0.163907
0.339546
0.36798
0.641662
0.630176
0.640061
0.668905
0.704669
0.985424
1.00357
1.00185
1.01008
1.05407
1.07043
1.03582
0.487806
0.497602
0.492654
0.530539
0.528272
0.529195
0.524793
0.526234
0.524079
-0.0297081
-0.41254
0.501205
0.519482
0.501075
0.506331
0.693665
0.770776
0.674932
0.684007
0.681736
0.0146098
-0.0431287
0.26808
0.234473
0.39572
0.431486
0.410787
0.909281
0.869316
0.919487
0.89294
0.854067
0.880708
-0.364188
-1.87312
-0.987164
0.549423
0.362476
0.450511
0.0307057
0.012251
0.0183827
1.00645
1.08268
0.661458
0.832104
0.837825
0.739358
0.769852
0.828696
0.753684
0.789202
0.823645
0.802611
0.571314
0.513942
0.525956
0.840304
0.896619
0.135615
0.0771598
0.0329837
0.131367
0.187632
0.162452
1.04435
0.952059
1.02367
0.541524
0.54223
0.00195928
-0.00665584
0.546419
0.546469
-0.0122802
0.00137326
0.433008
-0.824493
0.118716
0.534939
0.525036
0.542049
-0.0731683
0.373534
-0.0227268
0.0697415
0.0113643
0.538441
0.472987
0.432889
0.0044204
-0.0109402
-0.0305849
-0.202468
0.539195
0.537502
0.541519
0.542484
0.543151
-0.0125987
-0.00666096
-0.00614158
-0.0306377
-0.0269829
-0.0356021
0.506341
0.524519
-0.157643
0.541661
0.543785
0.54361
0.536822
0.542474
0.540709
-0.00400957
-0.0108927
-0.0136544
0.23458
0.361809
0.675964
0.766072
0.646528
0.420188
0.182748
0.577389
0.641569
0.546056
0.701121
0.688866
0.705061
0.18406
0.0342773
0.192325
0.134273
0.532797
0.531484
0.523292
0.520314
0.536917
0.535023
0.539584
0.536576
0.539527
0.54092
-0.0314228
-0.0555312
-0.0689122
-0.134914
0.329182
0.58996
0.270218
0.300498
0.161358
-0.0187463
-0.0191431
-0.0223833
-0.0290685
0.0230503
-0.00370937
0.0639463
0.0639147
0.0349502
0.00819455
0.0148357
0.00204301
0.00674511
0.531628
0.530025
0.536392
0.545412
0.482444
0.486186
0.451686
0.472081
0.457541
0.397613
0.432133
0.407601
-0.00126395
0.00823005
-6.07343e-05
-0.00566622
0.000348617
-0.0205598
-0.0176056
-0.0169455
-0.0125596
-0.0175118
-0.0247463
-0.0259581
-0.162102
-0.276614
0.997182
0.926467
0.13834
0.528375
0.534805
0.531583
0.536433
0.539557
0.540389
0.538123
0.534683
0.524968
0.526611
0.52325
0.523971
-0.091438
-0.229115
-0.0588298
-0.130415
0.150855
0.632697
0.37363
0.311145
0.305801
0.53203
0.938724
0.728065
0.707924
0.725134
-0.331127
0.0633372
-0.265216
0.353991
0.176906
0.675998
0.724095
0.744462
0.693254
0.646298
-0.0991954
0.564275
-0.0549442
-0.00534255
0.194302
0.0760832
0.707461
0.672672
0.67672
0.694684
0.71243
0.67901
0.662173
0.656723
0.69047
0.69414
0.504574
0.265802
0.218765
0.180005
0.655997
0.541382
0.596236
0.509541
0.527874
0.530568
0.529174
0.511097
0.518591
0.514182
0.520419
0.523786
0.532632
0.533036
0.528381
0.530541
-0.035868
-0.0387934
-0.0138918
-0.123754
-0.113942
-0.174856
-0.0502176
0.0881744
0.0511886
0.246039
0.351874
0.0642282
-0.0484161
-0.0201293
0.0168987
0.190331
0.216041
0.0934262
0.180889
0.169571
0.153335
0.254457
0.259388
-0.004426
-0.00877081
-0.0112734
-0.0136028
0.0405424
0.11083
0.12098
0.0162538
0.0110852
-0.0141635
-0.014864
-0.00137288
-0.00642945
-0.00282971
0.0324712
-0.0407386
-0.00734369
0.00809653
0.018148
0.0150051
0.0101337
0.524097
0.526329
0.526003
0.533614
0.551644
0.56779
0.52471
0.504345
0.495264
0.498252
0.471654
0.481813
0.477603
0.491044
0.51187
0.521061
0.51858
0.521287
0.504017
0.505686
0.492524
0.496142
0.471506
0.452629
0.441075
-0.0324047
0.00474127
-0.00101992
-0.0303407
-0.00116091
-0.0135554
0.00728614
0.0235765
0.00975615
0.00617823
-0.00273793
-0.0142175
-0.0122383
-0.0652397
0.0188701
-0.173867
-0.210379
-0.279997
0.899257
1.02171
0.822173
0.596251
0.612071
0.85413
0.940308
0.559
0.746534
0.770631
0.58923
0.855273
0.533189
0.5328
0.530399
0.529877
0.531099
-0.000420755
0.102484
0.107056
0.165615
0.282478
0.395638
0.319365
0.194819
0.326951
0.330562
0.625373
0.63862
0.593891
0.617259
0.617756
0.437005
0.512869
0.565761
0.522379
0.572843
0.593774
0.550642
0.582422
0.53245
0.487623
0.484095
0.433674
0.454193
0.430968
0.413072
0.523186
0.500585
0.511096
0.50136
0.520926
0.545193
0.541973
0.574403
0.585414
0.505406
0.461741
0.471392
0.501594
0.462001
0.476773
0.4929
0.23505
0.135292
0.219452
-0.0690162
0.00765573
-0.00684631
-0.054214
-0.00644585
0.278837
-0.415886
-0.391248
-1.0221
0.505933
0.969606
0.658144
0.631502
0.7094
0.69058
0.695661
0.714865
0.719085
0.646816
0.663568
0.666356
0.628295
0.651675
0.673384
0.670362
0.534226
0.400233
0.395646
0.348003
0.219115
0.256346
0.457138
0.379213
0.304247
0.305542
0.471044
0.357822
0.427016
0.463699
0.395072
0.348861
0.553412
0.618369
0.609073
0.583578
0.500835
0.515031
0.53922
0.574872
0.601169
0.632418
0.520039
0.525866
0.527117
0.524624
0.521858
0.524842
0.52501
0.527541
0.528284
0.531236
0.530256
-0.023731
-0.0124519
-0.0259136
-0.0330474
-0.00278619
-0.00713425
0.0367135
0.0230547
0.00821803
0.01456
-0.0122553
-0.0165495
-0.0113037
-0.0021236
0.114644
0.127516
0.111191
0.0718527
0.259511
0.390258
0.462015
0.339129
0.232233
0.256104
0.277976
0.0081677
0.0350062
0.0221033
0.0610874
0.0527503
-0.0120624
-0.0163622
-0.0154609
-0.00826559
0.00288751
-0.0168719
-0.0221978
-0.0122356
-0.0168846
-0.0185867
-0.0239514
0.506559
0.500116
0.501681
0.495676
0.49441
0.508479
0.512709
0.514641
0.520017
0.522168
0.512504
0.518075
0.521757
0.00602821
-0.0194271
-0.0226847
-0.00813174
-0.0143317
-0.0136434
-0.0130468
0.127546
0.0563671
0.0608333
0.0154119
-0.113388
-0.0556952
0.494102
0.493458
0.487826
0.723607
0.573658
0.493515
0.590268
0.695436
0.278414
0.477205
0.310458
0.89373
0.787619
0.93413
0.547623
0.247978
0.407234
0.456381
0.264702
0.337496
0.336001
0.222997
0.255363
0.289569
0.391462
0.26975
0.245105
0.00237629
0.190926
0.306462
0.287587
0.415393
0.477717
0.266677
0.188153
0.14236
0.614911
0.632767
0.648316
0.621997
0.643261
0.58377
0.571966
0.590208
0.600106
0.595722
-0.749289
-0.456051
-1.40126
-0.7179
-0.265671
0.537076
0.502497
0.777434
0.657496
0.714087
0.698093
0.654984
0.622059
0.639384
0.668175
0.361776
0.473326
0.448081
0.453101
0.354209
0.285684
0.587374
0.581512
0.616508
0.639927
0.608757
0.640133
0.517806
0.517477
0.517052
0.513356
0.511629
0.513918
0.0756294
0.0449809
0.0794036
0.0604847
0.0379274
0.0264994
0.0129733
0.00304683
-0.00531749
-0.00653855
0.00889297
0.0139122
0.171679
0.112013
0.0333313
0.0628773
0.00310269
-0.0644191
-0.0821182
0.0189114
0.113293
0.103728
0.409676
0.661511
0.481568
0.649342
0.489975
0.545693
0.477634
0.469987
0.496738
0.384888
0.464284
0.242757
-0.264354
-0.172433
0.793944
0.809386
0.592058
0.410671
0.179432
0.363742
0.556281
0.489356
0.527055
0.596378
0.586218
0.0238739
0.0866708
0.358661
0.586008
0.241485
0.233116
0.227164
0.405844
0.327069
)
;

boundaryField
{
    wall-4
    {
        type            zeroGradient;
    }
    velocity-inlet-5
    {
        type            zeroGradient;
    }
    velocity-inlet-6
    {
        type            zeroGradient;
    }
    pressure-outlet-7
    {
        type            fixedValue;
        value           uniform 0;
    }
    wall-8
    {
        type            zeroGradient;
    }
    frontAndBackPlanes
    {
        type            empty;
    }
}


// ************************************************************************* //
