/*--------------------------------*- C++ -*----------------------------------*\
  =========                 |
  \\      /  F ield         | OpenFOAM: The Open Source CFD Toolbox
   \\    /   O peration     | Website:  https://openfoam.org
    \\  /    A nd           | Version:  13
     \\/     M anipulation  |
\*---------------------------------------------------------------------------*/
FoamFile
{
    format      ascii;
    class       volVectorField;
    location    "47";
    object      U;
}
// * * * * * * * * * * * * * * * * * * * * * * * * * * * * * * * * * * * * * //

dimensions      [0 1 -1 0 0 0 0];

internalField   nonuniform List<vector> 
918
(
(0.985163 -0.000503521 0)
(0.00501056 2.96625 0)
(0.00872061 0.861789 0)
(0.979703 0.00214768 0)
(-0.0143726 2.05629 3.09379e-20)
(-0.00704428 2.94879 -2.51829e-18)
(0.813733 1.15138 4.34152e-19)
(0.229706 0.112469 -1.57361e-20)
(0.999907 -0.000283088 0)
(0.0621331 0.79066 0)
(0.0135754 0.597355 0)
(0.734687 -0.0171097 0)
(0.0111344 2.93031 0)
(0.00281443 2.79483 0)
(-0.0175261 3.15347 7.70151e-19)
(-0.0182071 1.908 -5.90079e-22)
(0.300079 0.0334351 1.037e-18)
(0.188157 1.16199 3.06698e-19)
(0.962757 0.00501727 0)
(-0.0120212 0.531591 0)
(0.0361719 0.150676 -7.44054e-19)
(1.00198 -0.00497908 0)
(1.00022 -0.00979016 0)
(0.975729 -0.00644014 0)
(0.583154 -0.0382711 0)
(0.0154739 2.64011 0)
(-0.0148414 2.90999 9.29891e-19)
(0.00993207 0.925906 0)
(-0.00416487 1.16857 0)
(0.00974252 0.903903 0)
(-0.0168531 2.60968 0)
(-0.00337819 2.10902 -2.47045e-20)
(-0.0095794 1.88541 0)
(-0.0206031 2.9876 -9.06676e-23)
(-0.0166883 3.0053 1.95716e-18)
(0.00210466 3.00018 0)
(0.870944 -0.00957348 0)
(0.405026 0.938177 1.84713e-19)
(0.79316 1.16847 -4.88278e-19)
(0.940821 1.00853 5.29962e-19)
(0.665109 1.26048 -1.00082e-19)
(0.665981 1.24372 5.78727e-19)
(0.266596 0.183603 1.5352e-20)
(0.243467 0.0858153 0)
(1.13908 0.551933 0)
(0.234287 0.175331 7.00801e-20)
(0.201131 0.111507 -7.27206e-20)
(0.919819 -0.00744424 0)
(1.00026 0.000156508 0)
(0.999909 0.000336629 0)
(1.00363 -0.00776805 0)
(1.00096 -0.000921386 0)
(1.00017 3.18413e-05 0)
(0.0764485 1.81623 -8.02552e-19)
(0.030374 0.979006 0)
(0.0955485 0.860424 0)
(0.0130944 0.932328 0)
(0.0365116 0.721728 0)
(0.0123987 2.00365 0)
(0.00291152 0.832356 0)
(0.0079716 0.612266 0)
(0.00094447 0.820816 0)
(0.0148933 0.586822 0)
(0.839624 -0.0158518 0)
(0.844757 0.0299996 0)
(0.767637 -0.00601191 0)
(0.813487 0.0395936 0)
(0.704656 -0.0195143 0)
(0.0146912 3.0004 9.34202e-19)
(0.0115077 3.00804 0)
(0.00611472 3.00278 0)
(0.0135566 2.99737 1.06115e-23)
(0.00796638 2.95846 -1.38845e-18)
(0.0144894 2.98198 0)
(0.0108468 2.9036 0)
(0.0247708 2.93037 2.13894e-24)
(0.00452752 2.82502 0)
(0.0310721 2.91619 0)
(-0.00533872 2.74588 0)
(0.307702 3.54942 0)
(-0.131703 3.63075 0)
(0.139254 3.24376 -7.16707e-19)
(-0.0128876 2.97985 0)
(-0.0194682 1.99279 0)
(-0.00837076 2.1656 5.81987e-22)
(-0.0104495 1.91698 -1.10456e-20)
(0.401479 0.143965 -3.59161e-19)
(0.312 0.0188126 -3.47527e-19)
(0.375142 0.152801 -1.07997e-18)
(0.279954 0.0419348 -7.10034e-19)
(0.225003 0.967913 0)
(0.269537 1.30797 -3.61926e-19)
(0.363199 1.24011 6.03454e-19)
(0.987467 0.00855708 0)
(0.941913 0.00583548 0)
(1.0003 0.000578555 0)
(1.00286 0.00930639 0)
(1.00302 0.00846223 -2.77871e-18)
(0.991912 0.0096993 2.09839e-18)
(-0.00541548 0.805086 0)
(-0.00544932 0.535351 0)
(-0.0300611 0.984301 0)
(-0.0157084 0.828279 0)
(0.000604988 0.525341 0)
(0.0612409 0.152975 2.29871e-19)
(0.123457 0.127855 0)
(0.993543 -0.00837841 0)
(0.954433 -0.0065236 0)
(0.75914 0.0466368 0)
(0.694657 0.0572611 0)
(0.664235 -0.0316034 0)
(0.964993 -0.00800845 0)
(0.609948 0.0764182 0)
(0.444454 -0.0110951 1.55016e-18)
(-0.0367276 2.86346 6.95637e-19)
(0.0415244 2.91001 0)
(0.0541338 2.88533 0)
(-0.00410404 2.69984 0)
(-0.013313 2.98504 8.82129e-19)
(-0.0179667 2.89497 0)
(-0.0154745 2.98805 -2.73198e-18)
(-0.0132901 2.92516 9.34938e-19)
(-0.00645972 1.34371 0)
(0.0136471 1.37553 0)
(-0.0080769 2.13413 3.77373e-22)
(-0.00710866 2.09018 0)
(-0.0204678 1.89609 0)
(0.938212 -0.00756563 0)
(0.856796 -0.00982933 0)
(0.863345 0.00605854 0)
(0.949353 -0.00794536 0)
(0.883793 -0.00813734 0)
(0.517027 1.13162 -2.33088e-19)
(0.566272 1.18275 0)
(0.369146 0.882953 3.43329e-20)
(0.31133 0.741857 0)
(0.901453 1.04787 -1.45351e-19)
(1.01496 0.854325 2.91201e-19)
(0.355511 1.35722 0)
(0.521205 1.32145 0)
(0.541843 1.27104 0)
(0.117663 0.183393 -3.03182e-19)
(0.298369 0.175182 0)
(0.265984 0.0817955 2.00605e-19)
(0.987239 0.910192 0)
(1.05973 0.764974 0)
(1.08359 0.705922 -2.25144e-19)
(1.11919 0.611431 0)
(1.17139 0.39861 5.57861e-20)
(0.957609 -0.00879515 0)
(0.962427 -0.0100889 0)
(0.901594 -0.0079431 0)
(0.984181 -0.00916564 0)
(0.974666 -0.00936702 0)
(0.937087 -0.00636673 0)
(1.00019 0.00233589 0)
(1.0009 0.00141038 0)
(0.99991 0.000852267 0)
(0.0350163 2.06787 4.43447e-19)
(0.120027 1.75876 0)
(0.0165713 2.1825 6.89094e-19)
(0.0497881 1.8702 -5.80431e-19)
(0.102725 1.17019 -2.50925e-19)
(0.0448908 1.05598 0)
(0.143648 1.01199 0)
(0.00723306 0.891983 0)
(0.0141395 0.671198 0)
(-0.00175324 2.23611 -1.10663e-21)
(0.0208495 2.00801 0)
(-0.00221949 2.23909 -4.7609e-20)
(0.0130492 2.01339 8.20928e-20)
(0.00506939 0.863729 0)
(0.00263576 0.844947 0)
(0.00729847 0.637796 0)
(0.00748244 0.80663 0)
(0.00460456 0.572403 0)
(0.936602 0.00938311 0)
(0.847561 -0.0151107 0)
(0.926303 7.10783e-05 0)
(0.841098 -0.0129303 0)
(0.811996 0.000295933 0)
(0.900644 0.020607 0)
(0.876119 0.0252189 0)
(0.788872 -0.00240829 0)
(0.0056781 3.06481 -8.73951e-21)
(0.0165524 3.05773 0)
(0.0146118 2.96905 0)
(0.0086419 2.87628 0)
(0.924349 3.96498 0)
(1.23868 3.29797 9.29917e-19)
(0.0697211 3.0721 0)
(-0.0289238 2.90405 0)
(-0.00383007 1.391 0)
(-0.0203838 1.69919 0)
(-0.00776338 1.5314 0)
(-0.0282035 2.56779 -9.34444e-21)
(-0.0109713 2.25604 0)
(-0.0177774 2.40418 0)
(0.00448124 1.94151 2.17995e-21)
(-0.00425758 2.2381 7.85089e-21)
(-0.00624134 2.19871 1.11164e-20)
(-0.00356557 1.9297 0)
(0.43895 0.125516 5.44505e-19)
(0.353721 0.0102846 -5.34537e-19)
(0.260037 1.58004 0)
(0.27337 0.742013 -3.17142e-19)
(0.177145 1.66594 -1.06123e-18)
(0.226826 1.20803 1.06372e-18)
(0.902156 0.00644444 0)
(0.967467 0.0110819 0)
(0.974593 0.0107864 0)
(0.923393 0.00645086 0)
(-0.00175469 0.802287 0)
(-0.00405883 0.800388 0)
(0.0068546 0.547187 0)
(0.200283 0.167567 6.46796e-19)
(0.167005 0.153375 -7.65021e-19)
(0.166697 0.117496 0)
(1.09018 0.0839335 2.83271e-20)
(1.07253 0.0381133 0)
(1.00706 0.0389208 0)
(0.902816 -0.00658649 0)
(0.480059 0.107164 0)
(0.530628 0.0876997 -2.47866e-18)
(0.395261 0.00640774 9.28123e-19)
(0.00888819 2.98096 7.4451e-19)
(-0.0328754 2.86549 4.63099e-20)
(0.00364585 3.05029 -1.84853e-20)
(0.0201342 3.04333 6.56789e-19)
(-0.0149778 2.99656 3.06857e-20)
(-0.0129663 2.94944 -1.23386e-22)
(-0.0172899 3.01194 -5.6689e-19)
(0.0149071 3.02373 4.10849e-19)
(0.00741718 3.03694 -6.51581e-19)
(0.933129 -0.00153835 0)
(0.938895 -0.00346874 0)
(0.844968 -0.00936168 0)
(0.956648 0.0118201 0)
(0.942894 0.0130963 0)
(0.881704 0.00598957 0)
(0.917641 0.0167082 0)
(0.926285 0.0148149 0)
(0.838562 0.00317184 0)
(0.71996 1.4095 3.65569e-20)
(0.753285 1.51835 0)
(0.186678 0.324917 7.20916e-20)
(0.222366 0.663724 5.82198e-19)
(0.261653 0.721934 -3.38993e-19)
(0.265937 0.533117 6.73844e-19)
(0.339371 0.79799 1.5942e-18)
(0.136571 0.224833 3.75017e-19)
(0.348384 0.167431 7.53067e-19)
(0.325328 0.174186 1.96518e-19)
(0.273417 0.0618758 3.74096e-19)
(1.16071 0.456179 4.35728e-20)
(1.17868 0.252637 3.85777e-20)
(0.00872978 2.22981 2.69551e-19)
(0.0440135 1.93739 0)
(0.966779 0.0286104 0)
(0.940665 0.0133652 0)
(0.865633 -0.0184667 0)
(0.0114092 3.07453 0)
(0.0198774 2.94417 1.20653e-18)
(0.0164206 2.95643 0)
(0.00627814 2.85053 -1.19698e-18)
(0.00626849 3.09156 2.93266e-19)
(0.00699935 3.08211 0)
(0.78626 1.82056 -1.59062e-19)
(1.24653 2.49768 4.04868e-19)
(0.76832 1.96008 -1.23431e-18)
(0.0199648 2.98165 -6.43283e-19)
(0.0353367 3.00071 0)
(-0.0343204 2.87788 0)
(-0.00327649 2.21869 -1.30764e-20)
(-0.00298933 2.24116 -2.33294e-20)
(0.00676969 1.97505 -7.96023e-21)
(0.276942 1.38777 1.03157e-18)
(0.232003 0.530831 -7.0758e-19)
(0.0635044 1.99278 7.78473e-19)
(0.135914 1.88062 -9.24811e-19)
(0.179893 1.50021 9.2793e-20)
(0.0046717 3.11891 -1.63664e-18)
(0.0107484 3.11935 1.78776e-18)
(-0.0091491 2.98076 8.14405e-19)
(-0.00448602 2.97739 -7.70539e-19)
(-0.0213131 2.88063 -8.29462e-19)
(0.00843493 3.09985 -2.18144e-18)
(0.00186513 3.10492 2.1936e-18)
(0.276481 0.688628 0)
(0.242324 0.67851 -1.20224e-18)
(0.0965976 0.225009 5.33312e-19)
(0.353283 0.92377 1.11358e-18)
(0.191789 0.269623 -1.71687e-18)
(1.17345 0.171783 6.94339e-20)
(1.1792 0.306411 0)
(1.162 0.12044 -1.46392e-20)
(0.000531109 2.24752 -1.75717e-21)
(0.00420123 2.23964 0)
(0.028616 1.97317 0)
(0.340149 1.29631 -3.71058e-19)
(0.37114 1.13528 -8.0311e-19)
(0.205876 0.368935 1.43025e-18)
(1.00587 -0.010852 0)
(1.00766 -0.0076462 5.12766e-19)
(-0.00591507 1.3203 0)
(-0.0238769 1.30413 0)
(1.00222 0.00350578 1.80695e-21)
(1.00366 0.00945359 1.04665e-18)
(-0.019394 2.55119 1.18385e-20)
(-0.0242831 2.59331 0)
(0.0349109 3.17795 4.29644e-19)
(0.394215 3.48889 0)
(1.16579 0.651351 -6.58923e-20)
(1.0129 0.0131004 -2.14723e-21)
(1.02127 -0.010356 0)
(1.00171 0.00011904 7.57592e-23)
(0.103052 1.3598 0)
(0.144428 2.57487 0)
(0.0244755 1.30043 0)
(0.000863637 2.62362 4.72223e-20)
(-0.0200745 2.58153 1.86809e-20)
(1.00069 0.029072 2.49212e-21)
(1.0622 0.00395594 0)
(1.09566 0.0237679 0)
(-0.0214893 1.73835 0)
(-0.0183784 2.58994 0)
(0.00204544 1.30001 0)
(0.297551 1.47214 -1.59598e-19)
(1.01127 -0.00964262 0)
(1.00939 -0.0149232 0)
(1.00237 0.000736386 6.55292e-19)
(1.00547 -0.00481927 -7.70114e-19)
(1.00118 -0.00099551 0)
(-0.00394877 1.4582 0)
(-0.00421138 1.36523 0)
(0.000904422 1.4133 0)
(0.00056635 1.2877 0)
(-0.00844935 1.26505 0)
(-0.0024116 1.24594 0)
(1.03472 -0.00628839 0)
(1.02024 0.0156791 -8.88159e-22)
(0.80687 1.26498 2.47993e-19)
(1.00223 0.000310587 -6.52621e-19)
(1.00407 0.00524827 7.64068e-19)
(1.00117 0.00206526 0)
(1.01278 0.0103174 6.49584e-19)
(1.008 0.00829354 -7.8694e-19)
(1.00858 0.0146857 0)
(-0.0239603 2.61984 0)
(-0.0252832 2.60023 -1.35344e-20)
(-0.0231753 2.61392 9.81583e-21)
(1.23065 0.262046 6.11444e-19)
(1.15758 0.0844261 0)
(0.0417985 3.07749 -9.48856e-19)
(0.0649515 2.8546 -6.90199e-20)
(0.140586 3.1923 1.45363e-18)
(0.135457 3.22091 -2.11517e-19)
(0.134357 3.23274 0)
(0.0192467 3.13755 2.45652e-19)
(0.0754144 3.15992 9.36067e-19)
(0.0679271 3.18577 -4.6281e-19)
(0.022285 3.12943 0)
(0.618632 0.279614 0)
(0.548422 0.324549 0)
(1.13463 0.687186 1.57006e-19)
(1.13003 0.808518 -1.49233e-19)
(1.19241 0.575515 0)
(1.22131 0.511482 0)
(1.01612 0.0133271 -1.21096e-18)
(1.01499 0.0142586 1.52002e-18)
(1.02526 -0.00990221 0)
(1.02333 -0.011911 0)
(1.00643 0.00258353 0)
(1.01041 0.00370131 0)
(1.00457 0.00184228 0)
(1.0098 0.00620414 0)
(1.00783 0.00595215 0)
(1.00451 0.00466746 0)
(0.0915583 1.35712 0)
(0.0855531 1.32754 0)
(0.122617 1.39303 0)
(0.137331 1.40367 0)
(0.144705 2.59958 0)
(0.18516 2.6677 -4.36291e-19)
(0.100145 2.65541 0)
(0.0852492 2.65786 2.10978e-19)
(0.0388058 2.67881 -1.74126e-19)
(0.0191539 1.31569 0)
(0.0194919 1.2462 0)
(0.0174634 1.32608 0)
(0.0310826 1.26846 0)
(0.00314249 1.98079 -1.44802e-20)
(-0.0185557 2.60947 -4.57964e-22)
(-0.0073457 2.66517 3.67527e-20)
(-0.0169332 2.68512 0)
(-0.0213163 2.61597 -4.24135e-20)
(-0.021334 2.61094 -9.64127e-21)
(0.0125252 1.97958 1.35199e-20)
(-0.00531868 2.3954 6.14501e-22)
(-0.0119445 2.41768 -4.16865e-20)
(1.01075 0.0369564 1.23526e-18)
(1.00606 0.0162066 -1.52577e-18)
(1.00196 0.0439938 -1.23622e-18)
(0.979005 0.0221236 1.57702e-18)
(1.06342 0.00775376 0)
(1.04873 -0.00857443 0)
(1.09278 0.0338064 0)
(1.0732 0.0120678 0)
(1.07098 -0.000115454 0)
(1.13817 0.0809206 0)
(1.10959 0.0431308 0)
(1.11266 0.0311346 0)
(-0.0232266 2.44095 2.06153e-22)
(-0.00759454 2.01604 0)
(-0.0126403 2.22266 0)
(-0.0195691 2.61026 -3.85564e-21)
(-0.0171885 2.61855 -1.48194e-22)
(0.00893545 1.5659 -2.18913e-20)
(0.00263284 1.49501 2.22613e-20)
(-0.00463236 1.38428 0)
(-0.00741344 1.39009 0)
(-0.00890043 1.38419 0)
(0.00509713 1.30254 0)
(0.0140398 1.23766 0)
(0.377912 1.48821 2.58041e-19)
(0.418563 1.49097 1.39669e-19)
(0.597826 2.45007 -2.41218e-19)
(0.400768 2.5448 7.11665e-19)
(0.350979 2.06503 7.35966e-20)
(1.021 -0.00818316 0)
(1.01547 -0.00978467 0)
(1.01489 -0.015512 0)
(1.00744 -0.00114927 0)
(1.00494 -0.000934321 0)
(1.00776 -0.00474546 0)
(1.00924 -0.00369001 0)
(1.01418 -0.00445139 0)
(1.02098 0.016156 1.18574e-18)
(1.0179 0.0156625 -1.51873e-18)
(1.02138 0.0181334 -1.19455e-18)
(1.0192 0.0168559 1.49266e-18)
(0.770151 1.31515 0)
(0.706322 1.36618 2.32485e-19)
(0.883535 1.21269 8.57102e-20)
(0.928465 1.15985 -1.14004e-19)
(1.15798 2.60666 2.92287e-19)
(0.791961 0.116215 6.04808e-19)
(1.16065 0.106205 0)
(1.20756 0.190541 -4.91403e-19)
(1.19292 0.152317 -2.08152e-20)
(1.00503 0.1516 0)
(0.133415 2.95976 5.56775e-19)
(0.110387 2.86556 -1.20501e-18)
(0.0200582 2.37499 8.09912e-19)
(0.0903835 -0.063526 -3.59187e-19)
(0.339255 3.4183 -2.06e-19)
(0.193607 3.31128 0)
(0.236935 3.35282 2.68282e-19)
(0.243454 3.03287 -1.84085e-18)
(0.337912 3.19198 0)
(0.00732247 3.12068 4.77888e-20)
(0.0176138 3.12949 -5.60344e-19)
(0.0158224 3.12561 8.24742e-19)
(0.0353938 3.1395 0)
(0.0334975 3.15056 0)
(1.21548 2.60522 0)
(0.544208 0.824519 -5.36882e-19)
(1.05415 0.981971 3.78667e-21)
(0.988551 1.06567 0)
(0.842664 0.968156 -1.16037e-19)
(1.07973 0.880676 2.84937e-20)
(0.355224 0.371661 -9.24138e-19)
(0.673189 0.311852 -2.04319e-20)
(0.620535 0.220065 4.27523e-19)
(0.571533 0.358657 3.15461e-20)
(0.480483 0.321234 -1.26966e-18)
(0.641776 0.32284 0)
(0.700489 0.415136 7.26104e-19)
(0.709483 0.417185 0)
(0.605395 0.349731 0)
(0.558584 0.267255 0)
(0.809985 0.613958 4.28453e-19)
(1.23078 0.284366 -5.16425e-19)
(1.22898 0.422 0)
(1.23895 0.361856 0)
(0.726142 0.18881 6.34556e-19)
(0.856434 0.538433 -3.93917e-19)
(0.75261 0.508768 6.98383e-19)
(0.951485 0.431968 -7.67164e-19)
(1.01954 0.0147857 8.14514e-19)
(1.01774 0.0142639 -8.19427e-19)
(1.01592 0.0154766 0)
(1.03618 -0.00583013 0)
(1.02971 -0.00850831 -7.67782e-19)
(1.02776 -0.0120429 7.60178e-19)
(1.02497 0.0100759 0)
(1.02356 0.0137315 0)
(1.01141 0.00409419 0)
(1.01425 0.00905471 0)
(1.01514 0.00403047 0)
(1.01424 0.00280025 0)
(0.0627132 1.34255 0)
(0.0648404 1.29751 0)
(0.14363 1.36743 -5.53269e-21)
(0.271032 1.46912 8.19792e-20)
(0.164273 1.44043 1.70227e-19)
(0.196256 1.44746 -2.79022e-19)
(0.164692 1.39219 0)
(0.130275 1.59477 -8.46783e-20)
(0.114202 1.56847 0)
(0.34853 2.01725 -1.06993e-19)
(0.344775 2.34964 6.29412e-19)
(0.18699 1.45229 7.38387e-20)
(0.261433 1.38221 1.85676e-20)
(0.196137 1.3718 -1.5026e-20)
(0.271854 1.32487 -1.1091e-19)
(0.239519 1.57757 0)
(0.262017 1.61696 1.18716e-19)
(0.0298287 2.2643 -3.7076e-20)
(0.0431383 2.66826 0)
(0.0646086 2.40158 1.50955e-19)
(0.0608392 2.42182 0)
(0.0691957 2.67096 -2.33682e-19)
(0.0491979 2.69847 0)
(0.0278491 1.41642 9.36907e-21)
(0.0344143 1.46919 0)
(0.0286054 1.38644 0)
(0.024442 1.38864 -1.05709e-20)
(0.00114716 2.65126 -1.70726e-20)
(0.0296322 2.69649 1.98619e-19)
(0.0112667 2.72116 1.40114e-21)
(0.00463793 1.82756 1.29268e-20)
(-0.00245119 1.67915 5.00904e-21)
(0.0122129 1.2909 0)
(0.0199787 1.22029 0)
(0.0462237 1.57774 1.09555e-21)
(0.0288812 1.45208 -5.45197e-21)
(0.0364096 1.51675 6.59957e-21)
(0.0387477 1.60162 0)
(-0.0256826 2.27216 6.60414e-20)
(-0.0266422 2.55574 -2.74108e-20)
(-0.0132858 2.45022 7.2872e-23)
(0.000451805 1.844 -1.56696e-20)
(-0.0224363 2.50021 -5.19068e-21)
(-0.0188062 2.44199 2.88134e-20)
(1.01928 0.0209653 -8.0939e-19)
(1.01532 0.0267015 8.14284e-19)
(1.01437 0.0161724 0)
(1.01231 0.0707305 1.14359e-18)
(0.989952 0.0594668 -1.28635e-18)
(0.947546 0.0441621 1.44084e-18)
(1.01361 0.10873 -1.52467e-19)
(1.04248 -0.00587634 0)
(1.05068 -0.00165135 7.32823e-19)
(1.03877 -0.00998253 -7.34377e-19)
(1.07042 0.0415117 -4.36447e-20)
(1.06411 0.0229098 3.76165e-19)
(1.06306 0.0548771 0)
(1.05329 0.048408 -1.352e-19)
(1.0324 0.0415411 0)
(1.02578 0.038057 0)
(1.02782 0.0130673 0)
(1.02412 0.0158377 0)
(1.03997 0.0317547 2.78396e-19)
(1.03887 0.0263766 -6.15094e-19)
(1.05066 0.0332243 -2.95225e-19)
(1.04806 0.0332285 -3.24979e-19)
(1.07027 0.0628022 6.35131e-19)
(1.09537 0.050959 0)
(1.10348 0.0945344 0)
(-0.0200489 2.27791 4.26605e-20)
(-0.0174607 2.01878 -2.89162e-22)
(-0.0136255 2.02552 0)
(-0.0248402 2.45223 -4.24483e-20)
(-0.0196489 2.40884 1.00584e-22)
(-0.03055 2.48204 3.7466e-21)
(-0.0190516 2.62484 8.02836e-21)
(-0.0198269 2.56727 -1.20995e-21)
(-0.018009 2.51677 2.97815e-21)
(-0.0145731 2.62052 1.20045e-22)
(-0.0192704 2.62157 1.24979e-21)
(0.00280526 1.47981 -2.93909e-22)
(0.0103381 1.61489 -1.78937e-20)
(0.363699 1.43353 -1.07709e-19)
(0.364607 1.3712 4.19621e-20)
(0.649231 1.41585 -2.24944e-19)
(0.517579 1.48282 -1.37096e-19)
(0.573779 1.45002 0)
(0.593528 2.42681 2.09722e-19)
(0.66128 2.42018 3.39779e-19)
(0.410751 2.51757 8.57939e-20)
(0.402706 2.54411 -6.26177e-19)
(0.5113 2.48789 6.19168e-19)
(0.553037 2.46387 0)
(0.489022 2.51961 -5.65554e-19)
(0.247663 2.59272 1.17212e-18)
(0.353846 2.56617 -7.99345e-20)
(0.283818 2.65416 -1.61445e-18)
(0.94583 2.38114 7.30813e-19)
(0.837505 2.38533 0)
(1.01104 0.000462969 2.65829e-20)
(1.01528 -0.00545952 -2.15733e-20)
(1.01763 -0.00359319 -3.94069e-19)
(1.01498 -0.000934578 3.96117e-19)
(1.0124 0.00112922 0)
(0.637968 1.28741 0)
(0.66303 1.18403 0)
(0.773288 1.09634 0)
(0.655595 1.14799 0)
(1.18728 2.62084 5.89487e-20)
(1.07602 2.36748 0)
(0.838912 2.18011 3.85273e-21)
(0.826123 2.44465 0)
(0.923276 2.53623 -4.25746e-19)
(0.958887 2.49192 2.83321e-19)
(0.811816 0.174541 0)
(0.77044 0.148241 1.64364e-19)
(0.918586 0.145545 9.57496e-19)
(0.834094 0.147838 -3.58128e-19)
(0.797711 0.0840428 -1.10477e-18)
(1.07865 0.234844 -9.17346e-19)
(0.992906 0.292771 -1.60569e-20)
(0.928294 0.294137 8.80195e-19)
(1.0053 0.223764 7.35963e-19)
(0.951663 0.190647 -1.27103e-18)
(0.916331 0.192185 1.58842e-19)
(0.954944 0.256406 -3.38551e-19)
(0.931031 0.218197 0)
(0.992547 0.185022 6.2727e-19)
(1.04586 0.187488 0)
(1.0416 0.214308 0)
(1.1049 0.11775 2.95361e-19)
(1.06967 0.175691 -1.43897e-20)
(1.0732 0.235927 -1.61142e-19)
(1.10227 0.202287 0)
(1.0228 0.0456781 6.28071e-19)
(1.04004 0.058392 7.8316e-19)
(1.03383 0.0442542 -6.23036e-19)
(1.04294 0.065111 -5.24816e-19)
(1.01893 0.0729355 -8.04075e-19)
(0.988084 0.158389 0)
(0.998894 0.105131 0)
(0.965468 0.0669404 -5.1345e-19)
(0.912023 0.0902088 2.01665e-19)
(1.0388 0.104217 7.25952e-19)
(1.06861 0.120585 -8.52418e-19)
(1.07541 0.153684 7.61647e-19)
(1.02888 0.143573 0)
(1.0746 0.108875 0)
(1.05485 0.0904099 -3.4879e-19)
(1.04433 0.0949971 -5.94198e-19)
(0.5831 1.07452 1.415e-19)
(0.611559 1.4014 -4.30559e-20)
(1.15751 2.73649 -2.29565e-19)
(1.22373 3.07808 2.00975e-21)
(1.24965 2.71961 -1.34546e-19)
(1.27917 2.70323 -2.85335e-20)
(1.20734 2.34408 -1.0474e-20)
(1.21121 2.98218 -9.47344e-20)
(1.23083 2.94754 2.36806e-19)
(1.21439 3.23149 -1.43016e-19)
(1.37482 2.96334 1.97734e-19)
(1.36471 2.8816 0)
(0.552659 0.832502 -5.04759e-20)
(0.129131 1.2445 5.7952e-19)
(0.539539 0.418741 5.97999e-19)
(0.37842 0.167522 6.58421e-19)
(0.512448 0.35773 7.17373e-19)
(0.545291 0.45872 -1.15547e-18)
(0.547425 0.459372 9.44193e-19)
(0.489292 0.372367 -3.61915e-19)
(0.398757 0.304198 8.19894e-19)
(0.732418 0.254691 -3.64022e-19)
(0.692711 0.278974 0)
(0.66494 0.197385 8.35484e-21)
(0.734653 0.505214 3.81922e-19)
(0.706707 0.473756 -1.39251e-18)
(0.61533 0.457333 1.41569e-20)
(0.62157 0.445255 0)
(0.68313 0.722328 4.05643e-19)
(0.844197 0.772147 4.10594e-19)
(0.766941 0.855003 -4.80015e-19)
(0.889582 0.808276 -1.62371e-19)
(0.919024 0.851559 -4.01986e-20)
(0.926601 0.85141 4.1168e-20)
(0.855542 0.64731 -7.10116e-19)
(0.937427 0.702957 1.50846e-19)
(0.994371 0.717577 0)
(0.985532 0.694659 -2.05685e-19)
(1.0226 0.332273 2.21117e-19)
(1.14416 0.299629 3.02127e-19)
(1.06535 0.271613 3.75283e-19)
(1.00929 0.363798 -4.45449e-19)
(1.05923 0.429167 0)
(1.11742 0.41486 0)
(0.918029 0.365631 5.27135e-21)
(0.84124 0.297951 0)
(0.881205 0.293307 4.14799e-19)
(0.908704 0.300979 -5.4344e-21)
(0.945484 0.434518 2.13838e-18)
(0.904859 0.491892 5.52515e-19)
(0.907547 0.457241 -5.87808e-19)
(0.827029 0.441576 6.29452e-19)
(0.809917 0.434021 3.77939e-19)
(0.779267 0.415349 -3.71575e-19)
(1.02723 -0.000397964 6.56474e-19)
(1.01999 -8.41103e-05 0)
(1.01849 0.000852136 4.27988e-19)
(1.0217 -0.00170966 -9.69528e-19)
(1.0223 0.00429299 4.7092e-19)
(1.02038 0.0112545 -9.86268e-19)
(1.02132 0.0106425 0)
(1.02062 0.0108927 -2.05511e-19)
(1.01598 0.00770886 5.15571e-19)
(1.01669 0.0104695 -2.57248e-19)
(1.01739 0.00981713 1.89459e-19)
(0.0288921 1.31803 0)
(0.0332225 1.35974 0)
(0.0436408 1.32034 0)
(0.0435454 1.27554 0)
(0.0704347 1.38272 -1.38652e-20)
(0.0776184 1.353 1.1263e-20)
(0.110673 1.51666 -2.17998e-20)
(0.0934223 1.364 2.03723e-21)
(0.0333154 1.4569 -1.54633e-20)
(0.0371113 1.44964 1.21421e-20)
(0.0619431 1.36739 -8.02091e-21)
(0.0541203 1.3693 1.94755e-20)
(0.0472085 1.34505 2.70452e-21)
(0.0386318 1.36819 -5.87123e-22)
(0.105756 2.37285 -1.66852e-19)
(0.0947595 2.4196 0)
(0.169207 2.04834 1.13183e-19)
(0.108195 1.70899 4.61544e-20)
(0.230223 2.04418 -9.29374e-20)
(0.203525 2.4375 0)
(0.264366 2.38831 -6.12102e-19)
(0.302997 2.38624 4.33793e-19)
(0.229274 2.00449 -2.58568e-19)
(0.152701 2.16511 1.72673e-19)
(0.142471 2.27651 0)
(0.0172484 1.87579 -2.56654e-20)
(-0.000861829 2.39404 -7.27973e-20)
(0.005191 2.14909 0)
(0.0107558 2.45691 -1.34914e-20)
(0.0262777 2.30183 2.43299e-20)
(0.0169069 1.39796 -2.5713e-21)
(0.0178969 1.38458 4.76202e-20)
(0.0189169 1.38882 -1.72439e-20)
(0.0217273 1.38884 -1.13058e-20)
(0.0273604 1.42035 0)
(0.0160604 1.37081 0)
(0.0104819 1.29144 -2.39729e-20)
(0.0125998 1.36164 6.01177e-21)
(0.0155707 1.36248 0)
(0.0131598 1.28369 -1.76007e-20)
(0.0215385 1.21711 3.68862e-20)
(1.04051 0.0114685 0)
(1.04649 0.00774914 -6.87617e-20)
(1.03854 0.0213596 -4.95922e-19)
(1.04811 0.0202428 0)
(1.05204 0.0201107 0)
(1.03627 0.0116067 -6.70419e-21)
(1.03096 0.0114468 7.96651e-19)
(1.03174 0.0163536 9.6562e-19)
(1.02571 0.0202458 0)
(1.02282 0.0206429 0)
(1.0351 0.0251311 4.94439e-19)
(1.02595 0.0263522 0)
(1.02418 0.0263705 0)
(-0.0136441 2.01763 0)
(0.00945101 1.6455 -3.61791e-21)
(0.00141143 1.75255 -2.39221e-20)
(0.00561943 1.37183 0)
(-0.000152901 1.54357 -7.02307e-21)
(0.00146748 1.44953 6.06179e-21)
(0.00223041 1.38187 0)
(0.391541 1.66577 0)
(0.367851 1.30031 -7.96131e-20)
(0.302628 1.34269 0)
(0.421409 1.30136 1.98056e-20)
(0.467271 1.45926 0)
(0.448354 1.40454 1.80871e-20)
(1.03645 2.68495 -1.55151e-20)
(0.966949 2.41083 -9.18712e-19)
(0.918506 2.19453 1.04375e-18)
(0.851145 2.37747 2.43258e-19)
(0.848204 2.49595 0)
(0.91812 2.49184 0)
(0.929146 2.37481 0)
(0.907965 2.36259 -9.47012e-19)
(0.689442 2.46278 -3.98385e-19)
(0.801679 2.45266 -9.83606e-20)
(0.812451 2.42641 7.48819e-20)
(0.695747 2.39431 0)
(0.800517 2.39001 0)
(0.759032 2.40268 -3.69893e-19)
(0.769337 2.48611 0)
(0.623758 1.09913 0)
(0.486362 0.920908 -5.089e-19)
(0.560899 0.956847 -3.23507e-20)
(0.524708 1.05317 0)
(0.525454 1.00049 7.63805e-19)
(0.789727 0.879734 -1.34828e-19)
(0.797841 1.01719 0)
(0.772164 0.97929 1.95092e-19)
(0.657555 1.03591 0)
(0.661503 0.940669 0)
(1.16566 2.75902 -2.34173e-19)
(1.14339 2.82225 -9.92972e-20)
(0.932642 2.34061 1.03655e-19)
(0.900271 2.31984 -8.43929e-20)
(1.13084 2.73257 0)
(1.08426 2.70253 1.01583e-19)
(1.09096 2.48628 -3.19655e-19)
(0.985608 2.23678 -3.07416e-20)
(0.498645 1.35026 0)
(0.513216 1.07597 -1.24794e-19)
(0.571419 1.17069 0)
(0.857793 0.23406 0)
(0.780489 0.188741 0)
(0.717488 0.148872 0)
(0.850981 0.235929 -6.52894e-19)
(0.754591 0.225269 3.80894e-19)
(0.928181 0.0764901 -4.16512e-19)
(0.943302 0.123091 0)
(0.923482 0.136316 1.7868e-19)
(0.860848 0.111123 7.17245e-19)
(0.828056 0.0686225 -4.48851e-19)
(1.16057 3.35674 -7.19429e-19)
(1.20891 3.27604 0)
(1.15845 3.38512 -1.48476e-18)
(0.646262 3.546 1.26105e-18)
(0.870246 3.11376 6.90217e-20)
(0.521032 0.835275 6.09527e-19)
(0.432795 0.832545 0)
(0.327992 0.456424 -1.53364e-19)
(0.457048 0.669001 8.71167e-19)
(0.541814 0.422997 -2.0749e-19)
(0.511236 0.489696 2.39616e-19)
(0.665365 0.51738 5.15394e-19)
(0.697939 0.546172 0)
(0.651175 0.595625 0)
(0.608155 0.537887 0)
(0.997326 0.604294 9.78955e-20)
(0.911386 0.540914 -5.37517e-19)
(0.937704 0.574173 4.07635e-19)
(0.969518 0.512277 -4.15388e-19)
(1.0775 0.485299 0)
(1.0847 0.574728 -1.03093e-19)
(0.849745 0.394571 -8.62494e-19)
(0.852492 0.383558 -1.06543e-18)
(0.794288 0.383102 6.72724e-19)
(0.794897 0.355252 -6.87481e-19)
(0.843894 0.317022 -5.37914e-19)
(0.793413 0.31529 6.60097e-19)
(1.02667 0.00576747 -5.01831e-19)
(1.02639 0.00599232 1.02169e-18)
(1.0293 -3.79966e-05 6.36359e-19)
(1.03347 0.000865622 -7.66398e-19)
(1.03357 0.00875792 0)
(1.03004 0.00943235 -1.24733e-18)
(0.0615214 1.64408 2.52173e-20)
(0.0442817 1.57832 0)
(0.0840741 1.69447 1.52038e-19)
(0.0946466 1.6761 -1.34397e-19)
(0.0871771 1.53161 4.08834e-20)
(0.0848427 1.51781 0)
(0.0134039 1.67494 0)
(0.000256576 1.48085 2.99908e-22)
(0.00474977 1.42601 -2.69701e-22)
(0.000185561 1.53907 6.7394e-21)
(0.00493583 1.87568 -6.48045e-22)
(-0.00530404 1.92927 4.20107e-21)
(0.498423 1.37079 -2.79105e-19)
(0.49177 1.37368 3.06321e-19)
(0.447718 1.2976 -3.639e-20)
(0.436655 1.29317 8.11483e-21)
(0.629453 1.3026 0)
(0.545896 1.38999 9.60369e-20)
(0.561105 1.39759 -9.35117e-20)
(0.459118 1.28325 3.53589e-20)
(0.514856 1.2388 0)
(0.567253 1.20586 0)
(0.656209 2.42197 5.85356e-19)
(0.67081 2.46115 1.27507e-18)
(0.716039 2.47219 -8.78288e-19)
(0.613359 2.44694 -2.04571e-19)
(0.560961 2.53862 2.86359e-19)
(0.509779 2.512 -7.63512e-19)
(0.977788 2.38067 -5.8404e-19)
(1.0137 2.39371 0)
(0.924966 2.17262 -6.75358e-19)
(1.05459 2.68191 0)
(1.05685 2.6687 0)
(0.609028 2.26846 -1.20777e-19)
(1.0417 3.16004 1.32945e-19)
(0.912601 3.03011 -3.64549e-20)
(0.27691 0.890968 0)
(0.312007 0.745778 -3.21318e-19)
(0.476091 0.703382 -3.2368e-19)
(0.385976 2.01448 0)
(0.465767 2.78297 -4.80484e-20)
(0.420886 2.54641 0)
(0.701049 0.67013 -8.59117e-19)
(0.783957 0.676596 1.16453e-18)
(0.80413 0.619534 -1.152e-18)
(0.679744 0.632583 -1.10876e-19)
(0.734762 0.588164 -4.57816e-19)
(1.00452 2.76196 -1.01097e-19)
(1.04308 2.81967 -1.66465e-19)
(0.638098 2.13985 6.78081e-19)
(0.594547 1.70887 -4.83353e-19)
(0.699425 1.90265 -4.08088e-19)
(0.990496 2.44549 -1.13949e-19)
(0.996031 2.43798 2.99356e-19)
(0.65858 1.83872 2.82949e-20)
(0.450855 1.32999 1.46224e-19)
)
;

boundaryField
{
    wall-4
    {
        type            noSlip;
    }
    velocity-inlet-5
    {
        type            fixedValue;
        value           uniform (1 0 0);
    }
    velocity-inlet-6
    {
        type            fixedValue;
        value           uniform (0 3 0);
    }
    pressure-outlet-7
    {
        type            zeroGradient;
    }
    wall-8
    {
        type            noSlip;
    }
    frontAndBackPlanes
    {
        type            empty;
    }
}


// ************************************************************************* //
