/*--------------------------------*- C++ -*----------------------------------*\
  =========                 |
  \\      /  F ield         | OpenFOAM: The Open Source CFD Toolbox
   \\    /   O peration     | Website:  https://openfoam.org
    \\  /    A nd           | Version:  13
     \\/     M anipulation  |
\*---------------------------------------------------------------------------*/
FoamFile
{
    format      ascii;
    class       volScalarField;
    location    "4.29";
    object      T;
}
// * * * * * * * * * * * * * * * * * * * * * * * * * * * * * * * * * * * * * //

dimensions      [0 0 0 1 0 0 0];

internalField   nonuniform List<scalar> 
1000
(
4.11456e-52
5.17727e-52
7.57253e-52
1.19074e-51
1.92773e-51
3.15379e-51
5.17645e-51
8.50097e-51
1.39544e-50
2.28874e-50
3.75036e-50
6.13924e-50
1.00396e-49
1.64011e-49
2.6766e-49
4.36364e-49
7.1067e-49
1.15622e-48
1.87917e-48
3.05101e-48
4.94851e-48
8.01785e-48
1.29776e-47
2.09837e-47
3.38938e-47
5.46905e-47
8.81565e-47
1.41954e-46
2.28346e-46
3.66935e-46
5.89027e-46
9.44564e-46
1.51314e-45
2.42145e-45
3.87098e-45
6.18184e-45
9.86195e-45
1.57166e-44
2.50208e-44
3.97917e-44
6.32169e-44
1.00328e-43
1.59059e-43
2.51909e-43
3.98545e-43
6.29879e-43
9.94454e-43
1.56841e-42
2.47104e-42
3.88909e-42
6.11453e-42
9.60337e-42
1.50671e-41
2.36148e-41
3.69728e-41
5.78263e-41
9.03472e-41
1.4101e-40
2.19851e-40
3.42414e-40
5.32746e-40
8.28004e-40
1.28555e-39
1.99384e-39
3.08911e-39
4.78103e-39
7.39183e-39
1.14163e-38
1.76134e-38
2.71458e-38
4.17931e-38
6.42759e-38
9.87495e-38
1.51552e-37
2.32345e-37
3.55832e-37
5.44374e-37
8.31939e-37
1.27007e-36
1.93688e-36
2.95065e-36
4.4903e-36
6.82609e-36
1.03659e-35
1.57248e-35
2.38288e-35
3.60709e-35
5.45446e-35
8.23921e-35
1.24325e-34
1.874e-34
2.82176e-34
4.24432e-34
6.37726e-34
9.57191e-34
1.43516e-33
2.14951e-33
3.21601e-33
4.80652e-33
7.17599e-33
1.07021e-32
1.59439e-32
2.37277e-32
3.52738e-32
5.23825e-32
7.77061e-32
1.15149e-31
1.70451e-31
2.52044e-31
3.72295e-31
5.4933e-31
8.09682e-31
1.19215e-30
1.7534e-30
2.57611e-30
3.7808e-30
5.54288e-30
8.11749e-30
1.18752e-29
1.73538e-29
2.53327e-29
3.69404e-29
5.38089e-29
7.8296e-29
1.13804e-28
1.65237e-28
2.39657e-28
3.4722e-28
5.02518e-28
7.2649e-28
1.04915e-27
1.51349e-27
2.18099e-27
3.13947e-27
4.51431e-27
6.4842e-27
9.30363e-27
1.33346e-26
1.90913e-26
2.73037e-26
3.90066e-26
5.56652e-26
7.93524e-26
1.12997e-25
1.60731e-25
2.28383e-25
3.24157e-25
4.59597e-25
6.5092e-25
9.20887e-25
1.30141e-24
1.83717e-24
2.59067e-24
3.64924e-24
5.13478e-24
7.21719e-24
1.01331e-23
1.42116e-23
1.991e-23
2.78629e-23
3.89501e-23
5.43898e-23
7.5867e-23
1.0571e-22
1.4713e-22
2.04558e-22
2.8409e-22
3.94115e-22
5.46153e-22
7.56016e-22
1.04538e-21
1.44391e-21
1.99221e-21
2.7457e-21
3.78003e-21
5.19831e-21
7.14093e-21
9.79876e-21
1.34311e-20
1.83898e-20
2.51516e-20
3.4362e-20
4.68938e-20
6.39257e-20
8.70481e-20
1.18404e-19
1.60878e-19
2.18349e-19
2.96024e-19
4.00892e-19
5.42312e-19
7.32815e-19
9.89149e-19
1.33368e-18
1.79624e-18
2.41656e-18
3.24754e-18
4.35946e-18
5.84565e-18
7.82987e-18
1.04761e-17
1.40011e-17
1.86917e-17
2.49262e-17
3.32036e-17
4.41809e-17
5.87225e-17
7.79643e-17
1.03397e-16
1.36975e-16
1.81257e-16
2.39589e-16
3.16345e-16
4.1723e-16
5.49679e-16
7.23375e-16
9.50905e-16
1.24862e-15
1.63774e-15
2.14574e-15
2.80821e-15
3.67115e-15
4.79395e-15
6.25323e-15
8.14769e-15
1.06043e-14
1.37864e-14
1.79035e-14
2.32244e-14
3.00932e-14
3.89503e-14
5.03585e-14
6.50359e-14
8.3898e-14
1.08111e-13
1.39157e-13
1.78919e-13
2.29789e-13
2.94794e-13
3.77769e-13
4.83562e-13
6.18295e-13
7.89691e-13
1.00748e-12
1.28391e-12
1.63436e-12
2.07817e-12
2.63955e-12
3.34886e-12
4.24406e-12
5.37259e-12
6.79364e-12
8.58103e-12
1.08266e-11
1.36447e-11
1.71772e-11
2.16002e-11
2.71319e-11
3.40424e-11
4.26654e-11
5.34133e-11
6.67944e-11
8.34348e-11
1.04105e-10
1.29752e-10
1.61536e-10
2.00884e-10
2.49538e-10
3.09631e-10
3.83769e-10
4.7513e-10
5.87585e-10
7.25849e-10
8.9565e-10
1.10394e-09
1.35917e-09
1.67154e-09
2.05341e-09
2.51971e-09
3.08847e-09
3.7814e-09
4.62465e-09
5.64966e-09
6.89417e-09
8.40347e-09
1.02318e-08
1.24441e-08
1.51179e-08
1.83457e-08
2.2238e-08
2.69261e-08
3.25664e-08
3.93443e-08
4.74801e-08
5.72346e-08
6.89165e-08
8.28905e-08
9.95872e-08
1.19514e-07
1.43269e-07
1.71556e-07
2.05198e-07
2.45166e-07
2.92594e-07
3.48809e-07
4.15363e-07
4.94068e-07
5.87034e-07
6.9672e-07
8.25984e-07
9.78145e-07
1.15705e-06
1.36717e-06
1.61365e-06
1.90247e-06
2.24049e-06
2.63565e-06
3.09708e-06
3.63526e-06
4.26225e-06
4.99186e-06
5.8399e-06
6.82446e-06
7.96621e-06
9.28871e-06
1.08188e-05
1.25871e-05
1.46282e-05
1.69816e-05
1.96918e-05
2.28095e-05
2.63917e-05
3.05029e-05
3.52157e-05
4.06121e-05
4.67838e-05
5.38344e-05
6.18794e-05
7.10488e-05
8.14874e-05
9.33572e-05
0.000106839
0.000122134
0.000139466
0.000159083
0.000181261
0.000206306
0.000234555
0.000266382
0.000302197
0.000342455
0.000387654
0.000438341
0.000495117
0.000558641
0.000629631
0.000708873
0.000797225
0.00089562
0.00100507
0.00112668
0.00126164
0.00141125
0.0015769
0.00176009
0.00196246
0.00218575
0.00243184
0.00270274
0.00300061
0.00332775
0.00368662
0.00407983
0.00451019
0.00498065
0.00549435
0.00605462
0.00666496
0.00732907
0.00805087
0.00883444
0.00968408
0.0106043
0.0115998
0.0126755
0.0138365
0.0150881
0.0164358
0.0178853
0.0194425
0.0211134
0.0229043
0.0248215
0.0268716
0.0290612
0.0313971
0.0338861
0.0365353
0.0393517
0.0423423
0.0455141
0.0488744
0.05243
0.0561881
0.0601555
0.064339
0.0687452
0.0733805
0.0782513
0.0833635
0.0887229
0.0943348
0.100204
0.106336
0.112734
0.119403
0.126345
0.133564
0.141061
0.148839
0.156899
0.16524
0.173863
0.182767
0.19195
0.20141
0.211144
0.221149
0.231419
0.241949
0.252734
0.263767
0.275039
0.286544
0.298272
0.310212
0.322356
0.334691
0.347207
0.35989
0.372729
0.385708
0.398816
0.412037
0.425356
0.438758
0.452228
0.465751
0.479309
0.492887
0.506468
0.520037
0.533576
0.54707
0.560502
0.573855
0.587115
0.600265
0.613289
0.626173
0.638902
0.65146
0.663836
0.676013
0.687981
0.699725
0.711235
0.722498
0.733504
0.744242
0.754703
0.764878
0.774757
0.784333
0.793598
0.802546
0.81117
0.819465
0.827425
0.835045
0.842322
0.849251
0.855829
0.862052
0.867919
0.873427
0.878574
0.883359
0.887779
0.891834
0.895522
0.898844
0.901797
0.904383
0.906599
0.908447
0.909925
0.911034
0.911774
0.912143
0.912143
0.911774
0.911034
0.909925
0.908447
0.906599
0.904383
0.901797
0.898844
0.895522
0.891834
0.887779
0.883359
0.878574
0.873427
0.867919
0.862052
0.855829
0.849251
0.842322
0.835045
0.827425
0.819465
0.81117
0.802546
0.793598
0.784333
0.774757
0.764878
0.754703
0.744242
0.733504
0.722498
0.711235
0.699725
0.687981
0.676013
0.663836
0.65146
0.638902
0.626173
0.613289
0.600265
0.587115
0.573855
0.560502
0.54707
0.533576
0.520037
0.506468
0.492887
0.479309
0.465751
0.452228
0.438758
0.425356
0.412037
0.398816
0.385708
0.372729
0.35989
0.347207
0.334691
0.322356
0.310212
0.298272
0.286544
0.275039
0.263767
0.252734
0.241949
0.231419
0.221149
0.211144
0.20141
0.19195
0.182767
0.173863
0.16524
0.156899
0.148839
0.141061
0.133564
0.126345
0.119403
0.112734
0.106336
0.100204
0.0943348
0.0887229
0.0833635
0.0782513
0.0733805
0.0687452
0.064339
0.0601555
0.0561881
0.05243
0.0488744
0.0455141
0.0423423
0.0393517
0.0365353
0.0338861
0.0313971
0.0290612
0.0268716
0.0248215
0.0229043
0.0211134
0.0194425
0.0178853
0.0164358
0.0150881
0.0138365
0.0126755
0.0115998
0.0106043
0.00968408
0.00883444
0.00805087
0.00732907
0.00666496
0.00605462
0.00549435
0.00498065
0.00451019
0.00407983
0.00368662
0.00332775
0.00300061
0.00270274
0.00243184
0.00218575
0.00196246
0.00176009
0.0015769
0.00141125
0.00126164
0.00112668
0.00100507
0.00089562
0.000797225
0.000708873
0.000629631
0.000558641
0.000495117
0.000438341
0.000387654
0.000342455
0.000302197
0.000266382
0.000234555
0.000206306
0.000181261
0.000159083
0.000139466
0.000122134
0.000106839
9.33572e-05
8.14874e-05
7.10488e-05
6.18794e-05
5.38344e-05
4.67838e-05
4.06121e-05
3.52157e-05
3.05029e-05
2.63917e-05
2.28095e-05
1.96918e-05
1.69816e-05
1.46282e-05
1.25871e-05
1.08188e-05
9.28871e-06
7.96621e-06
6.82446e-06
5.8399e-06
4.99186e-06
4.26225e-06
3.63526e-06
3.09708e-06
2.63565e-06
2.24049e-06
1.90247e-06
1.61365e-06
1.36717e-06
1.15705e-06
9.78145e-07
8.25984e-07
6.9672e-07
5.87034e-07
4.94068e-07
4.15363e-07
3.48809e-07
2.92594e-07
2.45166e-07
2.05198e-07
1.71556e-07
1.43269e-07
1.19514e-07
9.95872e-08
8.28905e-08
6.89165e-08
5.72346e-08
4.74801e-08
3.93443e-08
3.25664e-08
2.69261e-08
2.2238e-08
1.83457e-08
1.51179e-08
1.24441e-08
1.02318e-08
8.40347e-09
6.89417e-09
5.64966e-09
4.62465e-09
3.7814e-09
3.08847e-09
2.51971e-09
2.05341e-09
1.67154e-09
1.35917e-09
1.10394e-09
8.9565e-10
7.25849e-10
5.87585e-10
4.7513e-10
3.83769e-10
3.09631e-10
2.49538e-10
2.00884e-10
1.61536e-10
1.29752e-10
1.04105e-10
8.34348e-11
6.67944e-11
5.34133e-11
4.26654e-11
3.40424e-11
2.71319e-11
2.16002e-11
1.71772e-11
1.36447e-11
1.08266e-11
8.58103e-12
6.79364e-12
5.37259e-12
4.24406e-12
3.34886e-12
2.63955e-12
2.07817e-12
1.63436e-12
1.28391e-12
1.00748e-12
7.89691e-13
6.18295e-13
4.83562e-13
3.77769e-13
2.94794e-13
2.29789e-13
1.78919e-13
1.39157e-13
1.08111e-13
8.3898e-14
6.50359e-14
5.03585e-14
3.89503e-14
3.00932e-14
2.32244e-14
1.79035e-14
1.37864e-14
1.06043e-14
8.14769e-15
6.25323e-15
4.79395e-15
3.67115e-15
2.80821e-15
2.14574e-15
1.63774e-15
1.24862e-15
9.50905e-16
7.23375e-16
5.49679e-16
4.1723e-16
3.16345e-16
2.39589e-16
1.81257e-16
1.36975e-16
1.03397e-16
7.79643e-17
5.87225e-17
4.41809e-17
3.32036e-17
2.49262e-17
1.86917e-17
1.40011e-17
1.04761e-17
7.82987e-18
5.84565e-18
4.35946e-18
3.24754e-18
2.41656e-18
1.79624e-18
1.33368e-18
9.89149e-19
7.32815e-19
5.42312e-19
4.00892e-19
2.96024e-19
2.18349e-19
1.60878e-19
1.18404e-19
8.70481e-20
6.39257e-20
4.68938e-20
3.4362e-20
2.51516e-20
1.83898e-20
1.34311e-20
9.79876e-21
7.14093e-21
5.19831e-21
3.78003e-21
2.7457e-21
1.99221e-21
1.44391e-21
1.04538e-21
7.56016e-22
5.46153e-22
3.94115e-22
2.8409e-22
2.04558e-22
1.4713e-22
1.0571e-22
7.5867e-23
5.43898e-23
3.89501e-23
2.78629e-23
1.991e-23
1.42116e-23
1.01331e-23
7.21719e-24
5.13478e-24
3.64924e-24
2.59067e-24
1.83717e-24
1.30141e-24
9.20887e-25
6.5092e-25
4.59597e-25
3.24157e-25
2.28383e-25
1.60731e-25
1.12997e-25
7.93524e-26
5.56652e-26
3.90066e-26
2.73037e-26
1.90913e-26
1.33346e-26
9.30363e-27
6.4842e-27
4.51431e-27
3.13947e-27
2.18099e-27
1.51349e-27
1.04915e-27
7.2649e-28
5.02518e-28
3.4722e-28
2.39657e-28
1.65237e-28
1.13804e-28
7.8296e-29
5.38089e-29
3.69404e-29
2.53327e-29
1.73538e-29
1.18752e-29
8.11749e-30
5.54288e-30
3.7808e-30
2.57611e-30
1.7534e-30
1.19215e-30
8.09682e-31
5.4933e-31
3.72295e-31
2.52044e-31
1.70451e-31
1.15149e-31
7.77061e-32
5.23825e-32
3.52738e-32
2.37277e-32
1.59439e-32
1.07021e-32
7.17599e-33
4.80652e-33
3.21601e-33
2.14951e-33
1.43516e-33
9.57191e-34
6.37726e-34
4.24432e-34
2.82176e-34
1.874e-34
1.24325e-34
8.23921e-35
5.45446e-35
3.60709e-35
2.38288e-35
1.57248e-35
1.03659e-35
6.82609e-36
4.4903e-36
2.95065e-36
1.93688e-36
1.27007e-36
8.31939e-37
5.44374e-37
3.55832e-37
2.32345e-37
1.51552e-37
9.87495e-38
6.42759e-38
4.17931e-38
2.71458e-38
1.76134e-38
1.14163e-38
7.39183e-39
4.78103e-39
3.08911e-39
1.99384e-39
1.28555e-39
8.28004e-40
5.32746e-40
3.42414e-40
2.19851e-40
1.4101e-40
9.03472e-41
5.78263e-41
3.69728e-41
2.36148e-41
1.50671e-41
9.60337e-42
6.11453e-42
3.88909e-42
2.47104e-42
1.56841e-42
9.94454e-43
6.29879e-43
3.98545e-43
2.51909e-43
1.59059e-43
1.00328e-43
6.32169e-44
3.97917e-44
2.50208e-44
1.57166e-44
9.86195e-45
6.18184e-45
3.87098e-45
2.42145e-45
1.51314e-45
9.44564e-46
5.89027e-46
3.66935e-46
2.28346e-46
1.41954e-46
8.81565e-47
5.46905e-47
3.38938e-47
2.09837e-47
1.29776e-47
8.01785e-48
4.94851e-48
3.05101e-48
1.87917e-48
1.15622e-48
7.1067e-49
4.36364e-49
2.6766e-49
1.64011e-49
1.00396e-49
6.13924e-50
3.75036e-50
2.28874e-50
1.39544e-50
8.50097e-51
5.17645e-51
3.15379e-51
1.92773e-51
1.19074e-51
7.57253e-52
5.17727e-52
4.11456e-52
)
;

boundaryField
{
    sides
    {
        type            zeroGradient;
    }
    empty
    {
        type            empty;
    }
}


// ************************************************************************* //
