/*--------------------------------*- C++ -*----------------------------------*\
  =========                 |
  \\      /  F ield         | OpenFOAM: The Open Source CFD Toolbox
   \\    /   O peration     | Website:  https://openfoam.org
    \\  /    A nd           | Version:  13
     \\/     M anipulation  |
\*---------------------------------------------------------------------------*/
FoamFile
{
    format      ascii;
    class       volScalarField;
    location    "0.003";
    object      p;
}
// * * * * * * * * * * * * * * * * * * * * * * * * * * * * * * * * * * * * * //

dimensions      [1 -1 -2 0 0 0 0];

internalField   nonuniform List<scalar> 
1000
(
100000
100000
100000
100000
100000
100000
100000
100000
100000
100000
100000
100000
100000
100000
100000
100000
100000
100000
100000
100000
100000
100000
100000
100000
100000
100000
100000
100000
100000
100000
100000
100000
100000
100000
100000
100000
100000
100000
100000
100000
100000
100000
100000
100000
100000
100000
100000
100000
100000
100000
100000
100000
100000
100000
100000
100000
100000
100000
100000
100000
100000
100000
100000
100000
100000
100000
100000
100000
100000
100000
100000
100000
100000
100000
100000
100000
100000
100000
100000
100000
100000
100000
100000
100000
100000
100000
100000
100000
100000
100000
100000
100000
100000
100000
100000
100000
100000
100000
100000
100000
100000
100000
100000
100000
100000
100000
100000
100000
100000
100000
100000
100000
100000
100000
100000
100000
100000
100000
100000
100000
100000
100000
100000
100000
100000
100000
100000
100000
100000
100000
100000
100000
100000
100000
100000
100000
100000
100000
100000
100000
100000
100000
100000
100000
100000
100000
100000
100000
100000
100000
100000
100000
100000
100000
100000
100000
100000
100000
100000
100000
100000
100000
100000
100000
100000
100000
100000
100000
100000
100000
100000
100000
100000
100000
100000
100000
100000
100000
100000
100000
100000
100000
100000
100000
100000
100000
100000
100000
100000
100000
100000
100000
100000
100000
100000
100000
100000
100000
100000
100000
100000
100000
100000
100000
100000
100000
100000
100000
100000
100000
100000
100000
100000
100000
100000
100000
100000
100000
100000
100000
100000
100000
100000
100000
100000
100000
100000
100000
100000
100000
100000
100000
100000
100000
100000
100000
100000
100000
100000
100000
100000
100000
100000
100000
100000
100000
100000
100000
100000
100000
100000
100000
100000
100000
100000
100000
100000
100000
100000
100000
100000
100000
100000
100000
100000
100000
100000
100000
100000
100000
100000
100000
100000
100000
100000
100000
100000
100000
100000
100000
100000
100000
100000
100000
100000
100000
100000
100000
100000
100000
100000
100000
100000
100000
100000
100000
100000
100000
100000
100000
100000
100000
100000
100000
100000
100000
100000
100000
100000
100000
100000
100000
100000
100000
100000
100000
100000
100000
100000
100000
100000
100000
100000
100000
100000
100000
100000
100000
100000
100000
100000
100000
100000
100000
100000
100000
100000
100000
100000
100000
100000
100000
100000
100000
100000
100000
100000
100000
100000
100000
100000
100000
100000
100000
100000
100000
100000
100000
100000
100000
100000
100000
100000
99999.9
99999.9
99999.7
99999.5
99999
99998.2
99996.6
99993.8
99988.9
99980.5
99966.4
99943.2
99906
99847.7
99758.9
99628.3
99443.4
99195.2
98884
98511.8
98079.3
97589.6
97047.1
96457.6
95827
95161.2
94466.1
93746.5
93007
92251.3
91482.8
90704.2
89917.8
89125.7
88329.4
87530.3
86729.7
85928.5
85127.6
84327.6
83529.3
82733.2
81939.6
81149.1
80361.9
79578.3
78798.7
78023.1
77251.9
76485.2
75723.1
74965.8
74213.4
73466
72723.7
71986.5
71254.5
70527.8
69806.5
69090.5
68379.9
67674.8
66975.2
66281.1
65592.5
64909.4
64231.9
63560
62893.6
62232.8
61577.6
60928
60283.9
59645.4
59012.5
58385.2
57763.4
57147.1
56536.4
55931.3
55331.7
54737.5
54148.9
53565.8
52988.1
52415.9
51849.2
51287.9
50732
50181.5
49636.4
49096.7
48562.3
48033.4
47509.7
46991.4
46478.5
45970.8
45468.5
44971.5
44479.8
43993.4
43512.4
43036.6
42566.2
42101.1
41641.3
41187
40738
40294.4
39856.3
39423.7
38996.7
38575.2
38159.5
37749.5
37345.3
36947
36554.9
36169.1
35789.3
35415.9
35049.5
34690.1
34337.6
33991.8
33653.9
33324.9
33003.8
32690
32385.1
32091.6
31809
31534.4
31268.8
31018.4
30784.7
30561.6
30345.9
30148.9
29981
29833.4
29681.2
29681.8
29692.7
29718.8
29745
29766.1
29791.4
29828.6
29906.9
29982
30025.3
30056.1
30101.9
30166.2
30170.7
30169.2
30159.6
30192
30226.2
30230.4
30225.9
30214.9
30239.1
30265.2
30267.4
30259.7
30249.6
30267
30286.6
30288.1
30277.8
30269.3
30281.8
30297
30298.1
30285.1
30278
30287.7
30302.4
30301.8
30285.3
30279.9
30289.3
30303
30300.9
30284.2
30280.1
30288.9
30302.3
30298.7
30283.8
30279.3
30287.8
30301.8
30297.8
30282.3
30278.5
30290
30302.6
30296.6
30281.3
30279
30292.5
30303.6
30297.3
30281
30278.9
30294.4
30306
30299.5
30283.9
30282
30297.5
30308.6
30303.6
30290.4
30288.7
30304.5
30311.5
30306.2
30291.8
30290
30301.6
30306.4
30294.3
30282.5
30283.5
30306.6
30312.7
30309.2
30296.1
30297.5
30310.6
30313.9
30307.1
30298.3
30298.5
30309.3
30313.8
30309.5
30299.8
30299.9
30310.5
30314.1
30309.8
30301.9
30303.1
30310.9
30313.1
30309
30303.2
30305.3
30310.9
30312.2
30307.9
30303.5
30305.6
30310.3
30310.6
30305
30302.3
30303.8
30307.6
30306.4
30299.7
30298.5
30299.2
30300.6
30298.4
30290.3
30287.6
30286.6
30286.9
30285.4
30271.3
30264.1
30261.9
30261.4
30262.6
30243.9
30219.5
30212.7
30208.8
30208.5
30208.7
30166.8
30127.6
30115.3
30108.1
30107
30083.5
29970.2
29894.9
29844.8
29780.5
29692.2
29480.1
29069.1
28655.5
28140.9
27179.9
25164.2
20567.1
12403.1
10438.1
10066.2
10009.8
10001.4
10000.2
10000
10000
10000
10000
10000
10000
10000
10000
10000
10000
10000
10000
10000
10000
10000
10000
10000
10000
10000
10000
10000
10000
10000
10000
10000
10000
10000
10000
10000
10000
10000
10000
10000
10000
10000
10000
10000
10000
10000
10000
10000
10000
10000
10000
10000
10000
10000
10000
10000
10000
10000
10000
10000
10000
10000
10000
10000
10000
10000
10000
10000
10000
10000
10000
10000
10000
10000
10000
10000
10000
10000
10000
10000
10000
10000
10000
10000
10000
10000
10000
10000
10000
10000
10000
10000
10000
10000
10000
10000
10000
10000
10000
10000
10000
10000
10000
10000
10000
10000
10000
10000
10000
10000
10000
10000
10000
10000
10000
10000
10000
10000
10000
10000
10000
10000
10000
10000
10000
10000
10000
10000
10000
10000
10000
10000
10000
10000
10000
10000
10000
10000
10000
10000
10000
10000
10000
10000
10000
10000
10000
10000
10000
10000
10000
10000
10000
10000
10000
10000
10000
10000
10000
10000
10000
10000
10000
10000
10000
10000
10000
10000
10000
10000
10000
10000
10000
10000
10000
10000
10000
10000
10000
10000
10000
10000
10000
10000
10000
10000
10000
10000
10000
10000
10000
10000
10000
10000
10000
10000
10000
10000
10000
10000
10000
10000
10000
10000
10000
10000
10000
10000
10000
10000
10000
10000
10000
10000
10000
10000
10000
10000
10000
10000
10000
10000
10000
10000
10000
10000
10000
10000
10000
10000
10000
10000
10000
10000
10000
10000
10000
10000
10000
10000
10000
10000
10000
10000
10000
10000
10000
10000
10000
10000
10000
10000
10000
10000
10000
10000
10000
10000
10000
10000
10000
10000
10000
10000
10000
10000
10000
10000
10000
10000
10000
10000
10000
10000
10000
10000
10000
10000
10000
10000
10000
10000
10000
10000
10000
10000
10000
10000
10000
10000
10000
10000
10000
10000
10000
10000
10000
10000
10000
10000
10000
10000
10000
10000
10000
10000
10000
10000
10000
10000
10000
10000
10000
10000
10000
10000
10000
10000
10000
10000
10000
10000
10000
10000
10000
10000
10000
10000
10000
10000
10000
10000
10000
)
;

boundaryField
{
    sides
    {
        type            zeroGradient;
    }
    empty
    {
        type            empty;
    }
}


// ************************************************************************* //
