/*--------------------------------*- C++ -*----------------------------------*\
  =========                 |
  \\      /  F ield         | OpenFOAM: The Open Source CFD Toolbox
   \\    /   O peration     | Website:  https://openfoam.org
    \\  /    A nd           | Version:  13
     \\/     M anipulation  |
\*---------------------------------------------------------------------------*/
FoamFile
{
    format      ascii;
    class       surfaceScalarField;
    location    "0.003";
    object      phi;
}
// * * * * * * * * * * * * * * * * * * * * * * * * * * * * * * * * * * * * * //

dimensions      [1 0 -1 0 0 0 0];

internalField   nonuniform List<scalar> 
999
(
9.30811e-13
-2.41585e-13
1.06581e-12
-4.9738e-14
-2.58638e-12
-3.39639e-12
-5.15143e-12
-2.97717e-12
-2.55085e-12
7.81597e-13
1.07292e-12
-1.78346e-12
-3.26139e-12
-2.45137e-12
9.23706e-13
1.68399e-12
2.57927e-12
4.51195e-12
7.87281e-12
9.02389e-12
1.19229e-11
1.07292e-11
9.32943e-12
8.70415e-12
6.59384e-12
4.24905e-12
6.18883e-12
5.28644e-12
7.7307e-12
3.06244e-12
7.10543e-15
2.6148e-12
4.67537e-12
5.01643e-12
4.30589e-12
4.90274e-13
-5.13722e-12
-4.36984e-12
-1.64846e-12
-2.65743e-12
-3.1477e-12
-4.41247e-12
-3.6664e-12
-1.73372e-12
1.68399e-12
-7.95808e-13
-4.49063e-12
3.76588e-13
2.46558e-12
1.60583e-12
-1.22213e-12
-1.46372e-12
-2.08189e-12
-1.13687e-12
-1.20082e-12
2.21689e-12
2.30216e-12
-8.95284e-13
1.60583e-12
-2.30926e-12
-1.68399e-12
-4.83169e-13
-3.16192e-12
-4.56168e-12
-1.60583e-12
-3.76588e-13
-6.6791e-13
-3.43192e-12
-2.55795e-12
1.99663e-12
5.74119e-12
6.30962e-12
7.97939e-12
4.89564e-12
3.1477e-12
2.18847e-12
4.54037e-12
1.82609e-12
5.42855e-12
6.77147e-12
3.83693e-12
-6.18172e-13
-1.14397e-12
-1.80478e-12
-3.10507e-12
3.33955e-13
2.58638e-12
1.93978e-12
6.6791e-13
1.39266e-12
6.03961e-13
-1.92557e-12
1.62004e-12
5.88329e-12
7.53175e-12
9.79128e-12
1.17666e-11
9.59943e-12
9.63496e-12
9.05942e-12
9.13758e-12
9.76286e-12
7.14095e-12
4.44089e-12
-2.84217e-14
-4.83169e-13
3.48876e-12
2.60059e-12
1.10134e-12
4.05009e-12
2.06768e-12
-5.8975e-13
2.12452e-12
3.7943e-12
4.4551e-12
1.27187e-12
-9.23706e-13
-7.10543e-14
7.60281e-13
1.8332e-12
4.96669e-12
6.61515e-12
5.7554e-12
2.20268e-12
-5.18696e-13
-2.60769e-12
-8.95284e-13
7.95808e-13
6.39488e-14
-5.7554e-13
-6.6791e-13
1.39977e-12
2.60059e-12
3.25429e-12
2.41585e-12
4.33431e-13
-3.03402e-12
-4.1851e-12
-3.78719e-12
-6.35225e-12
-9.64917e-12
-1.12905e-11
-1.03668e-11
-5.86198e-12
-2.38742e-12
-3.19744e-12
-1.7053e-12
4.83169e-13
1.44951e-12
1.08713e-12
-4.1922e-13
1.49214e-13
-1.49214e-13
-2.89901e-12
-1.32161e-12
2.15294e-12
2.65032e-12
1.28608e-12
4.40536e-13
2.41585e-12
3.48876e-12
3.75167e-12
4.70379e-12
4.32721e-12
2.41585e-12
2.13163e-13
-1.47793e-12
4.12115e-13
3.61666e-12
5.1017e-12
4.12825e-12
8.17124e-12
1.04947e-11
9.45732e-12
5.06617e-12
4.42668e-12
2.21689e-12
-1.0445e-12
3.62377e-13
4.40536e-13
-3.01981e-12
-4.26326e-13
1.39977e-12
2.34479e-13
4.25615e-12
4.88853e-12
4.02878e-12
3.8014e-12
3.52429e-12
5.05196e-12
5.87619e-12
2.83507e-12
-6.6791e-13
7.31859e-13
2.38742e-12
1.33582e-12
1.79767e-12
2.03926e-12
-1.27898e-13
-3.02691e-12
-3.91509e-12
1.09424e-12
4.68958e-12
1.16529e-12
4.12115e-12
2.72848e-12
3.68772e-12
3.36797e-12
5.97566e-12
5.52802e-12
7.53886e-12
7.74492e-12
1.02105e-11
9.33653e-12
5.20828e-12
6.10356e-12
2.83507e-12
-1.50635e-12
-4.95959e-12
-2.06057e-12
2.20979e-12
1.73372e-12
1.62004e-12
5.17275e-12
7.97939e-12
5.02354e-12
1.33582e-12
-6.53699e-13
-1.62004e-12
1.52767e-12
4.73221e-12
4.77485e-12
2.70006e-13
-4.69669e-12
-4.54747e-12
-7.14806e-12
-7.10543e-12
-5.4996e-12
-3.33955e-12
-5.30065e-12
-9.90497e-12
-6.942e-12
-4.41247e-12
-7.16227e-12
-6.12488e-12
-3.0127e-12
-3.48876e-12
-4.50484e-12
-1.55609e-12
1.45661e-12
-7.17648e-13
-4.36273e-12
-5.13012e-12
-2.60059e-12
-2.64322e-12
-5.62039e-12
-8.22808e-12
-9.67759e-12
-6.03961e-12
-1.39266e-12
2.47269e-12
3.54561e-12
2.359e-12
2.84217e-14
1.7053e-13
2.69296e-12
5.96856e-12
8.3844e-12
8.29203e-12
6.82832e-12
3.4035e-12
2.40874e-12
1.35714e-12
-2.30926e-12
-6.30962e-12
-8.21387e-12
-4.99512e-12
-6.12488e-12
-6.86384e-12
-4.60432e-12
-5.81935e-12
-7.41096e-12
-3.80851e-12
-5.69855e-12
-7.14095e-12
-4.48352e-12
-2.40163e-12
-2.16005e-12
3.05533e-13
1.65556e-12
1.16529e-12
5.47118e-13
-2.8848e-12
-5.7625e-12
-6.63647e-12
-7.56017e-12
-8.63309e-12
-1.14682e-11
-1.3074e-11
-9.52127e-12
-1.14753e-11
-9.0381e-12
-8.55493e-12
-5.05906e-12
-4.93827e-12
-5.14433e-12
-4.66827e-12
-3.28981e-12
7.17648e-13
-3.48166e-13
-4.03588e-12
-8.65441e-12
-8.1144e-12
-5.47118e-12
-2.47269e-12
3.19744e-13
2.06057e-12
-1.19371e-12
-2.26663e-12
-3.70903e-12
-3.87246e-12
-5.05196e-12
6.46594e-13
5.03064e-12
1.08713e-12
-4.14957e-12
-1.35714e-12
2.44427e-12
5.05196e-12
3.33955e-12
3.91509e-12
2.55795e-12
2.96296e-12
2.40874e-12
1.60583e-12
-7.81597e-13
2.01084e-12
2.75691e-12
4.59721e-12
4.14957e-12
6.35225e-12
1.57883e-11
4.20002e-11
1.03839e-10
2.49962e-10
6.1366e-10
1.4959e-09
3.6136e-09
8.63441e-09
2.04268e-08
4.78292e-08
1.1081e-07
2.5393e-07
5.75473e-07
1.28953e-06
2.85656e-06
6.25415e-06
1.35303e-05
2.89173e-05
6.10389e-05
0.000127215
0.000261715
0.00053131
0.00106403
0.00210136
0.00409095
0.00784788
0.0148285
0.0275839
0.0504894
0.0908831
0.160777
0.279322
0.476162
0.795678
1.30174
2.08189
3.2486
4.93273
7.2593
10.2763
13.9425
18.2463
23.1644
28.6491
34.6405
41.0704
47.8702
54.9738
62.3214
69.8598
77.5431
85.3323
93.1941
101.101
109.029
116.959
124.875
132.763
140.611
148.41
156.152
163.829
171.436
178.968
186.42
193.79
201.074
208.27
215.375
222.388
229.307
236.132
242.86
249.492
256.027
262.463
268.801
275.041
281.182
287.225
293.169
299.014
304.761
310.41
315.96
321.413
326.769
332.028
337.191
342.257
347.228
352.104
356.885
361.573
366.167
370.668
375.078
379.395
383.622
387.759
391.806
395.764
399.634
403.416
407.112
410.721
414.246
417.685
421.041
424.313
427.503
430.611
433.639
436.586
439.454
442.243
444.954
447.588
450.146
452.628
455.036
457.369
459.629
461.816
463.932
465.976
467.95
469.855
471.692
473.459
475.16
476.794
478.364
479.867
481.304
482.681
483.996
485.246
486.432
487.561
488.637
489.647
490.59
491.482
492.333
493.123
493.834
494.49
495.13
495.731
496.228
496.639
497.068
497.523
497.859
498.014
498.188
498.535
498.821
498.741
498.556
498.797
499.136
498.922
498.447
498.297
498.675
498.999
498.512
497.787
497.164
497.683
499.179
498.294
497.254
495.845
498.689
498.505
498.007
496.781
496.354
498.701
498.553
498.156
497.015
496.86
498.615
498.544
498.266
497.213
497.155
498.495
498.511
498.258
497.337
497.314
498.394
498.495
498.128
497.326
497.315
498.278
498.438
497.896
497.213
497.223
498.211
498.394
497.693
497.186
497.242
498.124
498.233
497.391
496.929
496.91
497.753
497.864
496.971
496.524
496.609
497.567
497.623
496.659
496.285
496.329
497.164
497.081
495.993
495.486
495.538
496.244
495.944
494.704
493.976
493.805
493.774
492.369
489.465
485.865
481.352
474.92
465.105
451.131
434.394
415.199
394.035
371.666
349.784
332.256
320.804
314.854
311.768
309.969
309.276
309.454
309.699
309.689
309.337
309.404
309.87
310.414
310.64
310.383
310.314
310.55
310.826
310.837
310.502
310.424
310.665
310.817
310.791
310.538
310.515
310.732
310.819
310.773
310.577
310.595
310.779
310.844
310.775
310.605
310.616
310.75
310.797
310.655
310.56
310.565
310.664
310.721
310.521
310.434
310.464
310.53
310.644
310.374
310.081
310.108
310.188
310.368
310.319
309.404
309.318
309.389
309.551
309.905
309.571
308.004
307.95
308.132
308.546
309.112
306.981
304.582
304.439
304.417
304.324
303.306
296.065
289.101
285.288
278.037
259.821
215.156
83.1413
17.2412
2.7592
0.412446
0.0602984
0.00881501
0.00128935
0.000188564
2.75797e-05
4.03373e-06
5.89905e-07
8.62668e-08
1.26148e-08
1.84433e-09
2.69291e-10
3.91389e-11
5.28066e-12
3.02425e-13
-4.24549e-13
-3.04201e-13
-2.02505e-13
-5.97744e-13
-4.82281e-13
-8.37996e-13
-6.39488e-14
3.47278e-13
-1.95399e-14
-3.13527e-13
1.65201e-13
-1.26121e-13
4.17e-13
6.6569e-13
4.91607e-13
1.1724e-13
3.73035e-13
5.88862e-13
8.57092e-13
1.08091e-12
1.6267e-12
1.03118e-12
-1.06581e-13
-1.05249e-13
4.20108e-13
-5.58664e-13
-1.20082e-12
-1.3709e-12
-6.0707e-13
-2.43805e-13
-6.14619e-13
-1.15419e-12
-7.02993e-13
-1.00542e-12
-1.17728e-12
-1.07914e-12
-1.12399e-12
-7.50511e-13
-1.25633e-12
-1.58007e-12
-1.24523e-12
-1.21325e-12
-1.03428e-12
-6.67022e-13
-2.2915e-13
1.25233e-13
4.67626e-13
-6.01741e-13
-6.40377e-13
1.38556e-13
-5.57776e-13
3.61933e-13
2.46025e-13
-5.08926e-13
2.74891e-13
4.3876e-13
2.20712e-13
-2.08722e-13
-6.26166e-13
3.74811e-13
7.6561e-13
1.41043e-12
3.71259e-13
3.06422e-14
6.60805e-13
9.34364e-13
5.71099e-13
3.11751e-13
-1.52767e-13
1.95843e-13
-6.12843e-14
-8.18901e-13
-8.1446e-13
-8.05134e-13
-1.11999e-12
-8.95728e-13
3.84581e-13
4.90274e-13
9.24594e-13
6.1906e-13
3.97904e-13
7.56284e-13
7.98472e-13
1.12088e-12
1.46283e-12
1.43441e-12
1.24745e-12
1.42286e-12
8.66862e-13
3.64153e-14
-4.13891e-13
-7.07878e-13
1.04361e-13
1.84741e-13
-3.66818e-13
-3.76588e-13
-8.26006e-14
-1.98952e-13
-2.20712e-13
-1.89182e-13
6.61693e-13
5.32907e-13
1.88294e-13
1.1009e-12
1.15596e-12
3.12639e-13
6.07514e-13
6.22169e-13
5.50671e-14
1.69198e-13
-7.01661e-14
-9.50795e-13
-2.91323e-13
-7.28306e-14
-1.82965e-13
4.85834e-13
5.07594e-13
8.00693e-13
5.66658e-13
4.86278e-13
1.25233e-13
-8.60645e-13
-1.25588e-12
-9.75664e-13
-5.44453e-13
-2.98428e-13
-4.68514e-13
-6.98552e-13
-9.69003e-13
-1.63247e-12
-1.74438e-12
-1.30917e-12
-1.46017e-12
-2.01794e-12
-1.7244e-12
-1.42464e-12
-1.68043e-12
-1.78435e-12
-1.71729e-12
-5.96856e-13
-3.73035e-13
3.69482e-13
2.06501e-13
4.00568e-13
6.42153e-13
8.18012e-13
1.17772e-12
8.35776e-13
3.61933e-13
5.01821e-13
7.78044e-13
6.63025e-13
-4.90274e-13
-3.88578e-13
-6.4837e-14
9.68114e-14
9.76996e-14
-1.28342e-13
-2.74447e-13
-1.18749e-12
-1.1795e-12
-1.3336e-12
-9.72555e-13
-6.93223e-13
-2.93099e-13
-4.26326e-14
4.88498e-13
1.96732e-13
4.00568e-13
6.42153e-13
8.18012e-13
1.17772e-12
8.35776e-13
3.61933e-13
5.01821e-13
7.78044e-13
6.63025e-13
-4.90274e-13
-3.88578e-13
-6.4837e-14
5.9952e-14
-6.12843e-14
-2.77556e-13
-2.77112e-13
-1.01297e-12
-9.6545e-13
-9.71667e-13
-8.44658e-13
-7.18092e-13
-3.24185e-13
-1.42109e-13
3.75699e-13
7.45626e-13
5.66658e-13
2.32703e-13
7.83373e-13
1.45306e-12
1.3749e-12
7.18536e-13
8.66862e-13
1.21503e-12
1.00631e-12
5.44453e-13
2.50022e-13
-6.89226e-13
-9.34364e-13
-8.34888e-14
1.86517e-13
-7.28306e-14
-4.8761e-13
-2.22045e-14
-6.31051e-13
-4.8539e-13
3.56604e-13
6.60805e-13
3.57048e-13
-1.15463e-14
-3.33955e-13
-8.52651e-14
-3.08642e-13
-6.03073e-13
-1.7053e-13
2.23821e-13
-1.88294e-13
-4.91607e-13
-2.96652e-13
-9.82325e-13
-8.42881e-13
-4.30322e-13
-2.89102e-13
-6.55476e-13
-1.75771e-12
-1.46372e-12
-1.49702e-12
-1.94378e-12
-1.76481e-12
-1.33404e-12
-2.88214e-13
4.37428e-13
2.03393e-13
1.36779e-13
-1.9762e-13
-5.90639e-13
-6.22613e-13
-4.48086e-13
-5.9508e-14
7.59393e-14
2.57572e-14
-1.06581e-12
-1.36424e-12
-5.39568e-13
-1.48326e-13
2.50466e-13
5.86198e-13
1.18971e-12
9.91207e-13
6.59917e-13
6.99441e-13
6.61693e-13
1.65645e-12
1.93712e-12
2.27462e-12
2.7538e-12
2.85594e-12
2.41274e-12
2.39853e-12
2.09299e-12
2.25997e-12
2.4607e-12
2.36344e-12
2.07034e-12
1.73905e-12
1.40732e-12
1.90514e-12
1.5925e-12
2.16271e-12
2.47358e-12
2.6259e-12
2.26485e-12
2.13563e-12
2.21423e-12
1.89448e-12
2.09566e-12
1.83942e-12
2.22e-12
1.96287e-12
1.79945e-12
1.53033e-12
1.93978e-12
1.7133e-12
1.10845e-12
1.03073e-12
1.54987e-12
1.7244e-12
1.8594e-12
1.44551e-12
9.43245e-13
8.60645e-13
1.16795e-12
1.36913e-12
1.90647e-12
2.29505e-12
2.23244e-12
2.57216e-12
2.88747e-12
2.92788e-12
2.50777e-12
2.4114e-12
1.90514e-12
1.83142e-12
1.84519e-12
2.1263e-12
2.49178e-12
2.91056e-12
)
;

boundaryField
{
    sides
    {
        type            calculated;
        value           nonuniform List<scalar> 2(2.81434e-12 -1.72295e-12);
    }
    empty
    {
        type            empty;
    }
}


// ************************************************************************* //
