/*--------------------------------*- C++ -*----------------------------------*\
  =========                 |
  \\      /  F ield         | OpenFOAM: The Open Source CFD Toolbox
   \\    /   O peration     | Website:  https://openfoam.org
    \\  /    A nd           | Version:  13
     \\/     M anipulation  |
\*---------------------------------------------------------------------------*/
FoamFile
{
    format      ascii;
    class       volVectorField;
    location    "0.003";
    object      U;
}
// * * * * * * * * * * * * * * * * * * * * * * * * * * * * * * * * * * * * * //

dimensions      [0 1 -1 0 0 0 0];

internalField   nonuniform List<vector> 
1000
(
(4.31784e-13 0 0)
(1.31286e-14 0 0)
(-1.26909e-13 0 0)
(6.03914e-13 0 0)
(-6.14125e-13 0 0)
(-7.86255e-13 0 0)
(-9.48174e-13 0 0)
(-1.33911e-12 0 0)
(-4.68252e-13 0 0)
(-6.81227e-13 0 0)
(1.18741e-12 0 0)
(-7.62916e-13 0 0)
(-1.6046e-14 0 0)
(-1.75048e-12 0 0)
(3.3259e-13 0 0)
(3.15086e-13 0 0)
(3.22379e-13 0 0)
(1.07217e-12 0 0)
(1.27055e-12 0 0)
(2.45504e-12 0 0)
(2.37919e-12 0 0)
(3.54325e-12 0 0)
(1.69942e-12 0 0)
(2.73949e-12 0 0)
(1.97512e-12 0 0)
(1.04591e-12 0 0)
(1.28222e-12 0 0)
(1.53604e-12 0 0)
(1.39455e-12 0 0)
(2.07577e-12 0 0)
(-2.62571e-13 0 0)
(2.33397e-13 0 0)
(1.12468e-12 0 0)
(1.39892e-12 0 0)
(9.39422e-13 0 0)
(1.16698e-12 0 0)
(-8.30017e-13 0 0)
(-1.95616e-12 0 0)
(-1.38579e-13 0 0)
(-6.33089e-13 0 0)
(-7.42493e-13 0 0)
(-8.76696e-13 0 0)
(-1.46456e-12 0 0)
(-4.60959e-13 0 0)
(-3.23838e-13 0 0)
(1.16407e-12 0 0)
(-1.60314e-12 0 0)
(-5.42647e-13 0 0)
(6.89979e-13 0 0)
(7.01649e-13 0 0)
(1.16698e-14 0 0)
(-5.99538e-13 0 0)
(-9.19e-14 0 0)
(-8.57733e-13 0 0)
(1.9547e-13 0 0)
(-7.65833e-13 0 0)
(1.96053e-12 0 0)
(-9.16082e-13 0 0)
(5.44106e-13 0 0)
(1.82341e-13 0 0)
(-1.28222e-12 0 0)
(3.99692e-13 0 0)
(-5.70363e-13 0 0)
(-1.23263e-12 0 0)
(-8.98577e-13 0 0)
(1.54625e-13 0 0)
(-3.00498e-13 0 0)
(-1.54625e-13 0 0)
(-1.24721e-12 0 0)
(-2.94663e-13 0 0)
(1.48936e-12 0 0)
(1.07654e-12 0 0)
(2.40982e-12 0 0)
(1.33328e-12 0 0)
(1.14364e-12 0 0)
(3.4426e-13 0 0)
(9.24835e-13 0 0)
(1.08675e-12 0 0)
(-1.75048e-14 0 0)
(2.54402e-12 0 0)
(9.96312e-13 0 0)
(7.83338e-13 0 0)
(-1.03278e-12 0 0)
(3.93857e-13 0 0)
(-1.37704e-12 0 0)
(8.75238e-15 0 0)
(9.04412e-14 0 0)
(1.22096e-12 0 0)
(-5.68905e-14 0 0)
(2.8737e-13 0 0)
(5.03262e-13 0 0)
(-2.61113e-13 0 0)
(-5.76198e-13 0 0)
(1.32015e-12 0 0)
(1.43101e-12 0 0)
(2.56299e-12 0 0)
(2.40836e-12 0 0)
(3.24421e-12 0 0)
(1.91239e-12 0 0)
(2.58487e-12 0 0)
(2.04076e-12 0 0)
(2.73804e-12 0 0)
(1.85988e-12 0 0)
(1.89927e-12 0 0)
(5.1639e-13 0 0)
(-5.41189e-13 0 0)
(1.96928e-13 0 0)
(1.77382e-12 0 0)
(-5.74739e-13 0 0)
(1.17574e-12 0 0)
(8.94201e-13 0 0)
(7.29365e-14 0 0)
(-3.70517e-13 0 0)
(1.34641e-12 0 0)
(7.76044e-13 0 0)
(1.17865e-12 0 0)
(-4.04068e-13 0 0)
(-1.89635e-13 0 0)
(1.99846e-13 0 0)
(2.18809e-14 0 0)
(1.14656e-12 0 0)
(1.05029e-12 0 0)
(2.37627e-12 0 0)
(5.65987e-13 0 0)
(5.87868e-13 0 0)
(-8.76696e-13 0 0)
(-3.47178e-13 0 0)
(-1.32744e-13 0 0)
(4.40536e-13 0 0)
(-3.64682e-13 0 0)
(4.37619e-15 0 0)
(-2.90287e-13 0 0)
(1.03278e-12 0 0)
(2.24644e-13 0 0)
(1.25742e-12 0 0)
(9.04412e-14 0 0)
(1.16698e-13 0 0)
(-1.59439e-12 0 0)
(-4.01151e-13 0 0)
(-1.6542e-12 0 0)
(-1.59147e-12 0 0)
(-3.05458e-12 0 0)
(-2.95539e-12 0 0)
(-1.80007e-12 0 0)
(-1.396e-12 0 0)
(9.77349e-14 0 0)
(-1.54334e-12 0 0)
(6.02455e-13 0 0)
(-2.81535e-13 0 0)
(8.28558e-13 0 0)
(-1.63378e-13 0 0)
(-8.31476e-14 0 0)
(1.98387e-13 0 0)
(-3.09251e-13 0 0)
(-9.80266e-13 0 0)
(2.53819e-13 0 0)
(7.1186e-13 0 0)
(8.18347e-13 0 0)
(-3.22379e-13 0 0)
(6.30171e-13 0 0)
(4.17197e-13 0 0)
(1.41205e-12 0 0)
(5.29519e-13 0 0)
(1.71547e-12 0 0)
(6.22878e-13 0 0)
(4.46371e-13 0 0)
(-2.90287e-13 0 0)
(-5.82033e-13 0 0)
(7.93549e-13 0 0)
(9.11706e-13 0 0)
(1.61627e-12 0 0)
(7.52704e-13 0 0)
(2.97289e-12 0 0)
(2.52214e-12 0 0)
(1.93865e-12 0 0)
(8.22723e-13 0 0)
(1.27785e-12 0 0)
(-9.77349e-14 0 0)
(-4.77005e-13 0 0)
(6.92897e-13 0 0)
(-5.10555e-13 0 0)
(-8.73779e-13 0 0)
(6.03914e-13 0 0)
(1.34203e-13 0 0)
(3.50095e-14 0 0)
(1.9722e-12 0 0)
(6.12666e-13 0 0)
(1.26909e-12 0 0)
(7.27906e-13 0 0)
(1.10134e-12 0 0)
(1.27785e-12 0 0)
(1.65858e-12 0 0)
(5.83492e-15 0 0)
(-4.68252e-13 0 0)
(9.27752e-13 0 0)
(7.58539e-14 0 0)
(7.41035e-13 0 0)
(7.73127e-14 0 0)
(1.09842e-12 0 0)
(-1.20491e-12 0 0)
(-5.12014e-13 0 0)
(-1.17865e-12 0 0)
(1.63378e-12 0 0)
(4.23032e-13 0 0)
(3.82187e-13 0 0)
(1.38433e-12 0 0)
(2.02763e-13 0 0)
(1.27055e-12 0 0)
(8.19806e-13 0 0)
(1.69942e-12 0 0)
(1.45144e-12 0 0)
(1.98679e-12 0 0)
(2.14725e-12 0 0)
(2.72199e-12 0 0)
(1.88176e-12 0 0)
(9.26293e-13 0 0)
(1.74902e-12 0 0)
(2.91746e-15 0 0)
(-9.61303e-13 0 0)
(-1.30994e-12 0 0)
(3.03416e-13 0 0)
(7.78962e-13 0 0)
(1.42955e-13 0 0)
(6.00997e-13 0 0)
(2.04806e-12 0 0)
(1.77236e-12 0 0)
(6.94355e-13 0 0)
(6.27254e-14 0 0)
(-3.66141e-13 0 0)
(-4.53665e-13 0 0)
(1.1524e-12 0 0)
(1.09988e-12 0 0)
(1.51562e-12 0 0)
(-1.43539e-12 0 0)
(-7.65833e-13 0 0)
(-1.61335e-12 0 0)
(-1.79424e-12 0 0)
(-1.97804e-12 0 0)
(-6.59346e-13 0 0)
(-9.27752e-13 0 0)
(-1.86717e-12 0 0)
(-2.80368e-12 0 0)
(-9.20458e-13 0 0)
(-1.19324e-12 0 0)
(-2.52506e-12 0 0)
(-8.35852e-13 0 0)
(-4.02609e-13 0 0)
(-1.51854e-12 0 0)
(-8.6065e-13 0 0)
(1.26909e-13 0 0)
(6.69557e-13 0 0)
(-1.09113e-12 0 0)
(-9.04412e-13 0 0)
(-1.6965e-12 0 0)
(2.26103e-13 0 0)
(-1.41059e-12 0 0)
(-1.52437e-12 0 0)
(-2.77013e-12 0 0)
(-1.83071e-12 0 0)
(-1.24284e-12 0 0)
(3.95316e-13 0 0)
(9.16082e-13 0 0)
(8.02301e-13 0 0)
(5.20766e-13 0 0)
(-5.30978e-13 0 0)
(6.63722e-13 0 0)
(5.49941e-13 0 0)
(2.33397e-12 0 0)
(2.10786e-12 0 0)
(1.8132e-12 0 0)
(1.63524e-12 0 0)
(2.14433e-13 0 0)
(8.50439e-13 0 0)
(-7.58539e-14 0 0)
(-1.15823e-12 0 0)
(-2.0714e-12 0 0)
(-1.76215e-12 0 0)
(-1.07508e-12 0 0)
(-1.64836e-12 0 0)
(-1.72422e-12 0 0)
(-7.76044e-13 0 0)
(-2.00867e-12 0 0)
(-1.59147e-12 0 0)
(-3.66141e-13 0 0)
(-2.69281e-12 0 0)
(-7.58539e-13 0 0)
(-1.42664e-12 0 0)
(1.80882e-13 0 0)
(-1.19178e-12 0 0)
(1.30265e-12 0 0)
(-3.28214e-13 0 0)
(8.06677e-13 0 0)
(-6.06832e-13 0 0)
(-6.06832e-13 0 0)
(-2.38065e-12 0 0)
(-9.62762e-13 0 0)
(-2.76721e-12 0 0)
(-1.73151e-12 0 0)
(-3.91377e-12 0 0)
(-2.3894e-12 0 0)
(-2.66948e-12 0 0)
(-2.73366e-12 0 0)
(-2.06556e-12 0 0)
(-2.04368e-12 0 0)
(-5.12014e-13 0 0)
(-2.14287e-12 0 0)
(-2.65489e-13 0 0)
(-2.04368e-12 0 0)
(5.80574e-13 0 0)
(-3.12168e-13 0 0)
(1.70671e-13 0 0)
(-2.22602e-12 0 0)
(-1.87447e-12 0 0)
(-2.47546e-12 0 0)
(2.47984e-14 0 0)
(-1.34932e-12 0 0)
(1.45873e-12 0 0)
(-3.50095e-13 0 0)
(-2.82994e-13 0 0)
(-9.61303e-13 0 0)
(-6.34547e-13 0 0)
(-1.54042e-12 0 0)
(-8.37311e-13 0 0)
(1.10572e-12 0 0)
(1.29973e-12 0 0)
(-8.24182e-13 0 0)
(-1.07362e-12 0 0)
(4.28866e-13 0 0)
(8.48981e-13 0 0)
(1.46165e-12 0 0)
(3.92398e-13 0 0)
(1.39746e-12 0 0)
(8.89825e-14 0 0)
(1.13927e-12 0 0)
(2.72782e-13 0 0)
(4.01151e-13 0 0)
(-7.13319e-13 0 0)
(1.59585e-12 0 0)
(-3.7927e-14 0 0)
(2.10641e-12 0 0)
(2.42149e-13 0 0)
(2.81827e-12 0 0)
(5.84951e-12 0 0)
(1.65653e-11 0 0)
(3.89233e-11 0 0)
(9.4956e-11 0 0)
(2.3306e-10 0 0)
(5.66187e-10 0 0)
(1.36129e-09 0 0)
(3.23944e-09 0 0)
(7.63166e-09 0 0)
(1.7792e-08 0 0)
(4.10356e-08 0 0)
(9.36049e-08 0 0)
(2.1114e-07 0 0)
(4.70863e-07 0 0)
(1.03795e-06 0 0)
(2.26112e-06 0 0)
(4.86666e-06 0 0)
(1.03465e-05 0 0)
(2.17217e-05 0 0)
(4.50209e-05 0 0)
(9.20932e-05 0 0)
(0.000185865 0 0)
(0.000369981 0 0)
(0.000726135 0 0)
(0.00140457 0 0)
(0.00267657 0 0)
(0.00502255 0 0)
(0.0092761 0 0)
(0.0168525 0 0)
(0.0300989 0 0)
(0.0528111 0 0)
(0.090957 0 0)
(0.153629 0 0)
(0.25418 0 0)
(0.411368 0 0)
(0.650068 0 0)
(1.00063 0 0)
(1.49474 0 0)
(2.15434 0 0)
(2.98412 0 0)
(3.98183 0 0)
(5.14576 0 0)
(6.47035 0 0)
(7.94546 0 0)
(9.55813 0 0)
(11.294 0 0)
(13.1385 0 0)
(15.0778 0 0)
(17.0994 0 0)
(19.192 0 0)
(21.3461 0 0)
(23.5533 0 0)
(25.8065 0 0)
(28.0998 0 0)
(30.4282 0 0)
(32.7872 0 0)
(35.1734 0 0)
(37.5836 0 0)
(40.0152 0 0)
(42.4658 0 0)
(44.9337 0 0)
(47.417 0 0)
(49.9143 0 0)
(52.4243 0 0)
(54.946 0 0)
(57.4783 0 0)
(60.0203 0 0)
(62.5714 0 0)
(65.1307 0 0)
(67.6978 0 0)
(70.2719 0 0)
(72.8526 0 0)
(75.4396 0 0)
(78.0322 0 0)
(80.6302 0 0)
(83.2332 0 0)
(85.8409 0 0)
(88.453 0 0)
(91.0691 0 0)
(93.6891 0 0)
(96.3127 0 0)
(98.9396 0 0)
(101.57 0 0)
(104.203 0 0)
(106.838 0 0)
(109.476 0 0)
(112.117 0 0)
(114.76 0 0)
(117.405 0 0)
(120.051 0 0)
(122.699 0 0)
(125.349 0 0)
(128 0 0)
(130.653 0 0)
(133.306 0 0)
(135.961 0 0)
(138.616 0 0)
(141.272 0 0)
(143.928 0 0)
(146.585 0 0)
(149.242 0 0)
(151.899 0 0)
(154.556 0 0)
(157.213 0 0)
(159.87 0 0)
(162.526 0 0)
(165.182 0 0)
(167.837 0 0)
(170.491 0 0)
(173.144 0 0)
(175.796 0 0)
(178.447 0 0)
(181.096 0 0)
(183.743 0 0)
(186.389 0 0)
(189.032 0 0)
(191.673 0 0)
(194.312 0 0)
(196.948 0 0)
(199.581 0 0)
(202.211 0 0)
(204.837 0 0)
(207.46 0 0)
(210.079 0 0)
(212.693 0 0)
(215.303 0 0)
(217.907 0 0)
(220.506 0 0)
(223.099 0 0)
(225.686 0 0)
(228.266 0 0)
(230.838 0 0)
(233.402 0 0)
(235.957 0 0)
(238.502 0 0)
(241.037 0 0)
(243.561 0 0)
(246.071 0 0)
(248.569 0 0)
(251.051 0 0)
(253.517 0 0)
(255.966 0 0)
(258.395 0 0)
(260.803 0 0)
(263.188 0 0)
(265.548 0 0)
(267.878 0 0)
(270.179 0 0)
(272.447 0 0)
(274.679 0 0)
(276.868 0 0)
(279.012 0 0)
(281.11 0 0)
(283.156 0 0)
(285.14 0 0)
(287.054 0 0)
(288.899 0 0)
(290.672 0 0)
(292.355 0 0)
(293.927 0 0)
(295.389 0 0)
(296.745 0 0)
(297.97 0 0)
(298.548 0 0)
(298.539 0 0)
(298.494 0 0)
(298.408 0 0)
(298.263 0 0)
(298.038 0 0)
(297.737 0 0)
(297.388 0 0)
(297.029 0 0)
(296.629 0 0)
(296.151 0 0)
(295.689 0 0)
(295.428 0 0)
(295.309 0 0)
(295.156 0 0)
(294.971 0 0)
(294.793 0 0)
(294.678 0 0)
(294.594 0 0)
(294.476 0 0)
(294.336 0 0)
(294.204 0 0)
(294.124 0 0)
(294.071 0 0)
(293.994 0 0)
(293.897 0 0)
(293.806 0 0)
(293.757 0 0)
(293.731 0 0)
(293.687 0 0)
(293.623 0 0)
(293.563 0 0)
(293.54 0 0)
(293.536 0 0)
(293.517 0 0)
(293.478 0 0)
(293.444 0 0)
(293.444 0 0)
(293.46 0 0)
(293.458 0 0)
(293.432 0 0)
(293.411 0 0)
(293.422 0 0)
(293.447 0 0)
(293.451 0 0)
(293.434 0 0)
(293.427 0 0)
(293.45 0 0)
(293.484 0 0)
(293.493 0 0)
(293.48 0 0)
(293.475 0 0)
(293.494 0 0)
(293.523 0 0)
(293.526 0 0)
(293.506 0 0)
(293.497 0 0)
(293.518 0 0)
(293.546 0 0)
(293.545 0 0)
(293.525 0 0)
(293.516 0 0)
(293.535 0 0)
(293.56 0 0)
(293.556 0 0)
(293.534 0 0)
(293.528 0 0)
(293.553 0 0)
(293.584 0 0)
(293.588 0 0)
(293.58 0 0)
(293.596 0 0)
(293.649 0 0)
(293.71 0 0)
(293.755 0 0)
(293.793 0 0)
(293.855 0 0)
(293.95 0 0)
(294.045 0 0)
(294.097 0 0)
(294.103 0 0)
(294.084 0 0)
(294.039 0 0)
(293.931 0 0)
(293.717 0 0)
(293.447 0 0)
(293.242 0 0)
(293.187 0 0)
(293.237 0 0)
(293.298 0 0)
(293.346 0 0)
(293.403 0 0)
(293.474 0 0)
(293.52 0 0)
(293.518 0 0)
(293.496 0 0)
(293.497 0 0)
(293.525 0 0)
(293.551 0 0)
(293.546 0 0)
(293.521 0 0)
(293.512 0 0)
(293.529 0 0)
(293.542 0 0)
(293.528 0 0)
(293.502 0 0)
(293.496 0 0)
(293.51 0 0)
(293.516 0 0)
(293.502 0 0)
(293.482 0 0)
(293.478 0 0)
(293.486 0 0)
(293.485 0 0)
(293.468 0 0)
(293.448 0 0)
(293.442 0 0)
(293.444 0 0)
(293.437 0 0)
(293.416 0 0)
(293.394 0 0)
(293.384 0 0)
(293.376 0 0)
(293.359 0 0)
(293.327 0 0)
(293.295 0 0)
(293.272 0 0)
(293.25 0 0)
(293.215 0 0)
(293.164 0 0)
(293.113 0 0)
(293.068 0 0)
(293.024 0 0)
(292.966 0 0)
(292.881 0 0)
(292.791 0 0)
(292.713 0 0)
(292.639 0 0)
(292.557 0 0)
(292.425 0 0)
(292.256 0 0)
(292.104 0 0)
(291.964 0 0)
(291.826 0 0)
(291.66 0 0)
(291.394 0 0)
(291.074 0 0)
(290.784 0 0)
(290.5 0 0)
(290.19 0 0)
(289.737 0 0)
(289.022 0 0)
(288.159 0 0)
(287.206 0 0)
(286.018 0 0)
(284.396 0 0)
(281.917 0 0)
(278.163 0 0)
(272.933 0 0)
(265.327 0 0)
(252.571 0 0)
(227.464 0 0)
(167.092 0 0)
(65.2578 0 0)
(11.2299 0 0)
(1.7554 0 0)
(0.25821 0 0)
(0.0378063 0 0)
(0.00553089 0 0)
(0.000808792 0 0)
(0.000118297 0 0)
(1.73022e-05 0 0)
(2.53036e-06 0 0)
(3.70042e-07 0 0)
(5.4113e-08 0 0)
(7.91166e-09 0 0)
(1.15675e-09 0 0)
(1.67476e-10 0 0)
(2.52083e-11 0 0)
(8.89826e-13 0 0)
(8.18348e-13 0 0)
(-2.67677e-12 0 0)
(1.64399e-12 0 0)
(-2.5732e-12 0 0)
(4.46372e-13 0 0)
(-2.68553e-12 0 0)
(-2.17351e-13 0 0)
(-1.79424e-13 0 0)
(1.92261e-12 0 0)
(-2.09474e-12 0 0)
(1.11885e-12 0 0)
(-6.41842e-13 0 0)
(2.6403e-13 0 0)
(1.21658e-12 0 0)
(1.86572e-12 0 0)
(-3.1071e-13 0 0)
(9.70057e-13 0 0)
(2.15892e-13 0 0)
(2.44192e-12 0 0)
(1.32453e-12 0 0)
(2.49443e-12 0 0)
(3.81458e-12 0 0)
(7.90633e-13 0 0)
(-1.38142e-12 0 0)
(1.12614e-12 0 0)
(2.82994e-13 0 0)
(-2.35585e-12 0 0)
(-2.87954e-12 0 0)
(-2.05973e-12 0 0)
(-5.80575e-13 0 0)
(-3.99692e-13 0 0)
(-2.24061e-12 0 0)
(-2.0714e-12 0 0)
(-8.79615e-13 0 0)
(-3.06042e-12 0 0)
(-1.59148e-12 0 0)
(-3.03124e-12 0 0)
(-1.05904e-12 0 0)
(-2.29167e-12 0 0)
(-2.53819e-12 0 0)
(-3.39884e-12 0 0)
(-1.96783e-12 0 0)
(-2.59071e-12 0 0)
(-1.3362e-12 0 0)
(-1.51125e-12 0 0)
(5.00345e-13 0 0)
(8.89826e-14 0 0)
(1.64983e-12 0 0)
(-3.99255e-12 0 0)
(1.60169e-12 0 0)
(-1.12176e-12 0 0)
(-9.04414e-13 0 0)
(2.19101e-12 0 0)
(-1.15094e-12 0 0)
(-8.31477e-13 0 0)
(1.98388e-12 0 0)
(-1.18157e-13 0 0)
(8.66487e-13 0 0)
(-1.56668e-12 0 0)
(-7.36659e-13 0 0)
(1.88468e-12 0 0)
(1.82779e-12 0 0)
(2.90433e-12 0 0)
(-9.55469e-13 0 0)
(9.78809e-13 0 0)
(1.99992e-12 0 0)
(1.36246e-12 0 0)
(8.7378e-13 0 0)
(5.77658e-13 0 0)
(-1.02841e-12 0 0)
(1.53021e-12 0 0)
(-1.64107e-12 0 0)
(-1.94741e-12 0 0)
(-1.14802e-12 0 0)
(-1.96783e-12 0 0)
(-2.80806e-12 0 0)
(-4.87216e-13 0 0)
(1.8205e-12 0 0)
(4.31785e-13 0 0)
(2.76721e-12 0 0)
(1.05029e-13 0 0)
(1.43393e-12 0 0)
(1.24138e-12 0 0)
(2.35148e-12 0 0)
(2.44775e-12 0 0)
(3.03708e-12 0 0)
(2.26979e-12 0 0)
(3.16837e-12 0 0)
(2.17059e-12 0 0)
(9.91938e-13 0 0)
(-7.41036e-13 0 0)
(-1.20199e-12 0 0)
(-1.26618e-12 0 0)
(1.48937e-12 0 0)
(-4.31785e-13 0 0)
(-1.5375e-12 0 0)
(4.595e-13 0 0)
(-9.13166e-13 0 0)
(2.10057e-13 0 0)
(-1.14802e-12 0 0)
(4.87216e-13 0 0)
(1.95032e-12 0 0)
(1.70672e-13 0 0)
(5.84951e-13 0 0)
(3.71831e-12 0 0)
(1.00798e-12 0 0)
(3.54472e-13 0 0)
(1.84821e-12 0 0)
(8.63569e-13 0 0)
(-7.04567e-13 0 0)
(1.52437e-12 0 0)
(-1.91386e-12 0 0)
(-1.55793e-12 0 0)
(3.41343e-13 0 0)
(-7.10402e-13 0 0)
(9.62763e-14 0 0)
(1.73443e-12 0 0)
(2.11516e-13 0 0)
(2.82556e-12 0 0)
(-3.29673e-13 0 0)
(1.997e-12 0 0)
(-1.32453e-12 0 0)
(-2.03785e-12 0 0)
(-2.92184e-12 0 0)
(-1.29098e-12 0 0)
(-7.35201e-13 0 0)
(-5.23685e-13 0 0)
(-1.2443e-12 0 0)
(-1.64837e-12 0 0)
(-2.37482e-12 0 0)
(-3.88606e-12 0 0)
(-2.97581e-12 0 0)
(-2.5732e-12 0 0)
(-3.52867e-12 0 0)
(-4.21136e-12 0 0)
(-2.40545e-12 0 0)
(-3.87002e-12 0 0)
(-2.30042e-12 0 0)
(-5.4965e-12 0 0)
(-5.57236e-13 0 0)
(-2.40982e-12 0 0)
(1.33766e-12 0 0)
(-1.69213e-13 0 0)
(1.11593e-12 0 0)
(5.04721e-13 0 0)
(1.95324e-12 0 0)
(1.52583e-12 0 0)
(2.82265e-12 0 0)
(6.18502e-13 0 0)
(1.01528e-12 0 0)
(7.06026e-13 0 0)
(2.70011e-12 0 0)
(-2.59654e-13 0 0)
(-1.55209e-12 0 0)
(-2.77159e-14 0 0)
(-2.58196e-13 0 0)
(6.97274e-13 0 0)
(-3.29673e-13 0 0)
(-9.91938e-14 0 0)
(-1.20929e-12 0 0)
(-2.99623e-12 0 0)
(-2.40545e-12 0 0)
(-2.13558e-12 0 0)
(-2.5557e-12 0 0)
(4.49289e-13 0 0)
(-1.96783e-12 0 0)
(1.89781e-12 0 0)
(-2.10057e-13 0 0)
(1.11593e-12 0 0)
(5.04721e-13 0 0)
(1.95324e-12 0 0)
(1.52583e-12 0 0)
(2.82265e-12 0 0)
(6.18502e-13 0 0)
(1.01528e-12 0 0)
(7.06026e-13 0 0)
(2.70011e-12 0 0)
(-2.59654e-13 0 0)
(-1.55209e-12 0 0)
(-2.77159e-14 0 0)
(-2.58196e-13 0 0)
(5.38272e-13 0 0)
(-7.89174e-13 0 0)
(-2.55278e-13 0 0)
(-9.52552e-13 0 0)
(-2.74533e-12 0 0)
(-1.62794e-12 0 0)
(-1.66587e-12 0 0)
(-2.40399e-12 0 0)
(1.6046e-13 0 0)
(-1.76652e-12 0 0)
(1.27056e-12 0 0)
(3.60307e-13 0 0)
(2.5061e-12 0 0)
(-1.34203e-13 0 0)
(9.19001e-13 0 0)
(2.47839e-12 0 0)
(3.81896e-12 0 0)
(9.86103e-13 0 0)
(2.29021e-12 0 0)
(1.06342e-12 0 0)
(3.7256e-12 0 0)
(1.09405e-13 0 0)
(2.07286e-12 0 0)
(-7.95009e-13 0 0)
(-2.48422e-12 0 0)
(-7.52706e-13 0 0)
(2.93205e-13 0 0)
(6.44759e-13 0 0)
(-1.06487e-12 0 0)
(-5.93704e-13 0 0)
(4.69712e-13 0 0)
(-3.08084e-12 0 0)
(1.2443e-12 0 0)
(3.31132e-13 0 0)
(2.06119e-12 0 0)
(-4.47831e-13 0 0)
(3.63224e-13 0 0)
(-1.46603e-12 0 0)
(1.00361e-12 0 0)
(-2.06556e-12 0 0)
(-5.90786e-13 0 0)
(6.27255e-14 0 0)
(6.68099e-13 0 0)
(-1.32453e-12 0 0)
(-4.90134e-13 0 0)
(-8.72322e-13 0 0)
(-2.82556e-12 0 0)
(-5.55777e-13 0 0)
(-1.1947e-12 0 0)
(2.12975e-13 0 0)
(-3.20192e-12 0 0)
(-3.25151e-12 0 0)
(-3.07209e-12 0 0)
(-3.1071e-12 0 0)
(-4.38203e-12 0 0)
(-3.0327e-12 0 0)
(-1.94741e-12 0 0)
(8.27101e-13 0 0)
(7.55623e-13 0 0)
(1.56084e-13 0 0)
(4.05527e-13 0 0)
(-1.27493e-12 0 0)
(-9.19001e-13 0 0)
(-1.73589e-12 0 0)
(1.31286e-14 0 0)
(-2.84453e-13 0 0)
(5.51401e-13 0 0)
(-3.96775e-13 0 0)
(-3.91232e-12 0 0)
(-1.36683e-12 0 0)
(-5.51401e-13 0 0)
(-9.33588e-14 0 0)
(8.88368e-13 0 0)
(1.81904e-12 0 0)
(2.55716e-12 0 0)
(1.58127e-12 0 0)
(1.4033e-12 0 0)
(1.09405e-12 0 0)
(1.64399e-12 0 0)
(4.56875e-12 0 0)
(3.67892e-12 0 0)
(5.638e-12 0 0)
(5.23831e-12 0 0)
(5.60153e-12 0 0)
(4.62856e-12 0 0)
(4.56145e-12 0 0)
(4.30618e-12 0 0)
(4.89696e-12 0 0)
(4.64752e-12 0 0)
(4.6198e-12 0 0)
(3.93274e-12 0 0)
(2.66219e-12 0 0)
(3.59286e-12 0 0)
(3.36384e-12 0 0)
(3.48491e-12 0 0)
(4.67815e-12 0 0)
(5.59715e-12 0 0)
(4.81381e-12 0 0)
(3.97359e-12 0 0)
(4.92322e-12 0 0)
(3.60598e-12 0 0)
(4.2347e-12 0 0)
(4.08007e-12 0 0)
(3.41635e-12 0 0)
(5.04867e-12 0 0)
(3.48783e-12 0 0)
(3.20921e-12 0 0)
(3.22526e-12 0 0)
(4.07278e-12 0 0)
(2.92913e-12 0 0)
(1.52437e-12 0 0)
(3.0079e-12 0 0)
(2.88975e-12 0 0)
(3.79562e-12 0 0)
(3.4922e-12 0 0)
(2.27854e-12 0 0)
(1.69359e-12 0 0)
(1.8628e-12 0 0)
(2.52069e-12 0 0)
(2.94664e-12 0 0)
(5.05596e-12 0 0)
(3.96046e-12 0 0)
(5.21642e-12 0 0)
(4.75838e-12 0 0)
(6.99316e-12 0 0)
(4.93343e-12 0 0)
(4.93781e-12 0 0)
(4.62126e-12 0 0)
(3.25297e-12 0 0)
(3.86856e-12 0 0)
(3.69059e-12 0 0)
(4.64314e-12 0 0)
(5.67592e-12 0 0)
(5.64529e-12 0 0)
)
;

boundaryField
{
    sides
    {
        type            zeroGradient;
    }
    empty
    {
        type            empty;
    }
}


// ************************************************************************* //
