/*--------------------------------*- C++ -*----------------------------------*\
  =========                 |
  \\      /  F ield         | OpenFOAM: The Open Source CFD Toolbox
   \\    /   O peration     | Website:  https://openfoam.org
    \\  /    A nd           | Version:  13
     \\/     M anipulation  |
\*---------------------------------------------------------------------------*/
FoamFile
{
    format      ascii;
    class       volScalarField;
    location    "63";
    object      p;
}
// * * * * * * * * * * * * * * * * * * * * * * * * * * * * * * * * * * * * * //

dimensions      [0 2 -2 0 0 0 0];

internalField   nonuniform List<scalar> 
918
(
0.5567
1.18596
0.000783449
0.556139
-0.00944614
1.15294
-0.509329
0.668624
0.536895
-0.111264
-0.0467928
0.537852
1.01379
0.779394
-1.12408
-0.0105491
0.651493
-0.381697
0.536001
-0.0567437
0.695895
0.543438
0.546463
0.537042
0.598647
0.753465
0.895005
0.0222917
0.0114072
0.00491139
-0.0145
-0.0362855
-0.0308776
1.03658
1.08767
1.11037
0.504687
0.332575
-0.374669
-0.447142
-0.435564
-0.546077
0.664885
0.663092
-0.208776
0.672108
0.675026
0.523932
0.536263
0.537175
0.538199
0.537181
0.538562
0.40393
-0.111765
-0.143146
-0.0926178
-0.0847334
0.0532483
-0.0483365
-0.0503099
-0.0452174
-0.0449288
0.453867
0.532311
0.529002
0.542725
0.553333
1.12551
1.09743
1.12357
1.03728
1.05373
0.99178
0.964372
0.800088
0.822215
0.764917
0.750451
-1.55623
-2.5082
-0.533938
-0.283225
-0.0153654
-0.00862316
-0.00276813
0.64828
0.649339
0.650997
0.653836
1.08007
-0.378933
-0.47965
0.536142
0.53495
0.543275
0.543976
0.539995
0.539085
-0.0482114
-0.0452708
-0.047674
-0.0533689
-0.0518468
0.684551
0.68509
0.537572
0.534576
0.5606
0.580815
0.571161
0.277906
0.608371
0.624988
0.585277
0.745391
0.739989
0.748679
0.868718
0.832423
0.931858
0.955129
0.0172289
-0.00111273
-0.0154828
-0.0192146
-0.0181046
0.500521
0.493066
0.520445
0.508119
0.510624
0.249229
0.11573
0.417561
0.442487
-0.293271
-0.358892
-0.429368
-0.459489
-0.567477
0.611504
0.660385
0.658298
-0.219663
-0.147681
-0.280376
-0.0745602
-0.137299
0.5142
0.521212
0.516211
0.531761
0.526228
0.528191
0.540532
0.537604
0.539163
0.466196
0.589907
0.330035
0.29466
-0.24387
-0.157838
-0.244246
-0.0731323
-0.0683702
0.0672548
0.092759
0.0401988
0.0284195
-0.0620673
-0.0538669
-0.0579162
-0.0436801
-0.0444623
0.446632
0.435449
0.466557
0.474115
0.519128
0.520619
0.525297
0.523128
0.915184
0.937655
0.945098
0.918756
-3.49858
-6.28163
0.04155
0.178145
-0.00649026
-0.0108112
0.00463806
-0.0104154
-0.0031815
-0.00442611
-0.00708904
-0.00826852
-0.00319975
-0.00182202
0.642217
0.643315
1.00206
1.00864
0.977954
0.930732
0.524352
0.526424
0.531925
0.527806
-0.0436244
-0.0441935
-0.0428512
0.678216
0.683104
0.681067
0.239527
0.150055
0.32885
0.357902
0.635885
0.6251
0.634568
0.646791
0.682727
0.962568
0.980723
0.978975
0.9872
1.03117
1.04751
1.01295
0.47995
0.489942
0.484884
0.523543
0.521322
0.522221
0.518118
0.519378
0.517375
-0.0348154
-0.415055
0.489996
0.507019
0.492067
0.494722
0.6917
0.770347
0.653732
0.656337
0.655612
-0.0057824
-0.0641877
0.249979
0.216004
0.386267
0.422623
0.401619
0.886533
0.846537
0.896741
0.870113
0.831221
0.857757
-0.366658
-1.86689
-0.985599
0.528128
0.342465
0.430003
0.0103198
-0.00653228
-0.00201779
1.00142
1.07394
0.645742
0.820579
0.82338
0.716912
0.746531
0.806525
0.731778
0.767029
0.801106
0.779274
0.567544
0.503125
0.519087
0.839565
0.895363
0.120243
0.0592198
0.0152271
0.111525
0.168815
0.142895
1.03412
0.949252
1.01954
0.534336
0.535056
-0.00423399
-0.0181621
0.539294
0.539349
-0.0163882
-0.00367647
0.412297
-0.83225
0.100657
0.527869
0.517791
0.534911
-0.0950096
0.355397
-0.0476836
0.0484859
-0.00724274
0.530504
0.464999
0.424105
0.00012379
-0.0194342
-0.0485175
-0.213894
0.532006
0.530311
0.534379
0.535323
0.536002
-0.018266
-0.0133325
-0.00991987
-0.0456611
-0.0398339
-0.0507983
0.498852
0.517956
-0.170109
0.534526
0.536659
0.536478
0.529734
0.535367
0.533617
-0.0106861
-0.0168062
-0.0181275
0.22022
0.351463
0.651657
0.739478
0.622952
0.399344
0.164214
0.555415
0.618336
0.524311
0.677686
0.656468
0.669325
0.166248
0.0160618
0.174733
0.116304
0.525729
0.524443
0.516045
0.51301
0.529779
0.527891
0.532451
0.529469
0.53242
0.533802
-0.0511445
-0.0788784
-0.0879289
-0.155941
0.310154
0.571553
0.253739
0.283721
0.14185
-0.042004
-0.0418546
-0.0462398
-0.0535332
0.00113093
-0.0224886
0.043397
0.0438446
0.0160902
-0.00970904
-0.00676651
-0.0176208
-0.0130808
0.524328
0.524082
0.527438
0.536211
0.474644
0.478423
0.443276
0.464029
0.4493
0.388093
0.423316
0.398571
-0.00778367
0.00208351
-0.00505115
-0.0169467
-0.0128354
-0.0326551
-0.0291865
-0.0251792
-0.0209788
-0.0275548
-0.0428561
-0.0447444
-0.171721
-0.287224
0.988525
0.910032
0.136607
0.521157
0.527611
0.524373
0.52929
0.532418
0.533222
0.530933
0.527483
0.518261
0.519758
0.516659
0.517641
-0.101813
-0.24272
-0.0708258
-0.144625
0.144214
0.626921
0.363356
0.299154
0.294312
0.52247
0.91631
0.700455
0.674893
0.682073
-0.342951
0.0465493
-0.279019
0.335879
0.163428
0.653403
0.70103
0.720794
0.670117
0.623699
-0.102643
0.555499
-0.0714417
-0.0196575
0.181485
0.0584812
0.66757
0.643319
0.648684
0.661604
0.677255
0.648137
0.634281
0.629864
0.656421
0.658367
0.48582
0.251019
0.20218
0.163657
0.641747
0.520192
0.572387
0.491489
0.520952
0.523539
0.52218
0.503684
0.511269
0.50679
0.513371
0.516892
0.525495
0.525957
0.521239
0.523371
-0.0577907
-0.0627809
-0.0294012
-0.136681
-0.130286
-0.192378
-0.0621339
0.0758992
0.0368026
0.237222
0.341517
0.0526646
-0.0579372
-0.030655
0.0117302
0.180198
0.207987
0.0741541
0.162042
0.152684
0.134518
0.236941
0.240605
-0.026716
-0.0298892
-0.0337865
-0.0355521
0.0193437
0.0900479
0.0997207
-0.00482446
-0.010947
-0.03987
-0.0408333
-0.0216582
-0.0272876
-0.02268
0.00768206
-0.0524326
-0.0196294
-0.00551494
-0.00179089
-0.00386337
-0.00935584
0.517822
0.520234
0.519991
0.526182
0.540303
0.555216
0.51965
0.496852
0.487635
0.490655
0.463497
0.473839
0.469508
0.483204
0.504294
0.513842
0.511495
0.514348
0.496452
0.498263
0.484738
0.48842
0.463307
0.444111
0.432228
-0.0422618
-0.00394371
-0.0114611
-0.0380412
-0.0089107
-0.0207718
-0.00921863
0.00916676
-0.00692335
-0.00824785
-0.0181425
-0.0252437
-0.0246642
-0.0735758
0.0129861
-0.184081
-0.219921
-0.29266
0.890571
1.01465
0.81024
0.583328
0.603327
0.846433
0.931104
0.543349
0.73565
0.758833
0.586334
0.853922
0.526
0.5256
0.523199
0.52268
0.523898
-0.00716012
0.0986172
0.0980227
0.16047
0.275965
0.387724
0.318226
0.193681
0.323987
0.326476
0.620239
0.632232
0.587441
0.611226
0.612065
0.425129
0.500672
0.552664
0.512378
0.564809
0.586116
0.540256
0.572952
0.523046
0.478157
0.474137
0.424391
0.443994
0.41985
0.402912
0.514691
0.492785
0.503078
0.493791
0.513456
0.541139
0.5379
0.561669
0.576344
0.497549
0.452579
0.461953
0.492194
0.453303
0.468667
0.485042
0.231206
0.132935
0.216002
-0.0698255
0.00206944
-0.0108235
-0.0592424
-0.00867025
0.275733
-0.415924
-0.392359
-1.01996
0.502201
0.95313
0.604209
0.577642
0.676045
0.659161
0.664701
0.681136
0.68287
0.630167
0.640527
0.645192
0.603415
0.62479
0.643655
0.640113
0.524687
0.384428
0.382773
0.331689
0.201878
0.241327
0.438345
0.362117
0.287066
0.287378
0.457044
0.343877
0.413561
0.447571
0.379076
0.333556
0.536226
0.601795
0.595248
0.568848
0.481207
0.494061
0.518051
0.552126
0.57677
0.607112
0.512774
0.518705
0.519936
0.51741
0.514693
0.51776
0.518014
0.520563
0.521197
0.524194
0.523246
-0.0484101
-0.0354783
-0.0490238
-0.0580993
-0.0203312
-0.0226132
0.0223253
0.00688736
-0.0141161
-0.00872425
-0.0323697
-0.0369081
-0.0328571
-0.0242962
0.100228
0.113032
0.0968629
0.057116
0.250922
0.380343
0.454841
0.330117
0.223598
0.246673
0.266268
-0.0122035
0.0134012
0.000391429
0.0399934
0.0321078
-0.0349272
-0.0386342
-0.035938
-0.0289774
-0.0195557
-0.0360082
-0.0403892
-0.0312909
-0.0362585
-0.0391917
-0.0431944
0.499114
0.492563
0.494266
0.488059
0.486782
0.501251
0.505531
0.507504
0.513054
0.515511
0.50533
0.511084
0.51515
-0.0102818
-0.0333713
-0.0370922
-0.0267893
-0.0294391
-0.0273135
-0.0286707
0.123291
0.0538395
0.0580934
0.010151
-0.121637
-0.0637044
0.490977
0.489704
0.479186
0.720546
0.569847
0.490359
0.587334
0.693108
0.275764
0.472578
0.307525
0.888212
0.784518
0.930925
0.542092
0.24456
0.407238
0.45098
0.263653
0.338979
0.325262
0.214458
0.245215
0.28236
0.381527
0.264639
0.241198
-0.00190979
0.188452
0.300803
0.282609
0.40737
0.468149
0.26546
0.184956
0.140197
0.604975
0.62451
0.638143
0.610657
0.631694
0.579019
0.570933
0.586851
0.595109
0.588723
-0.748005
-0.454524
-1.40095
-0.722649
-0.268088
0.532615
0.503379
0.76881
0.646555
0.685671
0.670872
0.62968
0.599004
0.621772
0.645651
0.342967
0.453786
0.429032
0.434408
0.33667
0.267275
0.565171
0.56161
0.593753
0.616967
0.58973
0.61885
0.51061
0.510335
0.509783
0.506024
0.504294
0.506671
0.057351
0.025162
0.0634796
0.0447568
0.0214803
0.00855077
-0.00752396
-0.0174845
-0.0247896
-0.0246407
-0.0106022
-0.00660104
0.170893
0.108771
0.0291185
0.0584502
-0.00232279
-0.0710641
-0.0898301
0.0150952
0.111366
0.101521
0.405131
0.654906
0.474897
0.642397
0.48483
0.540623
0.46772
0.459124
0.484202
0.378878
0.459409
0.246012
-0.26145
-0.170549
0.792536
0.804218
0.580517
0.404153
0.1727
0.352351
0.542616
0.473419
0.509216
0.578306
0.566037
0.0261884
0.0849427
0.368469
0.595356
0.238905
0.230076
0.223676
0.406699
0.325706
)
;

boundaryField
{
    wall-4
    {
        type            zeroGradient;
    }
    velocity-inlet-5
    {
        type            zeroGradient;
    }
    velocity-inlet-6
    {
        type            zeroGradient;
    }
    pressure-outlet-7
    {
        type            fixedValue;
        value           uniform 0;
    }
    wall-8
    {
        type            zeroGradient;
    }
    frontAndBackPlanes
    {
        type            empty;
    }
}


// ************************************************************************* //
