/*--------------------------------*- C++ -*----------------------------------*\
  =========                 |
  \\      /  F ield         | OpenFOAM: The Open Source CFD Toolbox
   \\    /   O peration     | Website:  https://openfoam.org
    \\  /    A nd           | Version:  13
     \\/     M anipulation  |
\*---------------------------------------------------------------------------*/
FoamFile
{
    format      ascii;
    class       surfaceScalarField;
    location    "63";
    object      phi;
}
// * * * * * * * * * * * * * * * * * * * * * * * * * * * * * * * * * * * * * //

dimensions      [0 3 -1 0 0 0 0];

internalField   nonuniform List<scalar> 
1300
(
3.75095
5.62643
-3.32989
3.75095
-7.72222
5.62643
-4.38368
4.38368
-0.444693
0.444693
1.87639
1.87456
-2.68576
2.68576
-2.16423
2.16423
-2.52828
2.52828
-5.24638
5.24638
-5.06829
5.06829
4.65605
-4.65605
-6.30118
6.30118
-0.951671
0.951671
-3.67391
3.67391
3.16963
-3.16963
-2.11155
2.11155
-0.00631683
0.00631683
-0.553478
4.30443
3.19748
3.19748
-2.01225
2.01225
-4.86761
4.86761
6.21796
-6.21796
5.31803
-5.31803
-1.98814
-2.44361
1.78908
-11.5193
-5.93314
-5.93314
-8.44039
8.44039
-2.81396
2.81247
2.94601
-2.94601
-1.7744
1.7744
-4.34237
-0.0413058
-4.34237
4.35549
0.0281867
4.35549
-0.514417
0.0697244
-0.514417
3.98034
-3.98034
0.360493
0.0841997
0.360493
3.0653
-3.0653
-1.87711
3.7535
1.87384
-1.87189
6.17632
-1.87906
3.75362
-6.01646
6.01646
-2.92105
0.235296
-2.92105
2.49143
0.194328
2.49143
-6.84646
6.84646
-2.19642
0.0321976
-2.19642
2.13435
0.0298806
2.13435
2.88014
-2.88014
-2.63956
0.111273
-2.63956
2.39522
0.133062
2.39522
0.35353
5.2729
-5.97996
8.79243
-5.2729
0.0265153
5.20833
0.0380509
5.20833
-5.10579
0.0375035
-5.10579
5.01321
0.0550727
5.01321
4.74226
-0.0862113
4.74226
-4.77365
0.117603
-4.77365
-3.38482
-4.05441
-6.45329
0.152106
-6.45329
-1.04017
0.0884997
-1.04017
0.838827
0.112844
0.838827
-3.68375
3.68375
-4.09778
0.423872
-4.09778
3.12401
0.0456245
3.12401
1.86849
1.88246
5.61945
-5.61945
2.44981
-2.08675
-0.0247959
-2.08675
-2.16742
-3.15061
2.16742
-0.0558741
-0.237885
0.231568
-0.237885
3.15942
0.0380556
3.15942
2.23785
0.157373
-2.23785
0.225596
3.27159
-3.27159
1.34087
0.671387
1.34087
-5.56556
5.56556
4.9555
0.0577165
-4.9555
0.0878898
6.15609
0.061861
6.15609
-6.19951
-0.0184434
-6.19951
2.53285
-4.97646
-2.61218
6.11756
0.183621
-6.11756
0.184422
2.91778
0.0282293
2.91778
-2.91974
2.91974
-2.98457
0.0385618
-2.98457
-2.17344
0.39904
-2.17344
1.47555
0.298854
1.47555
-4.24056
-0.101815
-4.24056
-4.24666
0.148883
4.24666
0.108827
1.12793
-1.12793
-0.626726
0.112309
-0.626726
-4.10407
-0.136487
4.10407
-0.123735
-3.8709
-0.109441
-3.8709
-3.02444
0.0398729
3.02444
0.0408629
3.11285
0.0465657
-3.11285
0.0475514
-1.87082
3.75328
-1.88013
3.75397
-5.63591
-0.38055
-5.63591
6.32714
-0.310677
6.32714
3.31322
0.360688
-3.31322
0.392169
2.35127
0.140156
2.35127
-6.81017
-0.0362932
-6.81017
6.83003
0.0164303
6.83003
2.25579
0.0954866
-2.25579
0.0593605
2.10195
0.0323994
2.10195
2.8997
-0.0195696
2.8997
-2.8746
-0.00553353
-2.8746
2.79674
-2.79674
2.72354
0.0732002
-2.72354
0.0839856
-11.133
11.1145
-0.0351012
-11.0979
5.17323
5.17323
4.1694
0.57286
4.1694
-4.99135
0.217697
-4.99135
2.67688
-5.28906
3.06122
-6.44604
4.66932
-16.1886
4.30761
-8.36202
6.695
-6.695
6.58339
0.111612
-6.58339
0.130098
-1.155
0.114833
-1.155
-3.08092
-0.602829
-3.08092
4.32699
-0.643239
4.32699
-3.02821
3.02821
-3.07749
0.049288
3.07749
0.0465121
2.08435
0.0175953
-2.08435
-0.00240138
0.297361
0.063132
-0.297361
0.0594762
3.48211
-0.21052
3.48211
-3.07484
-0.196754
-3.07484
-1.25275
0.0977432
1.25275
0.0881201
-5.81433
0.248769
-5.81432
-11.1909
0.0929787
-11.1528
-6.10653
-6.10653
2.33386
11.1263
-2.89287
0.01827
2.89287
0.0249042
2.97517
0.0530377
-2.97517
0.0554326
-2.86064
0.0638987
2.86064
0.0590936
-2.54845
0.375012
-2.54845
-1.07281
1.07281
-1.23919
0.166384
1.23919
0.236353
1.3993
-0.271373
1.3993
0.73396
0.104866
-0.73396
0.107234
-3.77368
-0.0972186
-3.77368
6.56162
-0.234482
6.56162
-2.96102
-0.113816
2.96102
-0.0613168
-0.0333695
11.1479
-5.13986
0.034074
5.13986
-11.2098
11.2438
-3.21932
0.670869
3.21932
0.950078
5.28509
0.280467
-5.28509
0.29374
6.7794
0.0506367
-6.7794
0.0843997
-2.58826
-0.492663
-2.58826
-5.05328
-0.582631
5.05328
-0.72629
-11.4747
-0.20348
11.6782
-11.4196
6.01781
0.138289
-6.01781
11.3821
-1.02979
-0.0981369
1.02979
0.0430178
1.7266
-0.327294
1.7266
3.67497
-0.192861
-3.67497
-0.0987043
-6.71479
-0.0953843
6.71479
-0.153165
-2.14347
-0.444794
2.14347
-0.416871
-4.2671
4.30516
1.90922
-2.3894
-2.58706
-5.54
1.85186
1.90142
4.30168
-10.16
-6.0286
-9.97559
7.26247
-6.96873
-9.2462
9.15999
7.86162
-7.97106
-5.78491
5.83142
6.4828
-6.44194
1.8788
1.8747
8.00056
-7.76526
-15.6109
15.2303
7.50595
-7.47375
15.7671
-15.8034
-17.8501
17.9008
-5.69641
5.80768
-6.73858
6.73305
-6.97264
6.91132
-2.83494
-3.6111
13.1208
-12.9687
8.54458
-8.56938
-8.60536
9.02923
3.38258
0.922582
3.42914
-1.88217
3.76097
-1.87146
3.78068
2.70694
-5.54188
2.58212
-5.16918
4.33127
4.21332
-4.27539
-1.26461
-5.92424
5.95247
-5.81478
5.87387
9.11936
-9.16066
-1.88515
3.75986
-1.86882
3.77024
-3.42502
-2.35989
3.3794
0.922282
8.07526
5.04557
-8.25888
-1.71671
-8.02758
7.83472
-8.22466
8.02791
-0.434995
5.81929
-5.38429
4.43261
-1.56276
7.38204
5.69972
5.91741
5.86648
-5.58601
1.10225
-6.48654
-6.39865
-2.32906
2.44137
2.21528
-2.13108
6.11876
1.74286
5.99502
-5.74645
-2.22461
-5.84367
3.82069
2.01073
3.86998
4.07827
2.40454
4.11814
3.03051
-3.03591
0.0053955
-3.05658
6.0871
0.723949
-5.41647
-4.49419
4.97206
3.0285
5.16638
-5.54821
-2.21706
-5.15604
-9.54021
-6.07068
-10.1228
10.0858
5.14451
9.77515
-11.9592
11.806
4.79004
2.71591
4.81992
-4.91734
-2.55641
-4.85798
11.6431
-2.62723
-9.01584
-10.3191
-7.53105
10.3027
5.46441
10.963
6.9378
11.0474
4.42544
7.21763
-9.88985
2.3588
-3.8637
-1.83271
-3.77971
3.66518
2.1425
3.79824
-4.21697
-2.52161
-4.1987
-4.29489
-2.67775
4.31446
2.41858
-4.41553
-3.80913
4.52935
2.38198
4.03922
-10.0678
4.3228
-7.9339
-9.19931
-3.76941
-9.06921
3.50403
2.60701
-6.11105
-2.03784
8.47164
-4.25832
7.20702
-5.17312
-3.39626
-5.17552
-6.87583
-1.72953
-6.72695
-8.87909
8.38643
-9.17604
8.5328
12.5266
-5.65157
-6.87508
-3.96841
-2.47353
3.92086
-0.491715
-3.71056
3.71596
0.050408
3.83108
4.75367
4.26195
-3.88468
-1.9301
-3.82925
3.82556
2.04831
3.88946
6.83136
2.288
6.85955
-6.59251
-2.56815
-6.69433
9.04277
-8.64373
2.8453
-2.74756
5.39019
2.63772
-5.17967
-2.84791
6.21343
-3.21709
-2.99634
-12.1997
10.5324
1.66726
-4.81762
-0.385009
-0.378692
-5.48961
-3.75659
5.37201
0.545408
11.0778
7.32121
-5.51293
5.7617
6.16525
6.22297
-0.175682
5.80989
-5.13902
5.26548
-2.57288
-2.6926
5.45369
-5.59018
-1.24064
-5.50045
4.25982
0.404844
1.52826
-1.2967
-1.81871
-0.510355
-1.71147
1.31403
0.901253
1.37716
0.936101
1.50527
-2.95618
0.556088
2.40009
-2.02008
-1.575
-3.79127
-1.13964
4.93091
5.72499
2.10972
-5.62629
-0.21738
2.56008
-2.44723
-0.758163
-3.03311
2.24268
-3.00084
-3.67355
-2.05223
5.72578
-3.36988
-0.459364
3.31685
0.553134
-3.82702
-2.09722
3.78846
0.32968
-3.12758
6.19058
-3.063
-5.05767
2.52773
3.55936
4.53846
-4.78953
2.44745
2.34208
-1.23017
4.24539
0.920992
4.38555
-6.93221
4.71515
5.79466
3.23457
-6.15535
0.999315
-5.9329
8.54057
-7.36932
-1.17125
4.14193
4.39864
7.07077
5.45588
-5.67595
12.7467
-1.20157
-6.16775
7.13447
-3.8999
4.84792
-8.74782
-10.3038
4.13605
-9.14443
10.9229
-1.77845
-3.6241
-8.33508
12.7685
-1.2056
-11.5629
8.56956
-4.2521
-4.33448
8.58658
-6.87933
6.89089
-1.99217
-4.89872
-10.1057
-5.69764
10.2011
1.60491
-9.89613
12.2549
-2.67851
4.1052
0.714713
4.1376
3.29293
-5.47862
2.18569
3.5864
-5.57857
2.08396
-7.56259
-6.73266
12.0658
-5.33318
-10.5021
-9.51971
-0.982355
2.53517
9.71976
-9.47297
7.42994
2.04303
3.30086
0.588608
-3.37406
-0.405654
0.240273
4.52572
-4.766
4.03851
4.19589
3.28284
1.24289
3.84497
2.1075
-3.86988
-0.328826
-4.16278
1.48503
-1.7442
-3.69322
5.17825
-4.06676
0.37354
-2.74835
-3.49918
6.24753
-4.58106
3.03591
3.15467
5.08422
-4.91325
1.41407
-2.39296
-2.52029
2.65269
-4.39689
1.99062
3.18763
4.3726
0.563468
5.8745
6.19134
-8.48151
0.54761
11.2369
-9.5202
2.46621
8.58116
-9.89615
0.376443
-8.69277
0.994
-5.25232
-5.11705
5.18888
-6.91841
-3.55893
6.20885
0.650697
-6.31768
-0.409276
-6.03449
-2.8446
-6.47928
-3.04427
-6.13176
-8.72022
-1.65183
-7.06839
6.73459
-6.68124
-3.4416
7.40753
1.12527
-7.41019
7.31205
-7.48832
7.16102
0.0953389
3.62062
4.35729
1.88376
-2.39045
4.27421
-5.1179
7.4059
-8.70075
3.58284
4.18164
-6.74979
-4.51911
5.02354
4.01923
5.32239
8.88875
-10.3613
1.47253
-10.6609
11.9931
-1.33221
-16.4229
5.76202
-7.53419
2.45453
0.39077
2.56937
0.54878
2.49918
-3.04796
-2.19878
-2.11066
-2.43022
-3.46537
5.89559
1.10381
-3.52052
2.41671
-3.5706
4.6744
-0.198354
-3.32216
5.27988
-2.7807
5.67065
-3.76895
1.9017
3.43273
5.75238
-2.31965
4.39424
-1.75652
1.91904
-4.23869
-1.54633
-2.96393
5.10643
-3.2836
3.65714
-0.340431
3.99757
-4.05578
0.838692
-0.772941
3.42294
3.64854
4.31242
-3.06953
2.92262
-4.67913
-1.31608
-4.11567
-0.928038
-0.265323
-3.70879
3.97411
5.98737
-6.25269
-5.23651
9.53092
-4.29441
7.69533
-5.38337
-2.31197
-4.25447
-4.38926
3.87946
1.93044
9.62577
0.209437
-5.5928
-4.92959
-3.97951
3.11989
2.14559
-1.77887
3.44613
2.15756
-0.629298
0.443744
0.933419
1.78776
-1.34402
0.3038
1.48396
-0.992895
1.76464
0.795437
-1.86951
0.158033
-1.30529
3.54797
1.09481
-1.99606
0.652043
0.984779
-3.55766
5.02464
-2.66346
-2.36117
6.00942
1.14027
-3.80373
4.36018
-3.95534
2.37733
-3.51697
-1.42641
-5.38174
-3.63888
-2.52763
4.94434
-3.36796
5.47768
1.27078
-5.2603
6.53109
-3.72002
1.66779
-3.06672
3.86216
-0.954387
-2.11233
2.89932
2.82646
-3.05602
0.0229127
-0.1567
2.40518
-2.56188
-0.595666
-2.61575
-4.57326
4.90294
-2.10548
4.55293
2.16872
-1.91664
6.46957
1.80918
-3.72582
-3.24849
-3.70785
-1.38374
3.15472
-0.600314
-4.25766
-5.49903
4.16218
0.223371
-7.04066
7.84927
-0.808613
-4.01216
-0.702999
4.84493
-6.06149
0.482923
-3.97753
3.87175
4.79274
5.01611
-11.3457
-0.217271
-6.20115
1.12335
-7.32451
5.52199
-3.54116
7.67721
-10.3308
6.88922
-9.20556
6.50596
-0.818547
6.25207
-4.06638
2.76377
-8.46141
-6.85649
5.48983
-2.77392
6.20454
-3.13415
9.33869
-5.81266
5.27514
4.06356
-1.01441
-4.16111
-5.26923
4.25482
0.0059133
4.14352
4.9799
-2.8724
4.65107
2.26742
-4.66038
-2.12946
-6.49456
1.83418
-3.33989
-1.92038
3.75457
3.16383
3.75244
1.23427
-3.34679
7.18559
-8.16795
-1.85241
-3.26464
5.25384
-0.999022
3.39474
-6.65938
-1.85758
4.80026
-0.784315
-4.01595
0.851307
-4.41024
1.67139
-6.08163
5.24702
-5.65629
2.22186
-9.75605
-5.18833
-5.14532
-2.25876
-5.22956
-7.57314
5.31438
-1.81112
5.50093
-8.51063
7.72631
-3.4825
8.79688
-5.42869
-1.05059
5.84556
1.31546
10.1123
0.209818
-4.72893
-1.91041
3.86352
-1.95311
1.20948
-3.49897
0.364554
2.48826
3.52116
-6.74807
-0.00171354
-4.73064
-3.91756
7.93679
5.61336
11.6007
1.23944
9.11884
-1.18205
10.3583
4.14034
4.37669
-2.99285
4.46538
0.981261
4.56411
-0.917764
2.81946
1.6516
1.7401
0.707131
2.3036
1.34494
3.14229
0.0943351
-2.01633
4.62298
-8.60249
-0.96982
-8.02963
1.13036
5.71019
-4.57983
2.97321
-0.827625
1.0201
-0.0733768
-1.30078
1.37415
-2.76598
-1.93007
-0.446111
-1.68411
2.33615
1.86386
-1.89004
-0.875936
0.359422
-3.9983
3.15755
-3.13463
-0.308172
6.22291
-2.81881
0.256936
-1.15102
-2.35881
-2.86917
2.71113
6.176
0.293571
3.113
5.19651
3.0993
0.226896
3.89549
-5.67394
-3.6671
-5.89121
-0.369214
4.47571
1.75141
7.96835
5.81497
4.81595
-1.84343
-10.0114
6.52203
-2.05665
5.18982
-1.17387
-4.90776
5.04388
2.36202
-5.69458
0.0382831
-4.86948
-6.92612
-0.513648
8.23996
-9.5987
8.54811
5.70351
1.36488
-4.40619
-0.739129
4.2398
0.136891
10.4952
-1.12833
-6.73405
7.86238
-4.58185
3.61203
0.76138
2.68475
2.13553
1.30791
-5.42614
-10.006
-2.03734
-1.52032
-4.39851
0.5324
-2.39626
6.22594
-2.6139
3.91397
5.24848
6.26857
-2.13506
-4.11763
6.42947
-2.5155
3.75308
)
;

boundaryField
{
    wall-4
    {
        type            calculated;
        value           uniform 0;
    }
    velocity-inlet-5
    {
        type            calculated;
        value           uniform -3.75095;
    }
    velocity-inlet-6
    {
        type            calculated;
        value           uniform -5.62643;
    }
    pressure-outlet-7
    {
        type            calculated;
        value           nonuniform List<scalar> 8(3.32989 7.72222 4.43175 9.7302 7.43923 5.14502 5.7381 8.97693);
    }
    wall-8
    {
        type            calculated;
        value           uniform 0;
    }
    frontAndBackPlanes
    {
        type            empty;
    }
}


// ************************************************************************* //
