/*--------------------------------*- C++ -*----------------------------------*\
  =========                 |
  \\      /  F ield         | OpenFOAM: The Open Source CFD Toolbox
   \\    /   O peration     | Website:  https://openfoam.org
    \\  /    A nd           | Version:  13
     \\/     M anipulation  |
\*---------------------------------------------------------------------------*/
FoamFile
{
    format      ascii;
    class       volScalarField;
    location    "0.006";
    object      mag(U);
}
// * * * * * * * * * * * * * * * * * * * * * * * * * * * * * * * * * * * * * //

dimensions      [0 1 -1 0 0 0 0];

internalField   nonuniform List<scalar> 
1000
(
7.5037e-12
6.53657e-12
6.02309e-12
7.05004e-12
6.12083e-12
7.55914e-12
7.12298e-12
8.46355e-12
6.08144e-12
7.90777e-12
4.89258e-12
5.77073e-12
4.16759e-12
5.70655e-12
4.73212e-12
5.23392e-12
3.73872e-12
4.17926e-12
3.17128e-12
5.34041e-12
4.63876e-12
4.54248e-12
5.67883e-12
4.6621e-12
5.44398e-12
6.76267e-12
6.55845e-12
5.84951e-12
5.91807e-12
5.29227e-12
6.12812e-12
4.59062e-12
5.02824e-12
4.59937e-12
6.63722e-12
5.35354e-12
6.19814e-12
5.73281e-12
6.751e-12
4.17634e-12
4.50893e-12
4.84444e-12
5.31853e-12
3.2165e-12
3.20191e-12
1.40767e-12
1.59877e-12
9.33587e-14
7.6875e-13
1.29243e-12
1.19908e-12
3.36967e-13
4.17197e-13
1.75485e-12
4.30325e-13
1.82779e-12
1.80445e-12
1.74026e-12
4.57895e-12
2.62571e-12
5.44398e-12
4.17051e-12
4.56145e-12
2.77742e-12
4.27408e-12
2.9656e-12
4.28137e-12
2.89558e-12
4.4039e-12
4.27116e-12
5.21204e-12
4.14425e-12
4.63293e-12
4.86049e-12
4.16467e-12
3.14502e-12
3.51408e-12
2.81097e-12
2.39086e-12
2.30625e-12
1.68192e-12
2.27999e-12
2.10349e-12
3.86126e-12
1.32307e-12
3.55492e-12
1.76215e-12
3.62057e-12
1.52583e-12
3.99692e-12
2.52944e-12
4.81818e-12
2.94518e-12
5.50962e-12
5.24997e-12
6.11499e-12
5.04429e-12
6.1996e-12
4.17926e-12
6.274e-12
4.83715e-12
4.96406e-12
4.61542e-12
4.59354e-12
4.73795e-12
4.60521e-12
4.36598e-12
5.27768e-12
5.06617e-12
5.54025e-12
3.98525e-12
5.24413e-12
3.33611e-12
2.2056e-12
2.48859e-12
2.916e-12
2.48276e-12
3.05312e-12
3.98087e-12
4.81235e-12
5.41772e-12
5.75615e-12
4.99615e-12
4.22448e-12
4.42287e-12
4.24344e-12
4.44621e-12
5.75469e-12
5.57964e-12
5.43523e-12
4.30617e-12
3.72122e-12
2.82702e-12
2.48859e-12
2.60237e-12
2.42441e-12
2.35731e-12
3.83354e-12
5.60736e-12
5.82471e-12
5.0472e-12
4.85757e-12
6.09749e-12
7.14632e-12
7.08943e-12
7.44536e-12
6.61826e-12
6.54532e-12
6.34401e-12
3.92982e-12
4.24053e-12
4.82548e-12
3.96191e-12
3.6089e-12
3.61911e-12
3.15669e-12
3.33028e-12
4.04652e-12
3.43823e-12
3.47178e-12
1.46019e-12
1.11447e-12
2.82994e-13
1.04153e-12
1.93865e-12
2.51631e-12
1.63378e-12
2.58779e-12
3.16982e-12
4.15738e-12
4.56291e-12
4.33097e-12
3.28944e-12
2.14287e-12
2.31355e-12
1.18157e-12
1.02111e-12
6.36006e-13
5.0472e-13
1.58272e-12
4.25949e-13
3.41343e-13
4.30325e-13
1.54771e-12
8.41687e-13
1.14948e-12
8.6065e-13
5.83492e-14
9.13165e-13
7.93549e-13
1.82195e-12
1.51416e-12
2.53819e-12
1.19032e-12
1.31723e-12
1.86134e-12
2.156e-12
2.38648e-12
1.98241e-12
3.03416e-13
1.76506e-13
2.36168e-12
1.56084e-12
1.7636e-12
1.73005e-12
1.77527e-12
3.0327e-12
2.96851e-12
2.93934e-12
2.18809e-12
2.01742e-12
2.19539e-12
2.85765e-12
3.12752e-12
2.64176e-12
3.31132e-13
1.27055e-12
1.37704e-12
2.92621e-12
9.89894e-12
2.2196e-11
4.73343e-11
9.70391e-11
1.9963e-10
4.06762e-10
8.2209e-10
1.65266e-09
3.29685e-09
6.53131e-09
1.28439e-08
2.5079e-08
4.86132e-08
9.3548e-08
1.78681e-07
3.38738e-07
6.37292e-07
1.18975e-06
2.20375e-06
4.04955e-06
7.38129e-06
1.33439e-05
2.39218e-05
4.25209e-05
7.49275e-05
0.00013087
0.000226528
0.000388516
0.00066011
0.00111085
0.0018511
0.00305378
0.00498621
0.00805577
0.0128742
0.0203454
0.0317829
0.0490597
0.0747945
0.112566
0.167142
0.244689
0.352905
0.500966
0.699153
0.957885
1.28571
1.68626
2.158
2.6981
3.30436
3.97426
4.70438
5.49067
6.32869
7.21384
8.14162
9.1077
10.108
11.139
12.1972
13.2798
14.384
15.5077
16.6487
17.8053
18.9759
20.1592
21.3539
22.559
23.7735
24.9967
26.2277
27.466
28.7109
29.962
31.2188
32.4809
33.7478
35.0193
36.2951
37.5749
38.8584
40.1455
41.4358
42.7293
44.0258
45.325
46.6268
47.9312
49.238
50.547
51.8582
53.1715
54.4867
55.8038
57.1227
58.4433
59.7656
61.0894
62.4148
63.7416
65.0698
66.3993
67.7302
69.0623
70.3955
71.7299
73.0654
74.402
75.7396
77.0782
78.4177
79.7581
81.0994
82.4416
83.7845
85.1283
86.4727
87.818
89.1639
90.5104
91.8577
93.2055
94.5539
95.9029
97.2525
98.6026
99.9532
101.304
102.656
104.008
105.36
106.713
108.066
109.42
110.774
112.128
113.482
114.837
116.192
117.548
118.904
120.26
121.616
122.972
124.329
125.686
127.043
128.4
129.757
131.114
132.472
133.83
135.187
136.545
137.903
139.261
140.619
141.977
143.336
144.694
146.052
147.41
148.768
150.127
151.485
152.843
154.201
155.559
156.917
158.275
159.633
160.99
162.348
163.706
165.063
166.42
167.777
169.134
170.491
171.848
173.203
174.558
175.915
177.273
178.629
179.981
181.333
182.69
184.051
185.407
186.753
188.1
189.46
190.829
192.186
193.523
194.866
196.24
197.632
198.996
200.314
201.652
203.069
204.531
205.933
207.211
208.527
210.013
211.573
213.04
214.26
215.491
216.965
218.508
219.963
221.134
222.262
223.653
225.129
226.581
227.816
228.924
230.26
231.727
233.155
234.419
235.494
236.726
238.196
239.656
241.05
242.245
243.336
244.65
246.115
247.579
248.961
250.113
251.239
252.584
254.058
255.424
256.622
257.962
259.458
260.885
262.08
263.014
264.094
265.482
266.896
268.183
269.175
269.998
271.143
272.649
274.198
275.613
276.862
277.796
278.46
279.301
280.41
281.499
282.354
283.168
284.08
284.923
285.593
286.093
286.682
287.391
287.979
288.415
288.784
289.027
289.202
289.492
289.861
290.236
290.61
290.994
291.327
291.529
291.726
292.003
292.256
292.411
292.538
292.701
292.87
293.035
293.17
293.26
293.364
293.494
293.576
293.613
293.68
293.781
293.889
293.954
293.984
294.037
294.116
294.177
294.199
294.219
294.265
294.325
294.368
294.387
294.403
294.42
294.439
294.464
294.484
294.486
294.483
294.489
294.494
294.481
294.464
294.462
294.464
294.456
294.441
294.428
294.419
294.405
294.388
294.373
294.356
294.334
294.319
294.307
294.289
294.265
294.241
294.223
294.206
294.184
294.164
294.151
294.136
294.115
294.093
294.08
294.07
294.053
294.032
294.016
294.009
294
293.985
293.966
293.954
293.948
293.939
293.922
293.909
293.906
293.903
293.891
293.875
293.867
293.866
293.863
293.854
293.842
293.836
293.835
293.834
293.827
293.817
293.811
293.807
293.804
293.8
293.795
293.791
293.787
293.783
293.779
293.776
293.773
293.769
293.765
293.762
293.759
293.755
293.751
293.749
293.746
293.742
293.738
293.735
293.732
293.728
293.724
293.721
293.718
293.714
293.709
293.706
293.704
293.7
293.695
293.691
293.689
293.685
293.679
293.675
293.673
293.67
293.665
293.66
293.656
293.653
293.649
293.644
293.64
293.636
293.632
293.627
293.623
293.619
293.615
293.61
293.606
293.603
293.6
293.596
293.592
293.591
293.59
293.588
293.587
293.588
293.592
293.6
293.609
293.62
293.637
293.66
293.687
293.718
293.753
293.791
293.831
293.865
293.888
293.893
293.879
293.84
293.768
293.662
293.534
293.392
293.266
293.198
293.207
293.265
293.326
293.372
293.406
293.439
293.462
293.457
293.443
293.448
293.463
293.46
293.439
293.428
293.443
293.459
293.451
293.425
293.408
293.418
293.437
293.439
293.42
293.4
293.402
293.419
293.429
293.416
293.399
293.402
293.419
293.424
293.407
293.395
293.406
293.423
293.42
293.398
293.389
293.406
293.423
293.416
293.393
293.384
293.401
293.42
293.413
293.391
293.383
293.398
293.414
293.409
293.39
293.382
293.396
293.411
293.404
293.385
293.381
293.395
293.408
293.4
293.382
293.379
293.393
293.404
293.397
293.38
293.376
293.389
293.4
293.394
293.379
293.373
293.384
293.395
293.391
293.376
293.371
293.381
293.39
293.386
293.373
293.366
293.374
293.384
293.378
293.363
293.358
293.364
293.37
293.363
293.35
293.341
293.344
293.349
293.34
293.324
293.315
293.314
293.313
293.302
293.284
293.269
293.262
293.257
293.239
293.215
293.196
293.181
293.164
293.139
293.105
293.071
293.042
293.016
292.976
292.92
292.867
292.82
292.775
292.72
292.636
292.545
292.468
292.398
292.318
292.19
292.038
291.907
291.79
291.666
291.473
291.216
290.978
290.767
290.552
290.246
289.783
289.27
288.759
288.172
287.418
286.227
284.484
282.331
279.572
275.572
269.295
259.017
241.075
202.369
117.137
28.3217
4.37949
0.658292
0.0970662
0.014236
0.00208803
0.000306135
4.48773e-05
6.57854e-06
9.64381e-07
1.41373e-07
2.07229e-08
3.03583e-09
4.41632e-10
6.28247e-11
6.37612e-12
2.97581e-13
2.60529e-12
3.95316e-13
6.56429e-13
2.77159e-14
9.61304e-13
2.11808e-12
2.81098e-12
7.17696e-13
4.595e-13
1.28806e-12
9.00037e-13
1.22825e-12
3.45719e-12
9.7735e-13
3.73873e-12
3.82188e-12
5.98955e-12
4.38057e-12
5.19017e-12
4.20115e-12
5.11869e-12
5.07493e-12
4.65919e-12
4.57458e-12
3.70664e-12
5.26019e-12
4.52936e-12
1.64253e-12
2.47109e-12
2.53236e-12
2.00721e-12
2.42441e-12
2.89266e-12
1.73443e-12
1.53021e-12
1.19762e-12
1.67025e-12
2.36315e-13
1.60898e-12
1.93282e-12
5.03262e-13
1.23409e-12
1.92261e-12
2.39524e-12
8.1689e-13
6.28713e-13
1.92553e-12
3.87293e-12
4.34848e-12
2.65052e-12
3.29236e-12
3.36967e-13
2.29021e-12
6.97274e-13
8.13972e-13
8.1689e-14
1.26472e-12
2.95539e-12
7.55623e-13
6.68099e-13
2.45359e-12
2.31501e-12
3.12023e-12
5.14932e-12
2.5557e-12
6.06832e-13
2.75992e-12
1.20783e-12
3.32299e-12
2.87662e-12
2.03201e-12
2.04952e-12
2.52944e-12
3.76936e-12
4.0509e-12
2.58341e-12
2.02034e-12
8.13972e-13
1.28077e-12
1.89781e-12
6.50594e-13
2.4565e-12
2.31209e-12
2.91309e-12
5.21497e-12
4.29888e-12
5.50379e-12
3.30111e-12
5.08076e-12
5.35792e-12
5.9983e-12
6.27984e-12
6.37028e-12
7.15654e-12
5.39439e-12
5.76199e-12
6.50157e-12
6.68099e-12
6.22441e-12
6.30318e-12
5.60591e-12
4.56729e-12
6.3484e-12
5.80575e-12
6.66495e-12
6.45051e-12
6.67953e-12
5.41627e-12
5.13182e-12
5.27769e-12
6.26525e-12
7.73274e-12
8.21266e-12
1.03118e-11
9.37527e-12
9.2046e-12
8.41396e-12
7.62333e-12
7.18571e-12
6.51178e-12
6.99462e-12
6.239e-12
6.34111e-12
6.38779e-12
6.36007e-12
7.51684e-12
6.80936e-12
8.18203e-12
8.29727e-12
8.30748e-12
7.03255e-12
5.6307e-12
4.77443e-12
4.89988e-12
6.58617e-12
6.80352e-12
7.19446e-12
5.97788e-12
7.8859e-12
6.65036e-12
7.75024e-12
7.05589e-12
6.24629e-12
6.34548e-12
5.90932e-12
5.06763e-12
5.56798e-12
5.59715e-12
)
;

boundaryField
{
    sides
    {
        type            calculated;
        value           nonuniform List<scalar> 2(5.59715e-12 7.5037e-12);
    }
    empty
    {
        type            empty;
    }
}


// ************************************************************************* //
