/*--------------------------------*- C++ -*----------------------------------*\
  =========                 |
  \\      /  F ield         | OpenFOAM: The Open Source CFD Toolbox
   \\    /   O peration     | Website:  https://openfoam.org
    \\  /    A nd           | Version:  13
     \\/     M anipulation  |
\*---------------------------------------------------------------------------*/
FoamFile
{
    format      ascii;
    class       volScalarField;
    location    "0.006";
    object      p;
}
// * * * * * * * * * * * * * * * * * * * * * * * * * * * * * * * * * * * * * //

dimensions      [1 -1 -2 0 0 0 0];

internalField   nonuniform List<scalar> 
1000
(
100000
100000
100000
100000
100000
100000
100000
100000
100000
100000
100000
100000
100000
100000
100000
100000
100000
100000
100000
100000
100000
100000
100000
100000
100000
100000
100000
100000
100000
100000
100000
100000
100000
100000
100000
100000
100000
100000
100000
100000
100000
100000
100000
100000
100000
100000
100000
100000
100000
100000
100000
100000
100000
100000
100000
100000
100000
100000
100000
100000
100000
100000
100000
100000
100000
100000
100000
100000
100000
100000
100000
100000
100000
100000
100000
100000
100000
100000
100000
100000
100000
100000
100000
100000
100000
100000
100000
100000
100000
100000
100000
100000
100000
100000
100000
100000
100000
100000
100000
100000
100000
100000
100000
100000
100000
100000
100000
100000
100000
100000
100000
100000
100000
100000
100000
100000
100000
100000
100000
100000
100000
100000
100000
100000
100000
100000
100000
100000
100000
100000
100000
100000
100000
100000
100000
100000
100000
100000
100000
100000
100000
100000
100000
100000
100000
100000
100000
100000
100000
100000
100000
100000
100000
100000
100000
100000
100000
100000
100000
100000
100000
100000
100000
100000
100000
100000
100000
100000
100000
100000
100000
100000
100000
100000
100000
100000
100000
100000
100000
100000
100000
100000
100000
100000
100000
100000
100000
100000
100000
100000
100000
100000
100000
100000
100000
100000
100000
100000
100000
100000
100000
100000
100000
100000
100000
100000
100000
100000
100000
100000
100000
100000
100000
100000
100000
100000
100000
100000
100000
100000
100000
100000
100000
100000
100000
100000
100000
100000
100000
100000
100000
100000
100000
100000
100000
100000
100000
100000
100000
100000
100000
100000
100000
100000
100000
99999.9
99999.9
99999.8
99999.6
99999.3
99998.9
99998.2
99997
99995.2
99992.5
99988.2
99981.8
99972.3
99958.2
99938
99909.1
99868.9
99813.7
99739.8
99643.1
99520.4
99370.2
99193.7
98992.1
98766.4
98517.7
98247.3
97956.9
97648.3
97323.5
96984.1
96631.9
96268.5
95895.3
95513.6
95124.6
94729.2
94328.4
93923
93513.7
93101
92685.4
92267.6
91847.7
91426.3
91003.7
90580
90155.6
89730.6
89305.3
88879.9
88454.4
88029.1
87604
87179.3
86755.1
86331.4
85908.3
85486
85064.5
84643.8
84224
83805.2
83387.3
82970.5
82554.8
82140.2
81726.8
81314.5
80903.4
80493.6
80085
79677.7
79271.7
78867.1
78463.7
78061.7
77661.1
77261.9
76864
76467.6
76072.6
75679
75286.8
74896.1
74506.9
74119.1
73732.7
73347.9
72964.5
72582.6
72202.2
71823.3
71446
71070.1
70695.7
70322.8
69951.5
69581.6
69213.3
68846.5
68481.2
68117.5
67755.2
67394.5
67035.4
66677.7
66321.6
65967
65613.9
65262.4
64912.4
64563.9
64216.9
63871.4
63527.5
63185.1
62844.2
62504.8
62167
61830.6
61495.8
61162.5
60830.6
60500.3
60171.5
59844.2
59518.4
59194
58871.2
58549.9
58230
57911.6
57594.7
57279.3
56965.3
56652.9
56341.8
56032.2
55724.2
55417.6
55112.4
54808.6
54506.3
54205.5
53906.2
53608.1
53311.5
53016.4
52722.9
52430.7
52139.6
51849.9
51562.1
51276.1
50990.9
50706.2
50423.2
50143.1
49865
49586.4
49307.1
49030.2
48758.5
48489.3
48217.1
47941.1
47669.3
47407.3
47148.4
46880.7
46603
46334.7
46085.8
45840.1
45571.4
45274.1
45004.4
44776
44550.1
44283.5
43925.5
43640.4
43440.9
43236.2
43003.3
42578.9
42271.9
42102
41920.1
41745.3
41347.6
41017.9
40866.7
40699.4
40548.1
40264.5
39880.4
39731.2
39583.4
39396.2
39183.1
38772.6
38586.5
38465.8
38289.6
38114
37836.7
37481
37336
37198.6
37034.6
36875.7
36515.3
36237.7
36085.7
35960.1
35777.5
35410
35263.4
35161.7
35010.7
34824.5
34396.3
34213.5
34123.7
34034.9
33885.7
33649.8
33233.2
33094.8
33010.8
32915.5
32777.8
32670.6
32502.1
32139
32033.3
31991.6
31950.7
31701
31561.7
31503.6
31424.1
31322.7
31069.3
30990.4
30966.3
30945.7
30914.1
30911.1
30825.8
30689.8
30664.6
30648.8
30635.9
30628.2
30636.5
30642.2
30540.3
30502.6
30505.4
30513
30453.6
30424.1
30420.7
30419.4
30426.9
30423.8
30386.2
30379.4
30389.8
30368.7
30321.9
30315.9
30318.4
30333
30319
30289.3
30287.3
30298.7
30300.7
30275.8
30267
30269.2
30285
30286.4
30278.2
30276.3
30275.5
30275.6
30285.9
30290
30287.7
30284.9
30292.1
30297.6
30293
30287.6
30294.4
30301.5
30301.9
30300.4
30302.1
30307.9
30308.4
30308.6
30313.3
30314.7
30313.3
30317.6
30324.6
30325.2
30324.6
30323.8
30327.6
30329.7
30329
30329
30334.4
30336.1
30334.1
30332
30335.8
30340.1
30339.2
30335.4
30335.9
30341.9
30343.6
30342.3
30338.8
30339.4
30344.3
30344.5
30339.8
30339
30344.7
30347.1
30344.4
30340.4
30341.2
30345.7
30346.8
30344.6
30341.2
30341.4
30345.1
30346.5
30344.5
30341.6
30341.3
30342
30342.6
30342
30341.2
30341.1
30341.2
30340.7
30340.3
30340.3
30340.4
30339.8
30339.4
30339.5
30339.3
30338.4
30338.2
30338.4
30338.4
30337.6
30337.3
30337.4
30337.4
30336.4
30336.1
30336.4
30336.5
30335.5
30334.9
30335.1
30335.5
30334.8
30333.9
30334
30334.6
30333.8
30332.5
30332.4
30333.2
30333.3
30331.9
30331.4
30331.4
30331.6
30331.3
30330.2
30330
30330.1
30329.9
30328.7
30328.4
30328.6
30328.5
30327.2
30326.7
30326.9
30327.1
30325.4
30324.7
30324.9
30325.6
30324.7
30323.1
30322.9
30323.1
30323.5
30322.9
30322
30321.9
30322.3
30322.4
30321.6
30321.1
30321
30321
30320.5
30317.9
30314.8
30313.8
30313.9
30310.5
30307.3
30307.5
30308.9
30309.6
30310.8
30313.7
30318.5
30318.1
30313
30311.9
30314.5
30316.9
30310.5
30306.3
30310
30315.8
30314.6
30305.6
30303
30310.9
30317.2
30314.3
30303.3
30301.8
30308.1
30313.7
30314.3
30306.2
30301.1
30303.4
30311.2
30312.5
30306.7
30301.5
30304
30310.6
30311.2
30303.8
30300.2
30305.5
30311.8
30309.8
30300.7
30299.1
30306.9
30312.5
30309.2
30299.2
30298.5
30307
30311.4
30308.5
30300
30298.8
30305.6
30310.5
30307.9
30299.7
30299.1
30306
30309.5
30306.6
30299.8
30299.3
30305.9
30309.7
30306.3
30299.2
30299.1
30305.8
30309.3
30306.2
30299.4
30299.1
30305
30308.5
30306.2
30299.6
30299.4
30304.9
30307.3
30305.6
30300.3
30299.4
30303.8
30307.1
30305.3
30299.5
30299.2
30303.9
30306
30304.2
30299.4
30298.7
30302.4
30305.2
30303.3
30298.1
30297.9
30301.5
30303.1
30301.2
30297.2
30296.4
30298.6
30300.9
30298.9
30294.2
30294.1
30295.8
30296.7
30294.5
30290.9
30289.8
30290.1
30291.5
30289.1
30282.6
30281.9
30281.1
30281
30279.4
30270.6
30266
30265.3
30265.9
30265
30250
30241.6
30239.4
30239.3
30240.2
30220.3
30201.5
30196.8
30195.3
30197.6
30175.9
30134.2
30123
30118.4
30120
30103.7
30022.5
29981.5
29958.2
29935.7
29914.2
29797.4
29571.6
29419.8
29255.1
28978.5
28483.1
27586.2
26146.4
23384.7
15933.9
11019.6
10167.8
10024.9
10003.7
10000.5
10000.1
10000
10000
10000
10000
10000
10000
10000
10000
10000
10000
10000
10000
10000
10000
10000
10000
10000
10000
10000
10000
10000
10000
10000
10000
10000
10000
10000
10000
10000
10000
10000
10000
10000
10000
10000
10000
10000
10000
10000
10000
10000
10000
10000
10000
10000
10000
10000
10000
10000
10000
10000
10000
10000
10000
10000
10000
10000
10000
10000
10000
10000
10000
10000
10000
10000
10000
10000
10000
10000
10000
10000
10000
10000
10000
10000
10000
10000
10000
10000
10000
10000
10000
10000
10000
10000
10000
10000
10000
10000
10000
10000
10000
10000
10000
10000
10000
10000
10000
10000
10000
10000
10000
10000
10000
10000
10000
10000
10000
10000
10000
10000
10000
10000
10000
10000
10000
10000
10000
10000
10000
10000
10000
10000
10000
10000
10000
10000
10000
10000
10000
10000
10000
10000
10000
10000
10000
10000
10000
10000
10000
10000
10000
10000
10000
10000
10000
10000
10000
10000
10000
10000
10000
10000
10000
10000
10000
10000
10000
10000
)
;

boundaryField
{
    sides
    {
        type            zeroGradient;
    }
    empty
    {
        type            empty;
    }
}


// ************************************************************************* //
