/*--------------------------------*- C++ -*----------------------------------*\
  =========                 |
  \\      /  F ield         | OpenFOAM: The Open Source CFD Toolbox
   \\    /   O peration     | Website:  https://openfoam.org
    \\  /    A nd           | Version:  13
     \\/     M anipulation  |
\*---------------------------------------------------------------------------*/
FoamFile
{
    format      ascii;
    class       surfaceScalarField;
    location    "0.006";
    object      phi;
}
// * * * * * * * * * * * * * * * * * * * * * * * * * * * * * * * * * * * * * //

dimensions      [1 0 -1 0 0 0 0];

internalField   nonuniform List<scalar> 
999
(
-2.7832e-11
-2.3995e-11
-2.69509e-11
-2.65956e-11
-2.79456e-11
-2.91323e-11
-3.11502e-11
-2.85638e-11
-2.83507e-11
-2.49756e-11
-2.17071e-11
-2.03002e-11
-1.92273e-11
-2.11955e-11
-2.00515e-11
-1.74794e-11
-1.5639e-11
-1.46159e-11
-1.72022e-11
-2.01013e-11
-1.7998e-11
-2.10747e-11
-2.03002e-11
-1.95186e-11
-2.53451e-11
-2.58424e-11
-2.50182e-11
-2.33271e-11
-2.25242e-11
-2.28724e-11
-2.14442e-11
-2.03286e-11
-1.78844e-11
-2.26592e-11
-2.44071e-11
-2.34479e-11
-2.28795e-11
-2.53948e-11
-2.24816e-11
-1.67617e-11
-1.9206e-11
-2.05276e-11
-1.65983e-11
-1.29816e-11
-9.74865e-12
-5.64171e-12
-3.69482e-12
1.66267e-12
3.69482e-12
2.98428e-13
-3.41061e-12
1.13687e-13
4.583e-12
4.68248e-12
4.10694e-12
7.42517e-12
7.08411e-12
1.328e-11
1.39053e-11
1.57456e-11
1.88649e-11
1.79128e-11
1.51275e-11
1.33937e-11
1.4694e-11
1.5369e-11
1.39124e-11
1.37845e-11
1.77351e-11
1.90923e-11
1.93268e-11
1.69678e-11
1.9412e-11
1.74296e-11
1.51488e-11
1.33156e-11
1.22142e-11
9.87654e-12
1.01892e-11
7.23333e-12
8.96705e-12
7.86571e-12
1.20863e-11
1.01963e-11
1.02958e-11
1.00826e-11
1.12195e-11
9.96891e-12
1.12337e-11
1.26263e-11
1.52909e-11
1.44738e-11
1.76357e-11
2.14371e-11
2.36327e-11
2.11315e-11
2.33484e-11
1.98028e-11
2.16218e-11
2.25171e-11
1.95186e-11
1.86944e-11
1.78275e-11
1.88933e-11
1.9277e-11
1.72875e-11
1.8666e-11
2.13234e-11
2.06413e-11
1.96039e-11
1.75575e-11
1.78133e-11
1.06013e-11
1.03171e-11
1.00258e-11
1.04308e-11
1.08713e-11
1.49001e-11
1.66551e-11
2.0016e-11
2.32347e-11
2.11173e-11
1.87725e-11
1.65272e-11
1.81899e-11
1.62999e-11
2.16858e-11
2.22613e-11
2.224e-11
1.94831e-11
1.49214e-11
1.42322e-11
1.00329e-11
1.05942e-11
9.75575e-12
9.32232e-12
1.193e-11
1.99307e-11
2.32632e-11
2.14015e-11
1.89786e-11
2.22258e-11
2.69296e-11
2.82085e-11
2.90257e-11
2.77467e-11
2.58638e-11
2.60414e-11
2.116e-11
1.62572e-11
1.83107e-11
1.66906e-11
1.58735e-11
1.40759e-11
1.37064e-11
1.32516e-11
1.43459e-11
1.4424e-11
1.44595e-11
9.27969e-12
5.69855e-12
2.50822e-12
2.3519e-12
6.30251e-12
9.62075e-12
7.54596e-12
8.34888e-12
1.13545e-11
1.5028e-11
1.67475e-11
1.88578e-11
1.46869e-11
1.0445e-11
8.08598e-12
2.68585e-12
-4.11404e-12
-3.68061e-12
-3.55271e-13
4.60432e-12
2.11742e-12
-1.37845e-12
1.35003e-13
4.31299e-12
4.61853e-12
3.74456e-12
5.04485e-13
-1.74794e-12
-1.81899e-12
-3.60956e-12
1.84741e-12
7.36122e-12
7.3257e-12
8.10019e-12
4.66116e-12
6.48726e-12
7.68097e-12
9.72022e-12
8.27782e-12
4.74643e-12
2.70006e-13
-4.79616e-12
-7.84439e-12
-6.27409e-12
-7.33991e-12
-7.62412e-12
-8.88178e-12
-1.15392e-11
-1.26477e-11
-9.4218e-12
-8.66862e-12
-8.99547e-12
-9.91918e-12
-1.23919e-11
-1.06368e-11
-6.29541e-12
-3.62377e-12
2.91323e-13
7.63833e-12
2.51532e-11
6.12204e-11
1.32509e-10
2.73985e-10
5.65841e-10
1.15682e-09
2.34651e-09
4.72795e-09
9.46279e-09
1.88039e-08
3.70976e-08
7.26622e-08
1.41301e-07
2.72787e-07
5.22756e-07
9.94332e-07
1.87707e-06
3.51637e-06
6.53623e-06
1.20538e-05
2.20514e-05
4.00128e-05
7.2004e-05
0.000128483
0.000227301
0.000398616
0.000692837
0.00119331
0.00203631
0.00344201
0.00576191
0.00955016
0.0156689
0.025441
0.0408673
0.0649279
0.101989
0.158334
0.24284
0.367777
0.549714
0.810423
1.17761
1.68519
2.37255
3.28226
4.45484
5.91837
7.67136
9.69466
11.9768
14.5072
17.271
20.2504
23.4258
26.7767
30.2827
33.9243
37.6831
41.5426
45.4877
49.5049
53.5824
57.7097
61.8776
66.0782
70.3043
74.5499
78.8097
83.0788
87.3532
91.6293
95.9039
100.174
104.438
108.692
112.936
117.167
121.384
125.585
129.769
133.936
138.083
142.211
146.319
150.405
154.47
158.511
162.531
166.526
170.498
174.446
178.369
182.267
186.14
189.988
193.81
197.606
201.377
205.121
208.839
212.531
216.196
219.834
223.446
227.031
230.589
234.12
237.624
241.102
244.552
247.975
251.371
254.74
258.082
261.397
264.685
267.946
271.18
274.387
277.567
280.72
283.846
286.945
290.018
293.063
296.082
299.075
302.04
304.979
307.892
310.778
313.638
316.471
319.278
322.059
324.814
327.543
330.246
332.923
335.575
338.2
340.8
343.375
345.924
348.448
350.946
353.42
355.868
358.291
360.689
363.063
365.412
367.736
370.036
372.312
374.563
376.79
378.993
381.171
383.326
385.458
387.566
389.649
391.708
393.746
395.761
397.752
399.718
401.661
403.584
405.486
407.362
409.212
411.042
412.856
414.648
416.408
418.14
419.864
421.58
423.265
424.9
426.508
428.136
429.778
431.363
432.85
434.314
435.867
437.479
438.98
440.274
441.552
443.078
444.747
446.18
447.167
448.197
449.861
451.803
453.237
453.542
454.104
456.374
459.092
461.075
460.148
459.224
462.683
466.522
469.703
468.691
464.342
468.414
472.623
476.465
477.419
469.637
473.131
477.121
480.316
484.026
475.593
477.284
481.58
483.611
486.574
481.829
479.714
483.863
487.048
488.252
490.77
483.105
484.574
488.49
490.778
494.026
493.032
486.49
489.512
493.515
498.207
492.299
491.368
495.898
499.272
501.931
496.003
491.015
494.615
499.075
501.961
503.393
493.786
492.003
495.579
499.395
501.711
503.965
508.664
499.537
497.749
501.341
506.259
504.596
498.066
500.467
502.519
504.331
499.464
496.293
497.988
499.973
501.313
503.305
504.938
497.783
497.593
498.477
499.481
500.638
502.072
504.862
503.384
500.023
500.742
502.42
501.822
499.494
499.974
500.604
501.464
502.686
501.792
501.282
502.077
502.876
500.294
499.978
500.172
501.194
501.737
500.037
499.845
500.27
501.034
500.334
499.4
499.318
500.015
500.462
500.171
499.885
499.813
499.7
499.949
500.366
500.315
500.018
500.068
500.541
500.449
499.927
499.897
500.401
500.364
500.224
500.061
500.274
500.26
500.128
500.169
500.24
500.093
499.986
500.379
500.366
500.289
500.125
500.121
500.268
500.194
500.052
500.168
500.305
500.227
499.984
499.959
500.243
500.226
499.981
499.837
500.028
500.176
500.153
499.911
499.804
499.991
500.093
499.902
499.701
499.841
500.089
500.065
499.765
499.707
499.907
500.02
500.005
499.755
499.704
499.828
499.954
499.942
499.722
499.673
499.66
499.701
499.689
499.618
499.604
499.602
499.589
499.546
499.538
499.54
499.524
499.481
499.474
499.473
499.418
499.388
499.378
499.381
499.344
499.299
499.286
499.285
499.233
499.187
499.172
499.178
499.131
499.059
499.035
499.038
499.014
498.923
498.891
498.902
498.887
498.767
498.725
498.73
498.737
498.664
498.588
498.556
498.534
498.513
498.42
498.36
498.318
498.282
498.171
498.076
498.013
497.965
497.839
497.731
497.681
497.655
497.535
497.395
497.314
497.247
497.108
496.84
496.605
496.313
495.956
495.444
494.675
493.696
492.367
490.534
487.96
484.448
479.798
473.693
465.868
456.045
444.117
430.303
414.751
397.833
380.057
362.631
346.485
332.778
322.733
316.454
313.22
311.508
310.612
310.169
310.052
310.182
310.138
309.889
309.917
310.269
310.447
310.303
310.225
310.402
310.778
310.831
310.526
310.378
310.426
310.752
310.821
310.709
310.423
310.407
310.666
310.789
310.761
310.475
310.445
310.711
310.813
310.673
310.442
310.492
310.8
310.845
310.563
310.409
310.539
310.841
310.853
310.535
310.411
310.533
310.825
310.86
310.548
310.427
310.542
310.806
310.818
310.558
310.454
310.549
310.787
310.811
310.538
310.448
310.586
310.802
310.793
310.527
310.456
310.601
310.801
310.787
310.543
310.475
310.602
310.788
310.784
310.578
310.504
310.587
310.765
310.795
310.596
310.518
310.607
310.774
310.778
310.607
310.538
310.6
310.76
310.788
310.601
310.537
310.617
310.761
310.761
310.602
310.551
310.596
310.726
310.753
310.584
310.537
310.595
310.703
310.702
310.56
310.53
310.546
310.638
310.669
310.502
310.476
310.509
310.553
310.567
310.421
310.374
310.377
310.436
310.514
310.268
310.126
310.165
310.213
310.338
310.129
309.756
309.784
309.866
310.054
309.94
309.15
309.141
309.254
309.504
309.612
308.261
308.023
308.16
308.479
308.956
307.258
305.794
305.816
306.039
306.629
306.493
300.976
298.225
297.713
296.054
291.683
282.008
263.431
234.997
176.696
36.692
7.00678
1.0473
0.15415
0.0226548
0.00332216
0.000487156
7.14197e-05
1.04695e-05
1.53472e-06
2.24983e-07
3.2981e-08
4.83404e-09
7.07402e-10
1.02509e-10
1.39928e-11
1.14708e-12
-8.70859e-13
-6.95888e-13
-3.12639e-13
-1.28342e-13
-2.10054e-13
-7.20757e-13
-1.26743e-12
-9.66782e-13
-4.52971e-14
3.53939e-13
5.95524e-13
4.85834e-13
1.31228e-12
9.91207e-13
1.1493e-12
2.02949e-12
2.43894e-12
2.57616e-12
2.46336e-12
2.16271e-12
2.498e-12
2.57128e-12
2.36566e-12
2.25731e-12
2.09388e-12
2.2542e-12
2.45315e-12
1.52012e-12
1.07514e-12
1.24345e-12
1.10933e-12
1.01386e-12
1.43929e-12
1.10756e-12
8.46878e-13
6.15508e-13
7.97584e-13
3.09086e-13
-3.92575e-13
-1.02052e-12
-2.9976e-13
4.93383e-13
6.91891e-13
1.17684e-12
7.94032e-13
3.33511e-13
6.56364e-13
1.44551e-12
1.99485e-12
1.83764e-12
1.42331e-12
1.02229e-12
5.30243e-13
5.16476e-13
1.33227e-14
2.0961e-13
2.54907e-13
1.20082e-12
4.55636e-13
-8.88178e-15
7.13651e-13
1.14975e-12
1.46017e-12
1.9531e-12
2.07034e-12
7.00773e-13
9.15712e-13
9.05942e-13
1.22391e-12
1.55564e-12
1.28342e-12
9.66782e-13
1.06848e-12
1.6156e-12
2.03437e-12
1.57252e-12
1.11644e-12
6.4837e-13
6.28386e-13
7.07878e-13
5.94635e-13
8.79297e-13
1.05338e-12
1.4353e-12
1.93889e-12
2.31637e-12
2.53131e-12
2.12186e-12
2.06857e-12
2.62901e-12
2.94431e-12
2.98561e-12
3.10063e-12
3.4408e-12
3.05089e-12
2.75557e-12
3.11173e-12
3.31646e-12
3.2232e-12
3.05889e-12
3.01981e-12
2.52731e-12
2.72982e-12
3.02069e-12
3.06066e-12
3.38307e-12
3.17657e-12
3.08154e-12
2.75291e-12
2.46914e-12
2.78622e-12
3.57803e-12
4.03988e-12
4.59677e-12
4.93294e-12
4.50306e-12
4.54703e-12
3.99814e-12
3.61755e-12
3.47278e-12
3.2836e-12
3.40084e-12
3.11573e-12
3.23475e-12
3.11795e-12
3.4821e-12
3.60334e-12
3.71392e-12
4.03588e-12
4.22773e-12
3.8991e-12
3.04423e-12
2.61746e-12
2.4456e-12
2.81331e-12
3.31113e-12
3.63043e-12
3.34799e-12
3.43059e-12
3.44658e-12
3.75877e-12
3.69704e-12
3.4226e-12
2.99805e-12
3.16058e-12
2.76845e-12
2.54108e-12
2.92655e-12
)
;

boundaryField
{
    sides
    {
        type            calculated;
        value           nonuniform List<scalar> 2(2.78669e-12 3.00352e-11);
    }
    empty
    {
        type            empty;
    }
}


// ************************************************************************* //
