/*--------------------------------*- C++ -*----------------------------------*\
  =========                 |
  \\      /  F ield         | OpenFOAM: The Open Source CFD Toolbox
   \\    /   O peration     | Website:  https://openfoam.org
    \\  /    A nd           | Version:  13
     \\/     M anipulation  |
\*---------------------------------------------------------------------------*/
FoamFile
{
    format      ascii;
    class       volScalarField;
    location    "0.006";
    object      rho;
}
// * * * * * * * * * * * * * * * * * * * * * * * * * * * * * * * * * * * * * //

dimensions      [1 -3 0 0 0 0 0];

internalField   nonuniform List<scalar> 
1000
(
0.997575
0.997575
0.997575
0.997575
0.997575
0.997575
0.997575
0.997575
0.997575
0.997575
0.997575
0.997575
0.997575
0.997575
0.997575
0.997575
0.997575
0.997575
0.997575
0.997575
0.997575
0.997575
0.997575
0.997575
0.997575
0.997575
0.997575
0.997575
0.997575
0.997575
0.997575
0.997575
0.997575
0.997575
0.997575
0.997575
0.997575
0.997575
0.997575
0.997575
0.997575
0.997575
0.997575
0.997575
0.997575
0.997575
0.997575
0.997575
0.997575
0.997575
0.997575
0.997575
0.997575
0.997575
0.997575
0.997575
0.997575
0.997575
0.997575
0.997575
0.997575
0.997575
0.997575
0.997575
0.997575
0.997575
0.997575
0.997575
0.997575
0.997575
0.997575
0.997575
0.997575
0.997575
0.997575
0.997575
0.997575
0.997575
0.997575
0.997575
0.997575
0.997575
0.997575
0.997575
0.997575
0.997575
0.997575
0.997575
0.997575
0.997575
0.997575
0.997575
0.997575
0.997575
0.997575
0.997575
0.997575
0.997575
0.997575
0.997575
0.997575
0.997575
0.997575
0.997575
0.997575
0.997575
0.997575
0.997575
0.997575
0.997575
0.997575
0.997575
0.997575
0.997575
0.997575
0.997575
0.997575
0.997575
0.997575
0.997575
0.997575
0.997575
0.997575
0.997575
0.997575
0.997575
0.997575
0.997575
0.997575
0.997575
0.997575
0.997575
0.997575
0.997575
0.997575
0.997575
0.997575
0.997575
0.997575
0.997575
0.997575
0.997575
0.997575
0.997575
0.997575
0.997575
0.997575
0.997575
0.997575
0.997575
0.997575
0.997575
0.997575
0.997575
0.997575
0.997575
0.997575
0.997575
0.997575
0.997575
0.997575
0.997575
0.997575
0.997575
0.997575
0.997575
0.997575
0.997575
0.997575
0.997575
0.997575
0.997575
0.997575
0.997575
0.997575
0.997575
0.997575
0.997575
0.997575
0.997575
0.997575
0.997575
0.997575
0.997575
0.997575
0.997575
0.997575
0.997575
0.997575
0.997575
0.997575
0.997575
0.997575
0.997575
0.997575
0.997575
0.997575
0.997575
0.997575
0.997575
0.997575
0.997575
0.997575
0.997575
0.997575
0.997575
0.997575
0.997575
0.997575
0.997575
0.997575
0.997575
0.997575
0.997575
0.997575
0.997575
0.997575
0.997575
0.997575
0.997575
0.997575
0.997575
0.997575
0.997575
0.997575
0.997575
0.997575
0.997575
0.997575
0.997575
0.997575
0.997575
0.997575
0.997575
0.997575
0.997575
0.997575
0.997575
0.997575
0.997575
0.997575
0.997574
0.997574
0.997574
0.997574
0.997574
0.997574
0.997573
0.997572
0.99757
0.997567
0.997561
0.997553
0.997541
0.997521
0.997491
0.997445
0.997377
0.997277
0.997133
0.996927
0.996641
0.996248
0.995721
0.995032
0.994158
0.993086
0.991827
0.990388
0.988776
0.986997
0.985063
0.982984
0.980773
0.978443
0.976006
0.973474
0.97086
0.968171
0.965419
0.96261
0.959753
0.956853
0.953915
0.950946
0.947948
0.944926
0.941883
0.938821
0.935744
0.932654
0.929553
0.926441
0.923322
0.920196
0.917064
0.913928
0.910789
0.907648
0.904504
0.90136
0.898216
0.895072
0.891928
0.888787
0.885647
0.882509
0.879374
0.876242
0.873113
0.869988
0.866867
0.86375
0.860638
0.85753
0.854427
0.851329
0.848236
0.845148
0.842066
0.83899
0.83592
0.832855
0.829797
0.826745
0.823699
0.820659
0.817626
0.8146
0.81158
0.808567
0.805561
0.802561
0.799569
0.796584
0.793606
0.790635
0.787671
0.784715
0.781766
0.778824
0.77589
0.772963
0.770044
0.767132
0.764228
0.761332
0.758444
0.755563
0.75269
0.749824
0.746967
0.744117
0.741275
0.738441
0.735615
0.732797
0.729987
0.727185
0.724391
0.721605
0.718826
0.716056
0.713294
0.71054
0.707794
0.705057
0.702327
0.699605
0.696892
0.694187
0.691489
0.6888
0.686119
0.683446
0.680782
0.678125
0.675477
0.672837
0.670205
0.667581
0.664966
0.662358
0.659758
0.657168
0.654585
0.65201
0.649443
0.646884
0.644335
0.641793
0.639259
0.636732
0.634215
0.631707
0.629207
0.626711
0.624224
0.62175
0.619286
0.616826
0.614366
0.611917
0.609489
0.607074
0.604652
0.602219
0.599805
0.597431
0.595074
0.592687
0.590265
0.587876
0.585568
0.583282
0.580915
0.578459
0.576085
0.573874
0.571683
0.569285
0.56664
0.564239
0.562191
0.560156
0.557747
0.554541
0.552
0.550185
0.548319
0.546184
0.542339
0.539602
0.538031
0.536353
0.534731
0.531065
0.528121
0.526707
0.525144
0.523742
0.521063
0.517601
0.516211
0.514803
0.513068
0.511042
0.507264
0.505548
0.504382
0.502709
0.50107
0.498415
0.495145
0.493766
0.492432
0.490878
0.489345
0.485927
0.483363
0.481903
0.480685
0.478865
0.475407
0.474018
0.473015
0.471566
0.469733
0.465642
0.463894
0.462978
0.462074
0.46063
0.458312
0.45436
0.453013
0.452137
0.451146
0.449773
0.448736
0.447038
0.4436
0.442579
0.442111
0.441596
0.439069
0.437708
0.437102
0.436338
0.435358
0.432939
0.432145
0.431824
0.43155
0.4312
0.431136
0.430222
0.428911
0.428665
0.428526
0.428433
0.428384
0.428481
0.428503
0.427453
0.427052
0.427024
0.427028
0.426405
0.426151
0.426174
0.426233
0.426358
0.426335
0.425956
0.42587
0.425938
0.425677
0.425198
0.425124
0.425145
0.425285
0.425137
0.424855
0.42484
0.424956
0.424968
0.42472
0.424635
0.424657
0.424806
0.424812
0.424724
0.4247
0.424685
0.424681
0.42478
0.424818
0.424797
0.424778
0.424862
0.424927
0.424892
0.424854
0.424934
0.425008
0.425014
0.424998
0.425013
0.425062
0.425057
0.42505
0.425088
0.425092
0.425073
0.425113
0.425175
0.425178
0.42517
0.425161
0.425198
0.425217
0.425207
0.425207
0.425255
0.425266
0.425241
0.425214
0.425247
0.425281
0.425266
0.425223
0.425224
0.425276
0.425286
0.425267
0.425226
0.425229
0.425271
0.425267
0.425217
0.425209
0.425265
0.425287
0.425259
0.425221
0.425231
0.425274
0.425284
0.425259
0.425223
0.425221
0.425249
0.425251
0.425219
0.425177
0.425158
0.42515
0.425145
0.425128
0.425112
0.425104
0.425097
0.425085
0.425074
0.425066
0.425059
0.425045
0.425032
0.425023
0.42501
0.42499
0.424977
0.424967
0.424955
0.424934
0.424918
0.424905
0.424889
0.424865
0.424846
0.424831
0.424814
0.424785
0.42476
0.42474
0.424722
0.424693
0.424662
0.42464
0.424622
0.424591
0.424554
0.42453
0.424514
0.424489
0.42445
0.424418
0.424389
0.424361
0.424324
0.424277
0.424234
0.424189
0.424136
0.424068
0.424004
0.423942
0.423878
0.423804
0.423742
0.423688
0.423632
0.423555
0.423477
0.423393
0.423294
0.423151
0.422964
0.422742
0.422453
0.422073
0.421546
0.420825
0.419841
0.418482
0.416602
0.414021
0.410544
0.40594
0.399976
0.392442
0.383189
0.372208
0.359634
0.345748
0.330989
0.316026
0.301674
0.288905
0.278785
0.271938
0.267983
0.265916
0.264875
0.264369
0.264172
0.264122
0.264122
0.264086
0.264088
0.26416
0.264268
0.264357
0.264404
0.264464
0.264557
0.264621
0.264616
0.26456
0.264559
0.264607
0.264647
0.264656
0.264613
0.264589
0.26461
0.264663
0.264675
0.264643
0.264617
0.264637
0.26468
0.264686
0.264642
0.264624
0.26466
0.2647
0.264688
0.264634
0.264628
0.264679
0.264714
0.264693
0.264636
0.264634
0.264689
0.264716
0.264697
0.264648
0.264642
0.264686
0.264715
0.264699
0.264651
0.264649
0.264693
0.264714
0.264696
0.264656
0.264655
0.264697
0.264721
0.2647
0.264658
0.26466
0.264703
0.264725
0.264706
0.264667
0.264667
0.264706
0.264728
0.264714
0.264677
0.264677
0.264714
0.264729
0.264719
0.264689
0.264686
0.264715
0.264735
0.264724
0.264691
0.264691
0.264721
0.264735
0.264723
0.264696
0.264693
0.264717
0.264735
0.264723
0.264693
0.264693
0.264717
0.264726
0.264715
0.264692
0.264688
0.264702
0.264717
0.264704
0.264677
0.264677
0.264689
0.264694
0.26468
0.26466
0.264655
0.264657
0.264666
0.264652
0.264613
0.264609
0.264605
0.264606
0.264594
0.264542
0.264515
0.264511
0.264517
0.26451
0.264418
0.264369
0.264356
0.264356
0.264361
0.264235
0.264124
0.264096
0.264087
0.264102
0.26396
0.263712
0.263646
0.263618
0.26363
0.263518
0.263022
0.262782
0.262643
0.262512
0.262385
0.261648
0.2603
0.259404
0.258414
0.256742
0.253715
0.248187
0.239153
0.220729
0.169081
0.133425
0.12618
0.124918
0.124729
0.124701
0.124697
0.124697
0.124697
0.124697
0.124697
0.124697
0.124697
0.124697
0.124697
0.124697
0.124697
0.124697
0.124697
0.124697
0.124697
0.124697
0.124697
0.124697
0.124697
0.124697
0.124697
0.124697
0.124697
0.124697
0.124697
0.124697
0.124697
0.124697
0.124697
0.124697
0.124697
0.124697
0.124697
0.124697
0.124697
0.124697
0.124697
0.124697
0.124697
0.124697
0.124697
0.124697
0.124697
0.124697
0.124697
0.124697
0.124697
0.124697
0.124697
0.124697
0.124697
0.124697
0.124697
0.124697
0.124697
0.124697
0.124697
0.124697
0.124697
0.124697
0.124697
0.124697
0.124697
0.124697
0.124697
0.124697
0.124697
0.124697
0.124697
0.124697
0.124697
0.124697
0.124697
0.124697
0.124697
0.124697
0.124697
0.124697
0.124697
0.124697
0.124697
0.124697
0.124697
0.124697
0.124697
0.124697
0.124697
0.124697
0.124697
0.124697
0.124697
0.124697
0.124697
0.124697
0.124697
0.124697
0.124697
0.124697
0.124697
0.124697
0.124697
0.124697
0.124697
0.124697
0.124697
0.124697
0.124697
0.124697
0.124697
0.124697
0.124697
0.124697
0.124697
0.124697
0.124697
0.124697
0.124697
0.124697
0.124697
0.124697
0.124697
0.124697
0.124697
0.124697
0.124697
0.124697
0.124697
0.124697
0.124697
0.124697
0.124697
0.124697
0.124697
0.124697
0.124697
0.124697
0.124697
0.124697
0.124697
0.124697
0.124697
0.124697
0.124697
0.124697
0.124697
0.124697
0.124697
0.124697
0.124697
0.124697
0.124697
0.124697
0.124697
0.124697
0.124697
0.124697
0.124697
0.124697
0.124697
0.124697
)
;

boundaryField
{
    sides
    {
        type            calculated;
        value           nonuniform List<scalar> 2(0.124697 0.997575);
    }
    empty
    {
        type            empty;
    }
}


// ************************************************************************* //
