/*--------------------------------*- C++ -*----------------------------------*\
  =========                 |
  \\      /  F ield         | OpenFOAM: The Open Source CFD Toolbox
   \\    /   O peration     | Website:  https://openfoam.org
    \\  /    A nd           | Version:  13
     \\/     M anipulation  |
\*---------------------------------------------------------------------------*/
FoamFile
{
    format      ascii;
    class       volScalarField;
    location    "0.006";
    object      T;
}
// * * * * * * * * * * * * * * * * * * * * * * * * * * * * * * * * * * * * * //

dimensions      [0 0 0 1 0 0 0];

internalField   nonuniform List<scalar> 
1000
(
348.432
348.432
348.432
348.432
348.432
348.432
348.432
348.432
348.432
348.432
348.432
348.432
348.432
348.432
348.432
348.432
348.432
348.432
348.432
348.432
348.432
348.432
348.432
348.432
348.432
348.432
348.432
348.432
348.432
348.432
348.432
348.432
348.432
348.432
348.432
348.432
348.432
348.432
348.432
348.432
348.432
348.432
348.432
348.432
348.432
348.432
348.432
348.432
348.432
348.432
348.432
348.432
348.432
348.432
348.432
348.432
348.432
348.432
348.432
348.432
348.432
348.432
348.432
348.432
348.432
348.432
348.432
348.432
348.432
348.432
348.432
348.432
348.432
348.432
348.432
348.432
348.432
348.432
348.432
348.432
348.432
348.432
348.432
348.432
348.432
348.432
348.432
348.432
348.432
348.432
348.432
348.432
348.432
348.432
348.432
348.432
348.432
348.432
348.432
348.432
348.432
348.432
348.432
348.432
348.432
348.432
348.432
348.432
348.432
348.432
348.432
348.432
348.432
348.432
348.432
348.432
348.432
348.432
348.432
348.432
348.432
348.432
348.432
348.432
348.432
348.432
348.432
348.432
348.432
348.432
348.432
348.432
348.432
348.432
348.432
348.432
348.432
348.432
348.432
348.432
348.432
348.432
348.432
348.432
348.432
348.432
348.432
348.432
348.432
348.432
348.432
348.432
348.432
348.432
348.432
348.432
348.432
348.432
348.432
348.432
348.432
348.432
348.432
348.432
348.432
348.432
348.432
348.432
348.432
348.432
348.432
348.432
348.432
348.432
348.432
348.432
348.432
348.432
348.432
348.432
348.432
348.432
348.432
348.432
348.432
348.432
348.432
348.432
348.432
348.432
348.432
348.432
348.432
348.432
348.432
348.432
348.432
348.432
348.432
348.432
348.432
348.432
348.432
348.432
348.432
348.432
348.432
348.432
348.432
348.432
348.432
348.432
348.432
348.432
348.432
348.432
348.432
348.432
348.432
348.432
348.432
348.432
348.432
348.432
348.432
348.432
348.432
348.432
348.432
348.432
348.432
348.432
348.432
348.432
348.432
348.432
348.432
348.432
348.432
348.432
348.432
348.432
348.432
348.432
348.432
348.432
348.432
348.432
348.432
348.431
348.431
348.43
348.429
348.427
348.424
348.42
348.414
348.404
348.39
348.37
348.341
348.301
348.246
348.172
348.076
347.953
347.802
347.625
347.423
347.196
346.946
346.673
346.379
346.067
345.737
345.391
345.032
344.66
344.277
343.885
343.483
343.074
342.658
342.236
341.808
341.376
340.939
340.499
340.055
339.608
339.158
338.705
338.25
337.793
337.334
336.874
336.411
335.948
335.483
335.016
334.549
334.081
333.612
333.141
332.67
332.199
331.727
331.254
330.78
330.306
329.832
329.357
328.882
328.406
327.93
327.454
326.977
326.5
326.023
325.546
325.069
324.591
324.114
323.636
323.158
322.68
322.202
321.724
321.246
320.768
320.29
319.812
319.334
318.856
318.378
317.901
317.423
316.945
316.468
315.99
315.513
315.036
314.558
314.082
313.605
313.128
312.652
312.175
311.699
311.223
310.748
310.272
309.797
309.322
308.847
308.372
307.898
307.424
306.95
306.477
306.003
305.53
305.057
304.585
304.113
303.641
303.169
302.698
302.227
301.756
301.285
300.815
300.345
299.876
299.407
298.938
298.47
298.001
297.534
297.066
296.599
296.132
295.666
295.2
294.734
294.269
293.804
293.34
292.876
292.412
291.949
291.486
291.023
290.561
290.099
289.638
289.177
288.716
288.256
287.797
287.338
286.878
286.418
285.962
285.507
285.05
284.589
284.13
283.678
283.23
282.774
282.309
281.849
281.404
280.965
280.508
280.03
279.565
279.135
278.71
278.244
277.72
277.239
276.837
276.441
275.974
275.325
274.798
274.444
274.08
273.669
272.889
272.296
271.994
271.666
271.354
270.624
269.963
269.689
269.385
269.101
268.594
267.811
267.528
267.261
266.896
266.505
265.677
265.3
265.081
264.745
264.393
263.867
263.113
262.827
262.569
262.239
261.932
261.196
260.586
260.279
260.03
259.694
258.895
258.579
258.38
258.061
257.69
256.757
256.356
256.188
256.021
255.698
255.202
254.236
253.929
253.775
253.599
253.309
253.064
252.715
251.829
251.579
251.517
251.489
250.959
250.633
250.519
250.325
250.078
249.441
249.265
249.256
249.248
249.197
249.209
249.049
248.708
248.647
248.6
248.548
248.514
248.526
248.559
248.341
248.268
248.306
248.366
248.245
248.152
248.111
248.066
248.054
248.043
247.956
247.951
247.996
247.976
247.873
247.867
247.875
247.913
247.885
247.805
247.798
247.824
247.833
247.774
247.752
247.757
247.8
247.808
247.791
247.79
247.793
247.795
247.822
247.834
247.827
247.815
247.825
247.832
247.815
247.792
247.802
247.817
247.817
247.813
247.818
247.838
247.845
247.85
247.867
247.875
247.876
247.887
247.908
247.911
247.911
247.91
247.919
247.926
247.925
247.926
247.941
247.949
247.948
247.946
247.958
247.973
247.975
247.969
247.972
247.99
247.999
247.999
247.994
247.998
248.013
248.017
248.008
248.006
248.02
248.027
248.021
248.01
248.011
248.022
248.026
248.022
248.015
248.019
248.032
248.043
248.045
248.046
248.054
248.065
248.073
248.078
248.081
248.085
248.089
248.092
248.095
248.1
248.105
248.108
248.113
248.119
248.125
248.129
248.135
248.142
248.149
248.155
248.162
248.17
248.179
248.186
248.194
248.205
248.216
248.225
248.235
248.248
248.261
248.273
248.284
248.298
248.313
248.325
248.335
248.349
248.365
248.38
248.391
248.406
248.423
248.441
248.46
248.479
248.502
248.53
248.559
248.589
248.624
248.662
248.699
248.731
248.764
248.797
248.831
248.863
248.903
248.954
249.018
249.095
249.191
249.321
249.493
249.722
250.029
250.449
251.036
251.854
252.991
254.562
256.714
259.624
263.495
268.55
275.011
283.095
292.984
304.751
318.305
333.34
349.2
364.652
377.897
387.428
393.183
396.303
397.854
398.55
398.833
398.942
398.972
398.944
398.886
398.825
398.739
398.588
398.399
398.275
398.24
398.224
398.194
398.134
398.116
398.126
398.139
398.133
398.093
398.061
398.06
398.082
398.081
398.053
398.024
398.027
398.048
398.048
398.016
397.997
398.012
398.036
398.028
397.987
397.977
398.002
398.023
398.01
397.966
397.96
397.989
398.006
397.996
397.959
397.951
397.975
397.995
397.985
397.95
397.946
397.969
397.983
397.973
397.943
397.938
397.961
397.976
397.963
397.932
397.928
397.952
397.965
397.953
397.922
397.918
397.938
397.95
397.94
397.91
397.906
397.924
397.932
397.925
397.9
397.894
397.908
397.92
397.912
397.887
397.883
397.899
397.906
397.9
397.878
397.873
397.885
397.896
397.889
397.866
397.863
397.875
397.881
397.874
397.856
397.851
397.858
397.867
397.86
397.839
397.837
397.842
397.845
397.837
397.82
397.814
397.815
397.819
397.81
397.783
397.778
397.774
397.773
397.768
397.732
397.711
397.708
397.708
397.706
397.648
397.61
397.601
397.599
397.604
397.532
397.451
397.432
397.425
397.433
397.361
397.185
397.137
397.118
397.121
397.075
396.75
396.571
396.473
396.373
396.28
395.845
394.88
394.209
393.504
392.322
390.215
386.345
380.015
368.245
327.559
287.072
280.09
278.945
278.775
278.75
278.747
278.746
278.746
278.746
278.746
278.746
278.746
278.746
278.746
278.746
278.746
278.746
278.746
278.746
278.746
278.746
278.746
278.746
278.746
278.746
278.746
278.746
278.746
278.746
278.746
278.746
278.746
278.746
278.746
278.746
278.746
278.746
278.746
278.746
278.746
278.746
278.746
278.746
278.746
278.746
278.746
278.746
278.746
278.746
278.746
278.746
278.746
278.746
278.746
278.746
278.746
278.746
278.746
278.746
278.746
278.746
278.746
278.746
278.746
278.746
278.746
278.746
278.746
278.746
278.746
278.746
278.746
278.746
278.746
278.746
278.746
278.746
278.746
278.746
278.746
278.746
278.746
278.746
278.746
278.746
278.746
278.746
278.746
278.746
278.746
278.746
278.746
278.746
278.746
278.746
278.746
278.746
278.746
278.746
278.746
278.746
278.746
278.746
278.746
278.746
278.746
278.746
278.746
278.746
278.746
278.746
278.746
278.746
278.746
278.746
278.746
278.746
278.746
278.746
278.746
278.746
278.746
278.746
278.746
278.746
278.746
278.746
278.746
278.746
278.746
278.746
278.746
278.746
278.746
278.746
278.746
278.746
278.746
278.746
278.746
278.746
278.746
278.746
278.746
278.746
278.746
278.746
278.746
278.746
278.746
278.746
278.746
278.746
278.746
278.746
278.746
278.746
278.746
278.746
278.746
278.746
278.746
278.746
278.746
278.746
)
;

boundaryField
{
    sides
    {
        type            zeroGradient;
    }
    empty
    {
        type            empty;
    }
}


// ************************************************************************* //
