/*--------------------------------*- C++ -*----------------------------------*\
  =========                 |
  \\      /  F ield         | OpenFOAM: The Open Source CFD Toolbox
   \\    /   O peration     | Website:  https://openfoam.org
    \\  /    A nd           | Version:  13
     \\/     M anipulation  |
\*---------------------------------------------------------------------------*/
FoamFile
{
    format      ascii;
    class       volVectorField;
    location    "0.006";
    object      U;
}
// * * * * * * * * * * * * * * * * * * * * * * * * * * * * * * * * * * * * * //

dimensions      [0 1 -1 0 0 0 0];

internalField   nonuniform List<vector> 
1000
(
(-7.5037e-12 0 0)
(-6.53657e-12 0 0)
(-6.02309e-12 0 0)
(-7.05004e-12 0 0)
(-6.12083e-12 0 0)
(-7.55914e-12 0 0)
(-7.12298e-12 0 0)
(-8.46355e-12 0 0)
(-6.08144e-12 0 0)
(-7.90777e-12 0 0)
(-4.89258e-12 0 0)
(-5.77073e-12 0 0)
(-4.16759e-12 0 0)
(-5.70655e-12 0 0)
(-4.73212e-12 0 0)
(-5.23392e-12 0 0)
(-3.73872e-12 0 0)
(-4.17926e-12 0 0)
(-3.17128e-12 0 0)
(-5.34041e-12 0 0)
(-4.63876e-12 0 0)
(-4.54248e-12 0 0)
(-5.67883e-12 0 0)
(-4.6621e-12 0 0)
(-5.44398e-12 0 0)
(-6.76267e-12 0 0)
(-6.55845e-12 0 0)
(-5.84951e-12 0 0)
(-5.91807e-12 0 0)
(-5.29227e-12 0 0)
(-6.12812e-12 0 0)
(-4.59062e-12 0 0)
(-5.02824e-12 0 0)
(-4.59937e-12 0 0)
(-6.63722e-12 0 0)
(-5.35354e-12 0 0)
(-6.19814e-12 0 0)
(-5.73281e-12 0 0)
(-6.751e-12 0 0)
(-4.17634e-12 0 0)
(-4.50893e-12 0 0)
(-4.84444e-12 0 0)
(-5.31853e-12 0 0)
(-3.2165e-12 0 0)
(-3.20191e-12 0 0)
(-1.40767e-12 0 0)
(-1.59877e-12 0 0)
(-9.33587e-14 0 0)
(7.6875e-13 0 0)
(1.29243e-12 0 0)
(-1.19908e-12 0 0)
(-3.36967e-13 0 0)
(4.17197e-13 0 0)
(1.75485e-12 0 0)
(4.30325e-13 0 0)
(1.82779e-12 0 0)
(1.80445e-12 0 0)
(1.74026e-12 0 0)
(4.57895e-12 0 0)
(2.62571e-12 0 0)
(5.44398e-12 0 0)
(4.17051e-12 0 0)
(4.56145e-12 0 0)
(2.77742e-12 0 0)
(4.27408e-12 0 0)
(2.9656e-12 0 0)
(4.28137e-12 0 0)
(2.89558e-12 0 0)
(4.4039e-12 0 0)
(4.27116e-12 0 0)
(5.21204e-12 0 0)
(4.14425e-12 0 0)
(4.63293e-12 0 0)
(4.86049e-12 0 0)
(4.16467e-12 0 0)
(3.14502e-12 0 0)
(3.51408e-12 0 0)
(2.81097e-12 0 0)
(2.39086e-12 0 0)
(2.30625e-12 0 0)
(1.68192e-12 0 0)
(2.27999e-12 0 0)
(2.10349e-12 0 0)
(3.86126e-12 0 0)
(1.32307e-12 0 0)
(3.55492e-12 0 0)
(1.76215e-12 0 0)
(3.62057e-12 0 0)
(1.52583e-12 0 0)
(3.99692e-12 0 0)
(2.52944e-12 0 0)
(4.81818e-12 0 0)
(2.94518e-12 0 0)
(5.50962e-12 0 0)
(5.24997e-12 0 0)
(6.11499e-12 0 0)
(5.04429e-12 0 0)
(6.1996e-12 0 0)
(4.17926e-12 0 0)
(6.274e-12 0 0)
(4.83715e-12 0 0)
(4.96406e-12 0 0)
(4.61542e-12 0 0)
(4.59354e-12 0 0)
(4.73795e-12 0 0)
(4.60521e-12 0 0)
(4.36598e-12 0 0)
(5.27768e-12 0 0)
(5.06617e-12 0 0)
(5.54025e-12 0 0)
(3.98525e-12 0 0)
(5.24413e-12 0 0)
(3.33611e-12 0 0)
(2.2056e-12 0 0)
(2.48859e-12 0 0)
(2.916e-12 0 0)
(2.48276e-12 0 0)
(3.05312e-12 0 0)
(3.98087e-12 0 0)
(4.81235e-12 0 0)
(5.41772e-12 0 0)
(5.75615e-12 0 0)
(4.99615e-12 0 0)
(4.22448e-12 0 0)
(4.42287e-12 0 0)
(4.24344e-12 0 0)
(4.44621e-12 0 0)
(5.75469e-12 0 0)
(5.57964e-12 0 0)
(5.43523e-12 0 0)
(4.30617e-12 0 0)
(3.72122e-12 0 0)
(2.82702e-12 0 0)
(2.48859e-12 0 0)
(2.60237e-12 0 0)
(2.42441e-12 0 0)
(2.35731e-12 0 0)
(3.83354e-12 0 0)
(5.60736e-12 0 0)
(5.82471e-12 0 0)
(5.0472e-12 0 0)
(4.85757e-12 0 0)
(6.09749e-12 0 0)
(7.14632e-12 0 0)
(7.08943e-12 0 0)
(7.44536e-12 0 0)
(6.61826e-12 0 0)
(6.54532e-12 0 0)
(6.34401e-12 0 0)
(3.92982e-12 0 0)
(4.24053e-12 0 0)
(4.82548e-12 0 0)
(3.96191e-12 0 0)
(3.6089e-12 0 0)
(3.61911e-12 0 0)
(3.15669e-12 0 0)
(3.33028e-12 0 0)
(4.04652e-12 0 0)
(3.43823e-12 0 0)
(3.47178e-12 0 0)
(1.46019e-12 0 0)
(1.11447e-12 0 0)
(2.82994e-13 0 0)
(1.04153e-12 0 0)
(1.93865e-12 0 0)
(2.51631e-12 0 0)
(1.63378e-12 0 0)
(2.58779e-12 0 0)
(3.16982e-12 0 0)
(4.15738e-12 0 0)
(4.56291e-12 0 0)
(4.33097e-12 0 0)
(3.28944e-12 0 0)
(2.14287e-12 0 0)
(2.31355e-12 0 0)
(-1.18157e-12 0 0)
(-1.02111e-12 0 0)
(-6.36006e-13 0 0)
(5.0472e-13 0 0)
(1.58272e-12 0 0)
(-4.25949e-13 0 0)
(-3.41343e-13 0 0)
(4.30325e-13 0 0)
(1.54771e-12 0 0)
(8.41687e-13 0 0)
(1.14948e-12 0 0)
(-8.6065e-13 0 0)
(-5.83492e-14 0 0)
(-9.13165e-13 0 0)
(-7.93549e-13 0 0)
(1.82195e-12 0 0)
(1.51416e-12 0 0)
(2.53819e-12 0 0)
(1.19032e-12 0 0)
(1.31723e-12 0 0)
(1.86134e-12 0 0)
(2.156e-12 0 0)
(2.38648e-12 0 0)
(1.98241e-12 0 0)
(3.03416e-13 0 0)
(-1.76506e-13 0 0)
(-2.36168e-12 0 0)
(-1.56084e-12 0 0)
(-1.7636e-12 0 0)
(-1.73005e-12 0 0)
(-1.77527e-12 0 0)
(-3.0327e-12 0 0)
(-2.96851e-12 0 0)
(-2.93934e-12 0 0)
(-2.18809e-12 0 0)
(-2.01742e-12 0 0)
(-2.19539e-12 0 0)
(-2.85765e-12 0 0)
(-3.12752e-12 0 0)
(-2.64176e-12 0 0)
(-3.31132e-13 0 0)
(-1.27055e-12 0 0)
(1.37704e-12 0 0)
(2.92621e-12 0 0)
(9.89894e-12 0 0)
(2.2196e-11 0 0)
(4.73343e-11 0 0)
(9.70391e-11 0 0)
(1.9963e-10 0 0)
(4.06762e-10 0 0)
(8.2209e-10 0 0)
(1.65266e-09 0 0)
(3.29685e-09 0 0)
(6.53131e-09 0 0)
(1.28439e-08 0 0)
(2.5079e-08 0 0)
(4.86132e-08 0 0)
(9.3548e-08 0 0)
(1.78681e-07 0 0)
(3.38738e-07 0 0)
(6.37292e-07 0 0)
(1.18975e-06 0 0)
(2.20375e-06 0 0)
(4.04955e-06 0 0)
(7.38129e-06 0 0)
(1.33439e-05 0 0)
(2.39218e-05 0 0)
(4.25209e-05 0 0)
(7.49275e-05 0 0)
(0.00013087 0 0)
(0.000226528 0 0)
(0.000388516 0 0)
(0.00066011 0 0)
(0.00111085 0 0)
(0.0018511 0 0)
(0.00305378 0 0)
(0.00498621 0 0)
(0.00805577 0 0)
(0.0128742 0 0)
(0.0203454 0 0)
(0.0317829 0 0)
(0.0490597 0 0)
(0.0747945 0 0)
(0.112566 0 0)
(0.167142 0 0)
(0.244689 0 0)
(0.352905 0 0)
(0.500966 0 0)
(0.699153 0 0)
(0.957885 0 0)
(1.28571 0 0)
(1.68626 0 0)
(2.158 0 0)
(2.6981 0 0)
(3.30436 0 0)
(3.97426 0 0)
(4.70438 0 0)
(5.49067 0 0)
(6.32869 0 0)
(7.21384 0 0)
(8.14162 0 0)
(9.1077 0 0)
(10.108 0 0)
(11.139 0 0)
(12.1972 0 0)
(13.2798 0 0)
(14.384 0 0)
(15.5077 0 0)
(16.6487 0 0)
(17.8053 0 0)
(18.9759 0 0)
(20.1592 0 0)
(21.3539 0 0)
(22.559 0 0)
(23.7735 0 0)
(24.9967 0 0)
(26.2277 0 0)
(27.466 0 0)
(28.7109 0 0)
(29.962 0 0)
(31.2188 0 0)
(32.4809 0 0)
(33.7478 0 0)
(35.0193 0 0)
(36.2951 0 0)
(37.5749 0 0)
(38.8584 0 0)
(40.1455 0 0)
(41.4358 0 0)
(42.7293 0 0)
(44.0258 0 0)
(45.325 0 0)
(46.6268 0 0)
(47.9312 0 0)
(49.238 0 0)
(50.547 0 0)
(51.8582 0 0)
(53.1715 0 0)
(54.4867 0 0)
(55.8038 0 0)
(57.1227 0 0)
(58.4433 0 0)
(59.7656 0 0)
(61.0894 0 0)
(62.4148 0 0)
(63.7416 0 0)
(65.0698 0 0)
(66.3993 0 0)
(67.7302 0 0)
(69.0623 0 0)
(70.3955 0 0)
(71.7299 0 0)
(73.0654 0 0)
(74.402 0 0)
(75.7396 0 0)
(77.0782 0 0)
(78.4177 0 0)
(79.7581 0 0)
(81.0994 0 0)
(82.4416 0 0)
(83.7845 0 0)
(85.1283 0 0)
(86.4727 0 0)
(87.818 0 0)
(89.1639 0 0)
(90.5104 0 0)
(91.8577 0 0)
(93.2055 0 0)
(94.5539 0 0)
(95.9029 0 0)
(97.2525 0 0)
(98.6026 0 0)
(99.9532 0 0)
(101.304 0 0)
(102.656 0 0)
(104.008 0 0)
(105.36 0 0)
(106.713 0 0)
(108.066 0 0)
(109.42 0 0)
(110.774 0 0)
(112.128 0 0)
(113.482 0 0)
(114.837 0 0)
(116.192 0 0)
(117.548 0 0)
(118.904 0 0)
(120.26 0 0)
(121.616 0 0)
(122.972 0 0)
(124.329 0 0)
(125.686 0 0)
(127.043 0 0)
(128.4 0 0)
(129.757 0 0)
(131.114 0 0)
(132.472 0 0)
(133.83 0 0)
(135.187 0 0)
(136.545 0 0)
(137.903 0 0)
(139.261 0 0)
(140.619 0 0)
(141.977 0 0)
(143.336 0 0)
(144.694 0 0)
(146.052 0 0)
(147.41 0 0)
(148.768 0 0)
(150.127 0 0)
(151.485 0 0)
(152.843 0 0)
(154.201 0 0)
(155.559 0 0)
(156.917 0 0)
(158.275 0 0)
(159.633 0 0)
(160.99 0 0)
(162.348 0 0)
(163.706 0 0)
(165.063 0 0)
(166.42 0 0)
(167.777 0 0)
(169.134 0 0)
(170.491 0 0)
(171.848 0 0)
(173.203 0 0)
(174.558 0 0)
(175.915 0 0)
(177.273 0 0)
(178.629 0 0)
(179.981 0 0)
(181.333 0 0)
(182.69 0 0)
(184.051 0 0)
(185.407 0 0)
(186.753 0 0)
(188.1 0 0)
(189.46 0 0)
(190.829 0 0)
(192.186 0 0)
(193.523 0 0)
(194.866 0 0)
(196.24 0 0)
(197.632 0 0)
(198.996 0 0)
(200.314 0 0)
(201.652 0 0)
(203.069 0 0)
(204.531 0 0)
(205.933 0 0)
(207.211 0 0)
(208.527 0 0)
(210.013 0 0)
(211.573 0 0)
(213.04 0 0)
(214.26 0 0)
(215.491 0 0)
(216.965 0 0)
(218.508 0 0)
(219.963 0 0)
(221.134 0 0)
(222.262 0 0)
(223.653 0 0)
(225.129 0 0)
(226.581 0 0)
(227.816 0 0)
(228.924 0 0)
(230.26 0 0)
(231.727 0 0)
(233.155 0 0)
(234.419 0 0)
(235.494 0 0)
(236.726 0 0)
(238.196 0 0)
(239.656 0 0)
(241.05 0 0)
(242.245 0 0)
(243.336 0 0)
(244.65 0 0)
(246.115 0 0)
(247.579 0 0)
(248.961 0 0)
(250.113 0 0)
(251.239 0 0)
(252.584 0 0)
(254.058 0 0)
(255.424 0 0)
(256.622 0 0)
(257.962 0 0)
(259.458 0 0)
(260.885 0 0)
(262.08 0 0)
(263.014 0 0)
(264.094 0 0)
(265.482 0 0)
(266.896 0 0)
(268.183 0 0)
(269.175 0 0)
(269.998 0 0)
(271.143 0 0)
(272.649 0 0)
(274.198 0 0)
(275.613 0 0)
(276.862 0 0)
(277.796 0 0)
(278.46 0 0)
(279.301 0 0)
(280.41 0 0)
(281.499 0 0)
(282.354 0 0)
(283.168 0 0)
(284.08 0 0)
(284.923 0 0)
(285.593 0 0)
(286.093 0 0)
(286.682 0 0)
(287.391 0 0)
(287.979 0 0)
(288.415 0 0)
(288.784 0 0)
(289.027 0 0)
(289.202 0 0)
(289.492 0 0)
(289.861 0 0)
(290.236 0 0)
(290.61 0 0)
(290.994 0 0)
(291.327 0 0)
(291.529 0 0)
(291.726 0 0)
(292.003 0 0)
(292.256 0 0)
(292.411 0 0)
(292.538 0 0)
(292.701 0 0)
(292.87 0 0)
(293.035 0 0)
(293.17 0 0)
(293.26 0 0)
(293.364 0 0)
(293.494 0 0)
(293.576 0 0)
(293.613 0 0)
(293.68 0 0)
(293.781 0 0)
(293.889 0 0)
(293.954 0 0)
(293.984 0 0)
(294.037 0 0)
(294.116 0 0)
(294.177 0 0)
(294.199 0 0)
(294.219 0 0)
(294.265 0 0)
(294.325 0 0)
(294.368 0 0)
(294.387 0 0)
(294.403 0 0)
(294.42 0 0)
(294.439 0 0)
(294.464 0 0)
(294.484 0 0)
(294.486 0 0)
(294.483 0 0)
(294.489 0 0)
(294.494 0 0)
(294.481 0 0)
(294.464 0 0)
(294.462 0 0)
(294.464 0 0)
(294.456 0 0)
(294.441 0 0)
(294.428 0 0)
(294.419 0 0)
(294.405 0 0)
(294.388 0 0)
(294.373 0 0)
(294.356 0 0)
(294.334 0 0)
(294.319 0 0)
(294.307 0 0)
(294.289 0 0)
(294.265 0 0)
(294.241 0 0)
(294.223 0 0)
(294.206 0 0)
(294.184 0 0)
(294.164 0 0)
(294.151 0 0)
(294.136 0 0)
(294.115 0 0)
(294.093 0 0)
(294.08 0 0)
(294.07 0 0)
(294.053 0 0)
(294.032 0 0)
(294.016 0 0)
(294.009 0 0)
(294 0 0)
(293.985 0 0)
(293.966 0 0)
(293.954 0 0)
(293.948 0 0)
(293.939 0 0)
(293.922 0 0)
(293.909 0 0)
(293.906 0 0)
(293.903 0 0)
(293.891 0 0)
(293.875 0 0)
(293.867 0 0)
(293.866 0 0)
(293.863 0 0)
(293.854 0 0)
(293.842 0 0)
(293.836 0 0)
(293.835 0 0)
(293.834 0 0)
(293.827 0 0)
(293.817 0 0)
(293.811 0 0)
(293.807 0 0)
(293.804 0 0)
(293.8 0 0)
(293.795 0 0)
(293.791 0 0)
(293.787 0 0)
(293.783 0 0)
(293.779 0 0)
(293.776 0 0)
(293.773 0 0)
(293.769 0 0)
(293.765 0 0)
(293.762 0 0)
(293.759 0 0)
(293.755 0 0)
(293.751 0 0)
(293.749 0 0)
(293.746 0 0)
(293.742 0 0)
(293.738 0 0)
(293.735 0 0)
(293.732 0 0)
(293.728 0 0)
(293.724 0 0)
(293.721 0 0)
(293.718 0 0)
(293.714 0 0)
(293.709 0 0)
(293.706 0 0)
(293.704 0 0)
(293.7 0 0)
(293.695 0 0)
(293.691 0 0)
(293.689 0 0)
(293.685 0 0)
(293.679 0 0)
(293.675 0 0)
(293.673 0 0)
(293.67 0 0)
(293.665 0 0)
(293.66 0 0)
(293.656 0 0)
(293.653 0 0)
(293.649 0 0)
(293.644 0 0)
(293.64 0 0)
(293.636 0 0)
(293.632 0 0)
(293.627 0 0)
(293.623 0 0)
(293.619 0 0)
(293.615 0 0)
(293.61 0 0)
(293.606 0 0)
(293.603 0 0)
(293.6 0 0)
(293.596 0 0)
(293.592 0 0)
(293.591 0 0)
(293.59 0 0)
(293.588 0 0)
(293.587 0 0)
(293.588 0 0)
(293.592 0 0)
(293.6 0 0)
(293.609 0 0)
(293.62 0 0)
(293.637 0 0)
(293.66 0 0)
(293.687 0 0)
(293.718 0 0)
(293.753 0 0)
(293.791 0 0)
(293.831 0 0)
(293.865 0 0)
(293.888 0 0)
(293.893 0 0)
(293.879 0 0)
(293.84 0 0)
(293.768 0 0)
(293.662 0 0)
(293.534 0 0)
(293.392 0 0)
(293.266 0 0)
(293.198 0 0)
(293.207 0 0)
(293.265 0 0)
(293.326 0 0)
(293.372 0 0)
(293.406 0 0)
(293.439 0 0)
(293.462 0 0)
(293.457 0 0)
(293.443 0 0)
(293.448 0 0)
(293.463 0 0)
(293.46 0 0)
(293.439 0 0)
(293.428 0 0)
(293.443 0 0)
(293.459 0 0)
(293.451 0 0)
(293.425 0 0)
(293.408 0 0)
(293.418 0 0)
(293.437 0 0)
(293.439 0 0)
(293.42 0 0)
(293.4 0 0)
(293.402 0 0)
(293.419 0 0)
(293.429 0 0)
(293.416 0 0)
(293.399 0 0)
(293.402 0 0)
(293.419 0 0)
(293.424 0 0)
(293.407 0 0)
(293.395 0 0)
(293.406 0 0)
(293.423 0 0)
(293.42 0 0)
(293.398 0 0)
(293.389 0 0)
(293.406 0 0)
(293.423 0 0)
(293.416 0 0)
(293.393 0 0)
(293.384 0 0)
(293.401 0 0)
(293.42 0 0)
(293.413 0 0)
(293.391 0 0)
(293.383 0 0)
(293.398 0 0)
(293.414 0 0)
(293.409 0 0)
(293.39 0 0)
(293.382 0 0)
(293.396 0 0)
(293.411 0 0)
(293.404 0 0)
(293.385 0 0)
(293.381 0 0)
(293.395 0 0)
(293.408 0 0)
(293.4 0 0)
(293.382 0 0)
(293.379 0 0)
(293.393 0 0)
(293.404 0 0)
(293.397 0 0)
(293.38 0 0)
(293.376 0 0)
(293.389 0 0)
(293.4 0 0)
(293.394 0 0)
(293.379 0 0)
(293.373 0 0)
(293.384 0 0)
(293.395 0 0)
(293.391 0 0)
(293.376 0 0)
(293.371 0 0)
(293.381 0 0)
(293.39 0 0)
(293.386 0 0)
(293.373 0 0)
(293.366 0 0)
(293.374 0 0)
(293.384 0 0)
(293.378 0 0)
(293.363 0 0)
(293.358 0 0)
(293.364 0 0)
(293.37 0 0)
(293.363 0 0)
(293.35 0 0)
(293.341 0 0)
(293.344 0 0)
(293.349 0 0)
(293.34 0 0)
(293.324 0 0)
(293.315 0 0)
(293.314 0 0)
(293.313 0 0)
(293.302 0 0)
(293.284 0 0)
(293.269 0 0)
(293.262 0 0)
(293.257 0 0)
(293.239 0 0)
(293.215 0 0)
(293.196 0 0)
(293.181 0 0)
(293.164 0 0)
(293.139 0 0)
(293.105 0 0)
(293.071 0 0)
(293.042 0 0)
(293.016 0 0)
(292.976 0 0)
(292.92 0 0)
(292.867 0 0)
(292.82 0 0)
(292.775 0 0)
(292.72 0 0)
(292.636 0 0)
(292.545 0 0)
(292.468 0 0)
(292.398 0 0)
(292.318 0 0)
(292.19 0 0)
(292.038 0 0)
(291.907 0 0)
(291.79 0 0)
(291.666 0 0)
(291.473 0 0)
(291.216 0 0)
(290.978 0 0)
(290.767 0 0)
(290.552 0 0)
(290.246 0 0)
(289.783 0 0)
(289.27 0 0)
(288.759 0 0)
(288.172 0 0)
(287.418 0 0)
(286.227 0 0)
(284.484 0 0)
(282.331 0 0)
(279.572 0 0)
(275.572 0 0)
(269.295 0 0)
(259.017 0 0)
(241.075 0 0)
(202.369 0 0)
(117.137 0 0)
(28.3217 0 0)
(4.37949 0 0)
(0.658292 0 0)
(0.0970662 0 0)
(0.014236 0 0)
(0.00208803 0 0)
(0.000306135 0 0)
(4.48773e-05 0 0)
(6.57854e-06 0 0)
(9.64381e-07 0 0)
(1.41373e-07 0 0)
(2.07229e-08 0 0)
(3.03583e-09 0 0)
(4.41632e-10 0 0)
(6.28247e-11 0 0)
(6.37612e-12 0 0)
(-2.97581e-13 0 0)
(-2.60529e-12 0 0)
(-3.95316e-13 0 0)
(-6.56429e-13 0 0)
(2.77159e-14 0 0)
(-9.61304e-13 0 0)
(-2.11808e-12 0 0)
(-2.81098e-12 0 0)
(-7.17696e-13 0 0)
(4.595e-13 0 0)
(1.28806e-12 0 0)
(9.00037e-13 0 0)
(1.22825e-12 0 0)
(3.45719e-12 0 0)
(9.7735e-13 0 0)
(3.73873e-12 0 0)
(3.82188e-12 0 0)
(5.98955e-12 0 0)
(4.38057e-12 0 0)
(5.19017e-12 0 0)
(4.20115e-12 0 0)
(5.11869e-12 0 0)
(5.07493e-12 0 0)
(4.65919e-12 0 0)
(4.57458e-12 0 0)
(3.70664e-12 0 0)
(5.26019e-12 0 0)
(4.52936e-12 0 0)
(1.64253e-12 0 0)
(2.47109e-12 0 0)
(2.53236e-12 0 0)
(2.00721e-12 0 0)
(2.42441e-12 0 0)
(2.89266e-12 0 0)
(1.73443e-12 0 0)
(1.53021e-12 0 0)
(1.19762e-12 0 0)
(1.67025e-12 0 0)
(-2.36315e-13 0 0)
(-1.60898e-12 0 0)
(-1.93282e-12 0 0)
(5.03262e-13 0 0)
(1.23409e-12 0 0)
(1.92261e-12 0 0)
(2.39524e-12 0 0)
(8.1689e-13 0 0)
(6.28713e-13 0 0)
(1.92553e-12 0 0)
(3.87293e-12 0 0)
(4.34848e-12 0 0)
(2.65052e-12 0 0)
(3.29236e-12 0 0)
(3.36967e-13 0 0)
(2.29021e-12 0 0)
(-6.97274e-13 0 0)
(8.13972e-13 0 0)
(-8.1689e-14 0 0)
(1.26472e-12 0 0)
(2.95539e-12 0 0)
(-7.55623e-13 0 0)
(6.68099e-13 0 0)
(2.45359e-12 0 0)
(2.31501e-12 0 0)
(3.12023e-12 0 0)
(5.14932e-12 0 0)
(2.5557e-12 0 0)
(6.06832e-13 0 0)
(2.75992e-12 0 0)
(1.20783e-12 0 0)
(3.32299e-12 0 0)
(2.87662e-12 0 0)
(2.03201e-12 0 0)
(2.04952e-12 0 0)
(2.52944e-12 0 0)
(3.76936e-12 0 0)
(4.0509e-12 0 0)
(2.58341e-12 0 0)
(2.02034e-12 0 0)
(8.13972e-13 0 0)
(1.28077e-12 0 0)
(1.89781e-12 0 0)
(6.50594e-13 0 0)
(2.4565e-12 0 0)
(2.31209e-12 0 0)
(2.91309e-12 0 0)
(5.21497e-12 0 0)
(4.29888e-12 0 0)
(5.50379e-12 0 0)
(3.30111e-12 0 0)
(5.08076e-12 0 0)
(5.35792e-12 0 0)
(5.9983e-12 0 0)
(6.27984e-12 0 0)
(6.37028e-12 0 0)
(7.15654e-12 0 0)
(5.39439e-12 0 0)
(5.76199e-12 0 0)
(6.50157e-12 0 0)
(6.68099e-12 0 0)
(6.22441e-12 0 0)
(6.30318e-12 0 0)
(5.60591e-12 0 0)
(4.56729e-12 0 0)
(6.3484e-12 0 0)
(5.80575e-12 0 0)
(6.66495e-12 0 0)
(6.45051e-12 0 0)
(6.67953e-12 0 0)
(5.41627e-12 0 0)
(5.13182e-12 0 0)
(5.27769e-12 0 0)
(6.26525e-12 0 0)
(7.73274e-12 0 0)
(8.21266e-12 0 0)
(1.03118e-11 0 0)
(9.37527e-12 0 0)
(9.2046e-12 0 0)
(8.41396e-12 0 0)
(7.62333e-12 0 0)
(7.18571e-12 0 0)
(6.51178e-12 0 0)
(6.99462e-12 0 0)
(6.239e-12 0 0)
(6.34111e-12 0 0)
(6.38779e-12 0 0)
(6.36007e-12 0 0)
(7.51684e-12 0 0)
(6.80936e-12 0 0)
(8.18203e-12 0 0)
(8.29727e-12 0 0)
(8.30748e-12 0 0)
(7.03255e-12 0 0)
(5.6307e-12 0 0)
(4.77443e-12 0 0)
(4.89988e-12 0 0)
(6.58617e-12 0 0)
(6.80352e-12 0 0)
(7.19446e-12 0 0)
(5.97788e-12 0 0)
(7.8859e-12 0 0)
(6.65036e-12 0 0)
(7.75024e-12 0 0)
(7.05589e-12 0 0)
(6.24629e-12 0 0)
(6.34548e-12 0 0)
(5.90932e-12 0 0)
(5.06763e-12 0 0)
(5.56798e-12 0 0)
(5.59715e-12 0 0)
)
;

boundaryField
{
    sides
    {
        type            zeroGradient;
    }
    empty
    {
        type            empty;
    }
}


// ************************************************************************* //
