/*--------------------------------*- C++ -*----------------------------------*\
  =========                 |
  \\      /  F ield         | OpenFOAM: The Open Source CFD Toolbox
   \\    /   O peration     | Website:  https://openfoam.org
    \\  /    A nd           | Version:  13
     \\/     M anipulation  |
\*---------------------------------------------------------------------------*/
FoamFile
{
    format      ascii;
    class       volScalarField;
    location    "5.5";
    object      Ma;
}
// * * * * * * * * * * * * * * * * * * * * * * * * * * * * * * * * * * * * * //

dimensions      [];

internalField   nonuniform List<scalar> 
5250
(
3
2.99997
2.99991
2.99975
2.99942
2.99844
2.99633
2.99063
2.9773
2.94341
2.85986
2.65075
2.17067
1.2835
0.5305
0.267583
0.322977
0.338018
0.304402
0.24919
0.198208
0.157419
0.117023
0.0725676
0.0397249
3
2.99997
2.99991
2.99976
2.9994
2.9985
2.99635
2.99074
2.97791
2.94374
2.86286
2.65543
2.18265
1.30072
0.539491
0.268443
0.325179
0.341038
0.307668
0.253291
0.203528
0.164066
0.125746
0.0862208
0.0622882
3
2.99997
2.99991
2.99978
2.99939
2.99863
2.99624
2.99161
2.97751
2.94753
2.86523
2.66888
2.20676
1.33986
0.560564
0.273049
0.332113
0.349881
0.317408
0.265108
0.218024
0.181621
0.147822
0.116089
0.0996496
3
2.99997
2.99992
2.99977
2.99947
2.99859
2.99669
2.99156
2.9795
2.94905
2.87374
2.6852
2.24506
1.40184
0.593174
0.282109
0.344019
0.364652
0.333602
0.284145
0.240287
0.207581
0.178614
0.153179
0.140688
3
2.99998
2.99993
2.99979
2.99952
2.99867
2.99697
2.99204
2.98117
2.95225
2.88324
2.70728
2.2954
1.48674
0.637337
0.298739
0.362172
0.385754
0.356269
0.309886
0.269119
0.239904
0.215295
0.194569
0.184569
3
2.99998
2.99993
2.99983
2.99951
2.99889
2.99701
2.99312
2.98213
2.95742
2.89237
2.73454
2.35508
1.5942
0.694596
0.328426
0.389549
0.414632
0.386545
0.343077
0.304979
0.278883
0.258193
0.241699
0.234273
3
2.99998
2.99994
2.99984
2.99957
2.99894
2.99741
2.99349
2.98438
2.96053
2.90418
2.75966
2.41698
1.70931
0.759271
0.365761
0.422745
0.447361
0.421625
0.382284
0.347393
0.324665
0.308136
0.296453
0.293424
3
2.99999
2.99994
2.99986
2.99959
2.99911
2.99748
2.99448
2.98502
2.96549
2.91101
2.78316
2.46524
1.79933
0.826286
0.401745
0.449519
0.471263
0.453223
0.422107
0.393489
0.376123
0.365745
0.361399
0.368152
3
2.99999
2.99995
2.99986
2.99967
2.99909
2.99796
2.99444
2.98751
2.96688
2.92188
2.80099
2.51406
1.89054
0.919729
0.460779
0.470356
0.485297
0.481218
0.460776
0.441292
0.432111
0.430771
0.440265
0.469619
3
2.99999
2.99996
2.99987
2.99971
2.99919
2.99814
2.99514
2.98849
2.97094
2.92913
2.82267
2.56222
1.9884
1.03791
0.531629
0.485506
0.501111
0.507912
0.49814
0.489862
0.490551
0.504834
0.543439
0.642656
3
2.99999
2.99997
2.99989
2.99974
2.9993
2.99835
2.99578
2.98976
2.97462
2.93736
2.84439
2.61351
2.09414
1.18203
0.614952
0.502708
0.519941
0.534689
0.534925
0.537101
0.55064
0.587141
0.667389
0.830745
3
2.99999
2.99997
2.99991
2.99978
2.99939
2.99861
2.9963
2.9914
2.97788
2.94688
2.86611
2.66909
2.21096
1.35925
0.713018
0.526959
0.54409
0.563382
0.571746
0.582957
0.609554
0.664166
0.766803
0.938824
3
3
2.99997
2.99993
2.9998
2.99954
2.99875
2.9971
2.99254
2.98211
2.95528
2.89005
2.72599
2.3391
1.57444
0.82837
0.568906
0.581263
0.598685
0.611814
0.628976
0.664142
0.727546
0.829438
0.976519
3.00001
3
2.99998
2.99995
2.99984
2.99963
2.99898
2.99769
2.99393
2.98574
2.96393
2.9126
2.78207
2.47174
1.82372
0.960104
0.631756
0.630589
0.6428
0.657757
0.676814
0.713388
0.77577
0.869228
0.991913
3.00001
3
2.99999
2.99995
2.99988
2.99967
2.99923
2.99796
2.99538
2.98767
2.97172
2.92702
2.82355
2.56209
1.99822
1.09883
0.698212
0.670056
0.683883
0.700724
0.721685
0.757827
0.814624
0.897155
1.00357
3.00001
3
2.99999
2.99997
2.9999
2.99976
2.99934
2.99845
2.99606
2.99047
2.97647
2.94195
2.85656
2.64426
2.16385
1.3084
0.801671
0.700845
0.713467
0.73341
0.759675
0.796274
0.848482
0.920169
1.01287
3.00001
3
3
2.99997
2.99993
2.99979
2.99952
2.99871
2.99704
2.99233
2.98177
2.95421
2.88803
2.72103
2.33057
1.56814
0.931211
0.740794
0.74388
0.7634
0.792686
0.829337
0.878151
0.941283
1.02134
3.00001
3
3
2.99998
2.99994
2.99986
2.9996
2.99912
2.99756
2.99464
2.98559
2.96702
2.91545
2.796
2.50209
1.88905
1.09171
0.805911
0.78687
0.80102
0.82779
0.862376
0.906489
0.962179
1.03097
3.00001
3.00001
3
2.99999
2.99996
2.99989
2.9997
2.99933
2.99814
2.99594
2.98892
2.97503
2.93506
2.84452
2.6134
2.10782
1.27031
0.878812
0.82379
0.836228
0.860476
0.893978
0.933749
0.983079
1.04258
3.00001
3.00001
3
2.99999
2.99997
2.99991
2.9998
2.99943
2.99876
2.9966
2.99238
2.97995
2.95301
2.88087
2.70901
2.30409
1.53781
1.00364
0.865782
0.868397
0.888793
0.921059
0.958785
1.00306
1.05551
3.00001
3.00001
3
3
2.99998
2.99994
2.99985
2.9996
2.9991
2.99754
2.99459
2.98538
2.96687
2.91458
2.79498
2.50042
1.88836
1.17028
0.928965
0.90739
0.920585
0.948507
0.984281
1.02371
1.0698
3.00001
3.00001
3.00001
3
2.99999
2.99996
2.99989
2.99972
2.99933
2.99826
2.99604
2.98954
2.97617
2.93842
2.8534
2.63616
2.15992
1.37475
1.00872
0.944955
0.953518
0.976458
1.00894
1.04474
1.08528
3.00001
3.00001
3.00001
3
2.99999
2.99998
2.99992
2.99981
2.99951
2.99882
2.99707
2.9928
2.98263
2.95672
2.89521
2.73988
2.38054
1.67525
1.14097
0.993598
0.987405
1.00176
1.03005
1.06483
1.10203
3.00001
3.00001
3.00001
3
3
2.99999
2.99995
2.99988
2.99965
2.99923
2.99792
2.99529
2.98783
2.97142
2.92865
2.82726
2.58098
2.04822
1.33163
1.06674
1.02616
1.03287
1.05453
1.08566
1.12003
3.00001
3.00001
3.00001
3.00001
3
2.99999
2.99997
2.99991
2.99977
2.99945
2.99859
2.99676
2.99152
2.9807
2.95011
2.88219
2.70641
2.31209
1.59124
1.17098
1.06827
1.06419
1.07786
1.10505
1.13829
3.00001
3.00001
3.00001
3.00001
3
3
2.99998
2.99994
2.99986
2.99962
2.99911
2.99776
2.99458
2.98692
2.96752
2.92239
2.80791
2.54142
1.97239
1.3406
1.12871
1.09924
1.10595
1.12744
1.15675
3.00001
3.00001
3.00001
3.00001
3.00001
3
2.99999
2.99997
2.9999
2.99977
2.99937
2.9986
2.99621
2.99166
2.97793
2.94931
2.87174
2.69279
2.27793
1.57767
1.21886
1.13872
1.13537
1.14869
1.17412
3.00001
3.00001
3.00001
3.00001
3.00001
3
3
2.99998
2.99994
2.99985
2.99959
2.9991
2.99756
2.99454
2.98584
2.96707
2.91754
2.80171
2.52302
1.94584
1.37707
1.19357
1.16765
1.17421
1.19402
3.00001
3.00001
3.00001
3.00001
3.00001
3.00001
3
2.99999
2.99996
2.99991
2.99974
2.9994
2.99849
2.99637
2.99122
2.97834
2.94835
2.87256
2.69333
2.28241
1.61416
1.28432
1.20864
1.20326
1.21365
3.00001
3.00001
3.00001
3.00001
3.00001
3.00001
3
3
2.99998
2.99994
2.99984
2.99963
2.99901
2.99784
2.99418
2.98715
2.96652
2.92239
2.80667
2.54315
1.98755
1.44309
1.26339
1.23473
1.23772
3.00001
3.00001
3.00001
3.00001
3.00001
3.00001
3.00001
3
2.99999
2.99996
2.99991
2.99976
2.99943
2.99857
2.99655
2.99173
2.97952
2.95161
2.8801
2.71354
2.32652
1.68923
1.35844
1.27552
1.26587
3.00001
3.00001
3.00001
3.00001
3.00001
3.00001
3.00001
3
3
2.99998
2.99994
2.99987
2.99963
2.99918
2.99784
2.99512
2.98761
2.97101
2.92864
2.82907
2.59136
2.0869
1.53065
1.33299
1.29834
3.00001
3.00001
3.00001
3.00001
3.00001
3.00001
3.00001
3.00001
3
2.99999
2.99997
2.99992
2.99979
2.99949
2.9987
2.99703
2.9923
2.98268
2.95543
2.89663
2.74442
2.40434
1.795
1.43237
1.33635
3.00001
3.00001
3.00001
3.00001
3.00001
3.00001
3.00001
3.00001
3
3
2.99999
2.99995
2.99988
2.99969
2.99926
2.99816
2.99572
2.98919
2.97525
2.93768
2.85402
2.64719
2.19966
1.62791
1.4034
3.00001
3.00001
3.00001
3.00001
3.00001
3.00001
3.00001
3.00001
3.00001
3
2.99999
2.99998
2.99993
2.99982
2.99957
2.99888
2.99752
2.99341
2.9855
2.96239
2.91346
2.78576
2.49875
1.94015
1.52367
3.00001
3.00001
3.00001
3.00001
3.00001
3.00001
3.00001
3.00001
3.00001
3
3
2.99999
2.99996
2.9999
2.99974
2.99938
2.99846
2.99646
2.99097
2.97954
2.94814
2.87934
2.70641
2.3226
1.7524
3.00001
3.00001
3.00001
3.00001
3.00001
3.00001
3.00001
3.00001
3.00001
3.00001
3
3
2.99998
2.99995
2.99986
2.99964
2.99915
2.99789
2.99518
2.9877
2.97222
2.92998
2.83724
2.60898
2.14012
3.00001
3.00001
3.00001
3.00001
3.00001
3.00001
3.00001
3.00001
3.00001
3.00001
3.00001
3
2.99999
2.99997
2.99992
2.99981
2.99949
2.99888
2.99705
2.99337
2.98333
2.96102
2.90508
2.77384
2.46853
3.00001
3.00001
3.00001
3.00001
3.00001
3.00001
3.00001
3.00001
3.00001
3.00001
3.00001
3
3
2.99999
2.99996
2.99989
2.99974
2.99933
2.99844
2.99618
2.9909
2.97831
2.94748
2.87543
2.7024
3.00001
3.00001
3.00001
3.00001
3.00001
3.00001
3.00001
3.00001
3.00001
3.00001
3.00001
3.00001
3
3
2.99998
2.99994
2.99985
2.99964
2.99913
2.99787
2.99511
2.98766
2.97214
2.93012
2.83863
3.00001
3.00001
3.00001
3.00001
3.00001
3.00001
3.00001
3.00001
3.00001
3.00001
3.00001
3.00001
3.00001
3
2.99999
2.99997
2.99992
2.99981
2.99949
2.99887
2.99704
2.99359
2.98312
2.96265
2.90581
3.00001
3.00001
3.00001
3.00001
3.00001
3.00001
3.00001
3.00001
3.00001
3.00001
3.00001
3.00001
3.00001
3
3
2.99999
2.99996
2.99989
2.99972
2.99934
2.99832
2.99624
2.9903
2.97848
2.94535
3.00001
3.00001
3.00001
3.00001
3.00001
3.00001
3.00001
3.00001
3.00001
3.00001
3.00001
3.00001
3.00001
3.00001
3
2.99999
2.99998
2.99993
2.99983
2.99956
2.99894
2.99744
2.99376
2.98539
2.96355
3.00001
3.00001
3.00001
3.00001
3.00001
3.00001
3.00001
3.00001
3.00001
3.00001
3.00001
3.00001
3.00001
3.00001
3
3
2.99998
2.99995
2.99986
2.99966
2.99914
2.99797
2.99479
2.98803
2.96897
3.00001
3.00001
3.00001
3.00001
3.00001
3.00001
3.00001
3.00001
3.00001
3.00001
3.00001
3.00001
3.00001
3.00001
3
3
2.99999
2.99996
2.99988
2.9997
2.99922
2.99819
2.99519
2.98905
2.97109
3.00001
3.00001
3.00001
3.00001
3.00001
3.00001
3.00001
3.00001
3.00001
3.00001
3.00001
3.00001
3.00001
3.00001
3
3
2.99999
2.99996
2.99988
2.99973
2.99923
2.9983
2.99535
2.98935
2.97218
3.00001
3.00001
3.00001
3.00001
3.00001
3.00001
3.00001
3.00001
3.00001
3.00001
3.00001
3.00001
3.00001
3.00001
3
3
2.99999
2.99996
2.99989
2.99971
2.9993
2.99816
2.99577
2.98867
2.97383
3.00001
3.00001
3.00001
3.00001
3.00001
3.00001
3.00001
3.00001
3.00001
3.00001
3.00001
3.00001
3.00001
3.00001
3.00001
3
2.99999
2.99996
2.9999
2.9997
2.99934
2.99814
2.99583
2.98881
2.97383
3.00001
3.00001
3.00001
3.00001
3.00001
3.00001
3.00001
3.00001
3.00001
3.00001
3.00001
3.00001
3.00001
3.00001
3.00001
3
2.99999
2.99996
2.9999
2.99971
2.99931
2.99822
2.99566
2.98924
2.97317
3.00001
3.00001
3.00001
3.00001
3.00001
3.00001
3.00001
3.00001
3.00001
3.00001
3.00001
3.00001
3.00001
3.00001
3.00001
3
2.99999
2.99996
2.99989
2.99973
2.99926
2.99835
2.99541
2.98974
2.97249
1.0686
1.08206
0.656024
0.252647
0.208943
0.263186
0.388562
0.449353
0.472099
0.480326
0.491651
0.511159
0.533819
0.553681
0.570741
0.58716
0.604275
0.622017
0.639508
0.656241
0.672737
0.689653
0.704209
0.713505
0.718625
0.720665
0.715163
0.69723
0.665321
0.62255
0.572539
0.518948
0.463963
0.409149
0.356013
0.305554
0.257922
0.213101
0.169364
0.128237
0.0891764
0.0529114
0.0253766
0.0341012
0.0629266
0.0943869
0.124386
0.153154
0.180028
0.205508
0.232073
0.258737
0.284327
0.308439
0.331952
0.354364
0.376312
0.39732
0.41768
0.43726
0.456046
0.474082
0.491273
0.507612
0.523078
0.537603
0.551171
0.563755
0.575322
0.585866
0.595406
0.604193
0.612557
0.620482
0.627825
0.634656
0.641415
0.648411
0.655568
0.662756
0.670266
0.678337
0.687359
0.696889
0.707346
0.717965
0.729296
0.740764
0.752635
0.764464
0.776611
0.788631
0.800691
0.812381
0.823852
0.834553
0.844403
0.852706
0.859027
0.863708
1.06889
1.04927
0.854148
0.597195
0.434911
0.355973
0.259714
0.146057
0.0451967
0.120628
0.202506
0.272113
0.321559
0.352162
0.371681
0.388878
0.407209
0.426868
0.447
0.466119
0.484138
0.50244
0.519439
0.530566
0.535657
0.536998
0.530204
0.508484
0.472752
0.42586
0.373315
0.318442
0.26409
0.210852
0.161546
0.116673
0.0783145
0.0547743
0.0567239
0.0800438
0.110382
0.140851
0.170411
0.198286
0.226452
0.254189
0.281428
0.307583
0.332515
0.355877
0.379701
0.403878
0.427305
0.449417
0.470732
0.491381
0.511363
0.530742
0.549421
0.567442
0.584791
0.601413
0.617317
0.632461
0.646803
0.660319
0.672982
0.684751
0.695632
0.705603
0.714656
0.723026
0.731056
0.738674
0.745795
0.752478
0.759136
0.765937
0.772907
0.779784
0.787085
0.79477
0.80332
0.812339
0.822018
0.832039
0.842527
0.853205
0.864237
0.87535
0.886601
0.897814
0.909021
0.919997
0.930635
0.940677
0.949867
0.9578
0.963732
0.968044
1.07374
1.10013
1.04373
0.919261
0.808189
0.729773
0.647356
0.552379
0.452196
0.358364
0.273135
0.194854
0.122169
0.0613868
0.0569414
0.106325
0.153152
0.191216
0.222573
0.249565
0.27308
0.293409
0.311302
0.323235
0.326492
0.324569
0.31457
0.292326
0.254138
0.209198
0.163453
0.123605
0.0989719
0.0951892
0.111552
0.13823
0.168508
0.198923
0.22769
0.256404
0.284861
0.312257
0.338595
0.363738
0.388408
0.412556
0.436238
0.459231
0.481163
0.501809
0.522256
0.543391
0.564168
0.583875
0.602736
0.621012
0.638793
0.656007
0.672699
0.688799
0.704322
0.719229
0.733516
0.747119
0.760047
0.772227
0.783666
0.794316
0.804206
0.813283
0.821585
0.829223
0.836616
0.843633
0.850307
0.856589
0.862965
0.869308
0.875863
0.882271
0.88919
0.896419
0.904391
0.912638
0.921534
0.930662
0.940342
0.95012
0.960327
0.97053
0.981019
0.991342
1.00179
1.01192
1.02192
1.03124
1.03999
1.04741
1.05306
1.05694
1.08969
1.14564
1.14945
1.10286
1.03553
0.974079
0.911583
0.838061
0.761584
0.683282
0.608941
0.537633
0.468987
0.401624
0.335447
0.274446
0.217631
0.165997
0.120275
0.0814732
0.0534779
0.0448982
0.0562228
0.0782101
0.0914073
0.0923166
0.0793718
0.0658841
0.0797379
0.114111
0.154286
0.194256
0.233331
0.267975
0.299945
0.330142
0.358675
0.385357
0.41047
0.434626
0.458219
0.481019
0.50301
0.524237
0.544893
0.565223
0.585077
0.604605
0.623282
0.640881
0.65804
0.675756
0.693781
0.710907
0.727337
0.74315
0.758603
0.773569
0.788173
0.802236
0.815891
0.828946
0.841546
0.853481
0.864903
0.875589
0.88572
0.895106
0.903948
0.912018
0.919537
0.926339
0.933012
0.939274
0.94547
0.951244
0.957224
0.963015
0.969038
0.974958
0.981427
0.988091
0.995322
1.00274
1.01075
1.01899
1.02775
1.03669
1.04601
1.05542
1.06505
1.07469
1.08438
1.0939
1.10326
1.11224
1.12049
1.12771
1.1331
1.1369
1.09872
1.16926
1.20315
1.20059
1.16985
1.13085
1.09003
1.04049
0.98403
0.92511
0.86714
0.80963
0.749158
0.68723
0.626864
0.570641
0.517494
0.466949
0.417998
0.371779
0.328836
0.288825
0.252462
0.219811
0.194957
0.187187
0.193838
0.224632
0.270103
0.318529
0.365847
0.407838
0.443471
0.47396
0.500406
0.524236
0.546077
0.566542
0.585833
0.604504
0.622651
0.640425
0.657689
0.674522
0.691006
0.707224
0.723236
0.73904
0.754425
0.768896
0.782896
0.797102
0.812054
0.82661
0.840658
0.854003
0.867159
0.879817
0.89235
0.904333
0.916141
0.927307
0.938253
0.948475
0.958417
0.967557
0.976421
0.984501
0.992289
0.999314
1.00606
1.01212
1.01811
1.02372
1.02946
1.03489
1.04048
1.04591
1.0516
1.05728
1.06324
1.06932
1.07577
1.08245
1.0895
1.09687
1.10458
1.1126
1.12091
1.12945
1.13814
1.14696
1.15582
1.16468
1.17339
1.18169
1.18941
1.19616
1.20135
1.20477
1.10309
1.17733
1.22758
1.24904
1.2474
1.23133
1.2087
1.1799
1.14275
1.1009
1.05753
1.01331
0.96667
0.91785
0.866968
0.81616
0.767583
0.720323
0.675051
0.631309
0.589091
0.548871
0.51145
0.477551
0.451762
0.436708
0.433657
0.452287
0.489115
0.533329
0.576853
0.615738
0.646809
0.670473
0.688986
0.704601
0.718757
0.732216
0.745274
0.758042
0.77072
0.78324
0.795757
0.808122
0.82054
0.832811
0.845206
0.857463
0.869756
0.881355
0.892533
0.903615
0.915606
0.927748
0.939654
0.95087
0.961949
0.972537
0.983109
0.993175
1.00319
1.0126
1.0219
1.03052
1.03897
1.04671
1.05431
1.06118
1.06796
1.07404
1.08011
1.08553
1.09105
1.09614
1.10155
1.10666
1.11208
1.11728
1.12278
1.12815
1.13387
1.13948
1.1455
1.15153
1.15803
1.16459
1.17167
1.17883
1.18648
1.19416
1.20226
1.21034
1.21875
1.22696
1.23518
1.24295
1.25035
1.25679
1.26191
1.26513
1.1047
1.17831
1.23631
1.27321
1.29068
1.29307
1.28668
1.2728
1.25263
1.22605
1.19589
1.1639
1.12909
1.09235
1.05331
1.01218
0.970815
0.92974
0.889056
0.848775
0.808881
0.768942
0.730324
0.694833
0.664042
0.637161
0.624469
0.637455
0.672609
0.716303
0.759571
0.797416
0.827626
0.847706
0.859069
0.865947
0.871624
0.877513
0.884133
0.891282
0.898891
0.906773
0.914959
0.923316
0.931943
0.940695
0.949749
0.958875
0.968329
0.97745
0.986232
0.99473
1.00395
1.01374
1.02375
1.03322
1.04258
1.05147
1.0604
1.06886
1.07734
1.08528
1.09318
1.10042
1.10761
1.11413
1.12061
1.12645
1.13233
1.13763
1.14309
1.14803
1.15324
1.15804
1.16332
1.16826
1.17372
1.1788
1.18432
1.18954
1.19511
1.20045
1.20614
1.2117
1.21763
1.22353
1.22984
1.23621
1.243
1.24988
1.25714
1.26455
1.27222
1.27978
1.28742
1.29471
1.30177
1.30796
1.31301
1.3161
1.10609
1.17656
1.23682
1.28291
1.31297
1.32989
1.33522
1.33393
1.32581
1.31214
1.29387
1.27245
1.24862
1.22174
1.19318
1.16225
1.12936
1.09606
1.06169
1.02593
0.988857
0.949821
0.911877
0.873151
0.833044
0.790999
0.769891
0.781128
0.815771
0.860272
0.906134
0.945288
0.976345
0.998645
1.00834
1.00918
1.00649
1.00427
1.00385
1.00521
1.00796
1.01168
1.01617
1.0212
1.02674
1.03259
1.03888
1.04539
1.05232
1.05927
1.06616
1.07261
1.07948
1.08689
1.09506
1.10294
1.11077
1.11812
1.12549
1.1324
1.13939
1.14583
1.15233
1.1582
1.16415
1.16947
1.17494
1.17981
1.18495
1.18957
1.19459
1.19918
1.20427
1.20901
1.21432
1.2193
1.22478
1.23
1.23559
1.24089
1.24649
1.25179
1.25738
1.26271
1.26837
1.27382
1.2797
1.28546
1.29169
1.29789
1.30461
1.31131
1.31839
1.32537
1.33254
1.33941
1.34617
1.35216
1.35718
1.36022
1.10897
1.17509
1.23425
1.28445
1.32191
1.34865
1.36471
1.37261
1.37398
1.37017
1.36172
1.34922
1.33443
1.31666
1.29623
1.27449
1.24986
1.22345
1.19563
1.16393
1.13056
1.09422
1.05684
1.01215
0.956991
0.900853
0.876925
0.888961
0.923494
0.968329
1.01699
1.05977
1.09181
1.11593
1.13006
1.13339
1.12767
1.1186
1.11073
1.10514
1.10216
1.10119
1.10198
1.10386
1.10652
1.10977
1.11353
1.11771
1.12236
1.12733
1.13253
1.1375
1.14252
1.1478
1.15396
1.16039
1.16695
1.17307
1.17919
1.18483
1.19053
1.19574
1.20101
1.20574
1.21062
1.21499
1.2196
1.22376
1.22832
1.23252
1.23726
1.24171
1.24685
1.25167
1.25718
1.26234
1.26805
1.27343
1.27925
1.28471
1.29049
1.29586
1.3015
1.30674
1.31224
1.31742
1.32289
1.32821
1.33385
1.3395
1.34557
1.35167
1.35812
1.36455
1.37124
1.37769
1.38417
1.38991
1.39489
1.39785
1.11392
1.17437
1.23167
1.28222
1.3244
1.35654
1.38043
1.39577
1.40505
1.40822
1.40759
1.40301
1.395
1.38501
1.37174
1.35684
1.3398
1.31952
1.29667
1.26828
1.23834
1.20426
1.16486
1.11062
1.03705
0.971226
0.951549
0.966666
0.999773
1.04567
1.09762
1.14464
1.17841
1.20143
1.218
1.22717
1.22746
1.21966
1.20743
1.19553
1.1858
1.17924
1.17531
1.17371
1.17339
1.17437
1.17601
1.17822
1.18102
1.18419
1.18784
1.19157
1.19544
1.19916
1.20342
1.20817
1.21349
1.21852
1.22356
1.22816
1.23275
1.2369
1.24114
1.24493
1.24894
1.25256
1.25655
1.26022
1.26442
1.26841
1.2731
1.27765
1.28299
1.28809
1.29386
1.29937
1.30549
1.31125
1.31752
1.32331
1.32952
1.33514
1.34111
1.34646
1.35209
1.35721
1.36257
1.36759
1.3729
1.37804
1.38358
1.38903
1.39494
1.40074
1.40698
1.41295
1.41914
1.42468
1.42958
1.43265
1.12138
1.17599
1.22963
1.27942
1.32294
1.35897
1.38759
1.40862
1.42377
1.4331
1.43818
1.43933
1.4376
1.433
1.42617
1.41653
1.40529
1.39006
1.37059
1.34568
1.31848
1.2841
1.23783
1.16695
1.07553
1.01122
1.00049
1.01912
1.05223
1.10046
1.1545
1.20193
1.23875
1.26434
1.2814
1.29327
1.29962
1.29943
1.29206
1.27932
1.26509
1.25284
1.24325
1.2369
1.23286
1.23105
1.23028
1.23076
1.23184
1.23345
1.23551
1.23784
1.24051
1.24318
1.24603
1.24906
1.25271
1.25657
1.26051
1.2641
1.26764
1.27078
1.27404
1.27706
1.28033
1.28338
1.28684
1.2902
1.29416
1.29811
1.30291
1.30767
1.31318
1.31857
1.32469
1.33058
1.3371
1.34323
1.34991
1.35607
1.36265
1.36862
1.37489
1.38053
1.38636
1.39163
1.39703
1.40201
1.40717
1.41204
1.41722
1.42221
1.42763
1.43289
1.43859
1.44407
1.44981
1.45504
1.45969
1.46276
1.13125
1.18008
1.22968
1.27703
1.32048
1.35814
1.38973
1.41504
1.4342
1.44868
1.45815
1.46429
1.46677
1.46686
1.46449
1.45934
1.45202
1.43943
1.42257
1.40085
1.37446
1.3361
1.27747
1.18111
1.07971
1.03261
1.0324
1.05296
1.08964
1.13961
1.1925
1.23839
1.27593
1.30484
1.32567
1.33958
1.34859
1.35379
1.35452
1.34892
1.33751
1.3231
1.30903
1.29725
1.28814
1.28212
1.27815
1.27639
1.27548
1.2757
1.27644
1.27754
1.27898
1.28054
1.28238
1.28443
1.28668
1.28907
1.29193
1.29469
1.29745
1.29988
1.30243
1.30486
1.30757
1.31027
1.31348
1.31679
1.32088
1.32511
1.33017
1.33519
1.34112
1.34692
1.35359
1.35996
1.36707
1.37371
1.38095
1.38757
1.39466
1.40106
1.40779
1.41382
1.42004
1.42561
1.43129
1.43639
1.44163
1.44638
1.45142
1.45604
1.46111
1.46583
1.47107
1.47598
1.48127
1.48606
1.49041
1.49337
1.14303
1.18704
1.23212
1.27655
1.31842
1.35643
1.3894
1.41737
1.43977
1.45747
1.47085
1.4805
1.48692
1.49059
1.49148
1.48982
1.48435
1.47295
1.4573
1.43699
1.40738
1.35974
1.27777
1.15885
1.06695
1.04279
1.05243
1.07556
1.11604
1.16702
1.21634
1.25939
1.296
1.32644
1.35097
1.36988
1.38297
1.39141
1.39666
1.39825
1.395
1.38586
1.37234
1.35777
1.34411
1.33325
1.32497
1.31972
1.31624
1.31458
1.31381
1.31367
1.31405
1.31459
1.3153
1.31613
1.31715
1.31836
1.3199
1.32164
1.32347
1.32532
1.32742
1.32957
1.33194
1.33444
1.33757
1.34102
1.34532
1.34982
1.35515
1.3606
1.3669
1.3732
1.38028
1.38715
1.39469
1.40184
1.40951
1.41665
1.42418
1.43106
1.43824
1.44469
1.45136
1.45727
1.46335
1.46868
1.4742
1.47904
1.48411
1.48858
1.49339
1.49773
1.50248
1.50688
1.51159
1.51594
1.51982
1.52271
1.15683
1.19588
1.23693
1.27795
1.3177
1.35499
1.38836
1.41778
1.44257
1.46275
1.47889
1.49135
1.50046
1.50682
1.5102
1.51045
1.50498
1.49385
1.47883
1.45637
1.41866
1.35285
1.23687
1.115
1.05635
1.05059
1.06448
1.09376
1.137
1.18537
1.22981
1.26952
1.30469
1.33564
1.36233
1.38494
1.40318
1.41683
1.42565
1.43092
1.43394
1.43315
1.42714
1.41568
1.40134
1.38702
1.37414
1.36414
1.3567
1.35192
1.34901
1.34729
1.34654
1.34599
1.34575
1.34566
1.34568
1.34592
1.34639
1.34718
1.34831
1.34969
1.35147
1.35361
1.356
1.35848
1.36164
1.36524
1.36979
1.37465
1.38039
1.38632
1.3931
1.39989
1.40742
1.41477
1.42272
1.43029
1.43837
1.44592
1.45388
1.4612
1.46885
1.47574
1.48289
1.48921
1.49574
1.50143
1.5073
1.5124
1.51764
1.52214
1.52686
1.53095
1.53537
1.53929
1.54355
1.54732
1.55074
1.55333
1.17168
1.20679
1.24354
1.28154
1.31875
1.35458
1.38776
1.41751
1.44373
1.46592
1.48412
1.49883
1.51005
1.51823
1.52292
1.52302
1.5164
1.50512
1.48798
1.4581
1.40413
1.30492
1.16965
1.07513
1.05071
1.05698
1.07461
1.1085
1.15268
1.19592
1.23578
1.27248
1.30611
1.33694
1.36479
1.38984
1.41149
1.42981
1.44437
1.45445
1.46047
1.46454
1.46574
1.46284
1.45437
1.44152
1.42709
1.41331
1.4016
1.39265
1.3863
1.38202
1.37914
1.37724
1.37581
1.37473
1.37382
1.37324
1.37268
1.37275
1.37313
1.37404
1.37557
1.37765
1.38011
1.38273
1.38606
1.39002
1.395
1.40031
1.4065
1.41285
1.42003
1.42718
1.43503
1.44269
1.45089
1.45876
1.46708
1.47492
1.48315
1.49078
1.49875
1.506
1.51353
1.52024
1.52719
1.53327
1.53958
1.54502
1.55061
1.55525
1.56008
1.56407
1.56834
1.57192
1.5758
1.57913
1.58207
1.58451
1.18736
1.21928
1.25258
1.28702
1.32195
1.35587
1.38813
1.4177
1.44443
1.46778
1.48761
1.50398
1.51673
1.52617
1.53092
1.52885
1.52052
1.50729
1.4842
1.43987
1.3581
1.22264
1.1028
1.05479
1.05118
1.06197
1.08599
1.12226
1.16287
1.20119
1.23719
1.27104
1.30316
1.33346
1.36193
1.38841
1.41252
1.43425
1.45291
1.46833
1.47978
1.48752
1.49278
1.49569
1.49571
1.49082
1.48035
1.46657
1.45214
1.43916
1.42829
1.42014
1.4141
1.40998
1.40681
1.40474
1.40267
1.40131
1.39998
1.39933
1.39905
1.39967
1.40108
1.40322
1.40584
1.40866
1.41226
1.41654
1.42181
1.42743
1.4339
1.44056
1.44797
1.45538
1.46339
1.47123
1.47955
1.48758
1.49602
1.50406
1.51248
1.52039
1.52863
1.5362
1.54407
1.55113
1.55845
1.56488
1.5716
1.57733
1.58323
1.5881
1.59313
1.59718
1.60144
1.60483
1.60844
1.61136
1.61384
1.616
1.20408
1.23371
1.26415
1.2954
1.32755
1.35931
1.3903
1.41918
1.44562
1.46964
1.49004
1.5078
1.52115
1.53111
1.53359
1.52854
1.51826
1.49948
1.46397
1.39514
1.2701
1.13427
1.06298
1.04863
1.05427
1.06982
1.09818
1.13402
1.16943
1.20323
1.23587
1.26745
1.29831
1.32808
1.35685
1.38414
1.40991
1.43382
1.45553
1.47487
1.49138
1.50446
1.514
1.52062
1.52543
1.52719
1.52563
1.51857
1.50636
1.49215
1.47771
1.46485
1.45432
1.44621
1.44042
1.43598
1.43289
1.43028
1.42858
1.4271
1.42645
1.42663
1.42794
1.43005
1.43258
1.43553
1.43935
1.444
1.44959
1.45551
1.46212
1.46891
1.47636
1.48384
1.49186
1.49974
1.50809
1.51615
1.52463
1.5327
1.54118
1.54913
1.55749
1.56519
1.57327
1.58057
1.58819
1.59496
1.602
1.60804
1.61422
1.61938
1.62467
1.62892
1.63332
1.63672
1.64024
1.64296
1.64509
1.64706
1.22125
1.24854
1.27687
1.30574
1.33508
1.36494
1.39379
1.42229
1.44784
1.47205
1.4927
1.51059
1.52434
1.53215
1.53092
1.52259
1.50757
1.47796
1.41952
1.30999
1.16963
1.07595
1.04895
1.05019
1.05928
1.08001
1.11019
1.14249
1.17354
1.20388
1.23398
1.26388
1.29365
1.32298
1.35168
1.37954
1.40621
1.43167
1.45548
1.47777
1.49776
1.51544
1.53008
1.54118
1.54948
1.5552
1.55861
1.55921
1.5555
1.54601
1.5322
1.51642
1.50167
1.48877
1.47848
1.47091
1.46485
1.46094
1.45801
1.4558
1.45504
1.45469
1.45597
1.45813
1.46061
1.46356
1.46744
1.47221
1.47785
1.48388
1.49051
1.49731
1.50466
1.51208
1.51999
1.52777
1.53601
1.54397
1.55238
1.56038
1.56885
1.57681
1.58522
1.59302
1.60122
1.60872
1.61656
1.6236
1.63081
1.6371
1.64352
1.64895
1.65452
1.65902
1.66364
1.66716
1.67071
1.67331
1.67521
1.67695
1.23593
1.26482
1.29088
1.31805
1.34474
1.37241
1.39945
1.42619
1.45153
1.47451
1.49581
1.51245
1.52574
1.52835
1.52242
1.51031
1.48571
1.43561
1.34102
1.20205
1.09368
1.05278
1.0488
1.05505
1.07039
1.09463
1.12246
1.15022
1.17775
1.20548
1.23362
1.26209
1.29091
1.3196
1.34815
1.37613
1.40348
1.42997
1.45536
1.47951
1.50199
1.52275
1.54102
1.55694
1.56926
1.5787
1.58501
1.58955
1.59153
1.59029
1.58355
1.57093
1.55517
1.53864
1.52367
1.51104
1.50099
1.49401
1.48896
1.48572
1.48429
1.48357
1.48479
1.4869
1.48924
1.49199
1.49591
1.5007
1.5063
1.51223
1.5188
1.5255
1.53271
1.53995
1.54764
1.55526
1.56327
1.57113
1.57933
1.58729
1.59558
1.60353
1.61179
1.61962
1.62778
1.63543
1.64331
1.65046
1.6578
1.66427
1.67092
1.67659
1.68243
1.68716
1.69201
1.69569
1.69933
1.70192
1.70364
1.70524
1.25469
1.27962
1.30538
1.33001
1.35599
1.38099
1.40706
1.43178
1.4563
1.47839
1.49813
1.51399
1.52211
1.51933
1.50856
1.4878
1.44488
1.36326
1.23034
1.11311
1.06134
1.05253
1.05632
1.06724
1.08653
1.11038
1.13431
1.15849
1.18326
1.20897
1.23561
1.26295
1.29093
1.31906
1.34738
1.37533
1.40304
1.43001
1.45635
1.48148
1.5057
1.52808
1.54913
1.56772
1.5842
1.59751
1.60773
1.61442
1.61919
1.62184
1.62192
1.61754
1.60717
1.59188
1.57481
1.55833
1.54368
1.53228
1.52366
1.5181
1.51498
1.5136
1.51445
1.5164
1.51862
1.52125
1.52511
1.52976
1.53513
1.54081
1.54713
1.55365
1.56063
1.56766
1.57506
1.58249
1.59023
1.59793
1.60589
1.61373
1.62183
1.62971
1.63786
1.64569
1.65379
1.66134
1.66912
1.67623
1.68357
1.69014
1.6969
1.70275
1.70876
1.71371
1.71875
1.72261
1.72635
1.72898
1.73059
1.73205
1.27356
1.29316
1.31954
1.34351
1.3675
1.39143
1.41504
1.43899
1.46139
1.48268
1.50029
1.51215
1.51244
1.50307
1.48528
1.44844
1.37686
1.25224
1.13198
1.07261
1.05953
1.06171
1.06946
1.08495
1.1053
1.12576
1.14634
1.16785
1.1906
1.21487
1.24035
1.26686
1.29415
1.32178
1.34971
1.37749
1.40513
1.43233
1.4589
1.48476
1.50954
1.53325
1.55545
1.57614
1.59471
1.61115
1.62477
1.63525
1.64192
1.64625
1.64931
1.65003
1.6471
1.63886
1.62595
1.60981
1.5933
1.57806
1.56529
1.55597
1.54974
1.54649
1.54585
1.54719
1.54915
1.55157
1.55511
1.55953
1.56462
1.57005
1.57601
1.58219
1.58883
1.59556
1.60268
1.60977
1.61723
1.62461
1.63236
1.63997
1.6479
1.65564
1.66367
1.67132
1.67916
1.68656
1.69415
1.70122
1.70849
1.7151
1.72188
1.72781
1.73391
1.73895
1.7441
1.74803
1.75182
1.75443
1.75589
1.7572
1.2977
1.31061
1.33309
1.35731
1.38045
1.40279
1.42509
1.4468
1.468
1.48606
1.50084
1.50334
1.49541
1.47938
1.44651
1.38124
1.2664
1.14788
1.08466
1.06881
1.0706
1.07678
1.08958
1.10691
1.12429
1.14171
1.15994
1.17976
1.20118
1.22439
1.24878
1.27452
1.30085
1.32787
1.35512
1.38245
1.40966
1.43666
1.46302
1.48905
1.51388
1.53812
1.56077
1.58241
1.6021
1.62021
1.63598
1.64931
1.65987
1.66676
1.67094
1.67424
1.67533
1.67388
1.66814
1.65797
1.64439
1.62921
1.61448
1.60163
1.59161
1.58482
1.58101
1.58038
1.58161
1.5833
1.58592
1.58964
1.59447
1.59968
1.60536
1.61124
1.61748
1.62387
1.63056
1.63736
1.64441
1.65152
1.65887
1.66628
1.67395
1.68151
1.68918
1.69663
1.70418
1.71143
1.71882
1.72579
1.73293
1.73945
1.74615
1.75201
1.75804
1.76302
1.76806
1.77193
1.77546
1.77791
1.77896
1.78005
1.3232
1.32925
1.34684
1.37036
1.39275
1.41446
1.43519
1.45537
1.47362
1.48829
1.49348
1.48692
1.47099
1.44008
1.37921
1.27125
1.15807
1.09577
1.07919
1.08095
1.08672
1.09872
1.11433
1.12918
1.14354
1.15854
1.17517
1.19374
1.21424
1.23642
1.26001
1.28474
1.31037
1.33652
1.36313
1.38964
1.41638
1.44261
1.46876
1.49413
1.51894
1.54275
1.56562
1.58727
1.60757
1.62644
1.64341
1.65844
1.67135
1.68138
1.68913
1.69384
1.69786
1.69957
1.69966
1.69669
1.68966
1.67912
1.6665
1.65322
1.64081
1.63018
1.62254
1.61782
1.61659
1.61727
1.61875
1.62098
1.62473
1.62952
1.63491
1.64043
1.64632
1.65231
1.65867
1.66508
1.67186
1.67865
1.68585
1.69299
1.70033
1.70751
1.71487
1.72201
1.72931
1.73629
1.74344
1.75017
1.75708
1.76343
1.7699
1.77563
1.78138
1.78622
1.79088
1.79449
1.79752
1.79939
1.79989
1.80079
1.35877
1.35443
1.36333
1.38196
1.40514
1.42625
1.44595
1.46329
1.47777
1.4832
1.47717
1.46088
1.43035
1.37088
1.26745
1.16041
1.10224
1.08726
1.09009
1.09752
1.11076
1.12606
1.13904
1.15077
1.16267
1.17619
1.19172
1.20946
1.22909
1.25049
1.27307
1.29701
1.32147
1.34686
1.37229
1.3982
1.42386
1.44957
1.47477
1.49966
1.52379
1.54724
1.56975
1.59124
1.61148
1.63044
1.64786
1.66388
1.67791
1.69044
1.70072
1.7091
1.71553
1.71982
1.72367
1.72554
1.72548
1.72181
1.71461
1.70524
1.69367
1.6819
1.67105
1.66259
1.6569
1.65441
1.65426
1.65523
1.65703
1.66015
1.66471
1.66979
1.67538
1.68111
1.68713
1.69327
1.6997
1.70636
1.71322
1.72009
1.72709
1.73404
1.74108
1.74799
1.75496
1.76173
1.76853
1.77502
1.7815
1.78757
1.79358
1.79901
1.80428
1.80872
1.81286
1.81581
1.81822
1.81896
1.81856
1.81948
1.3999
1.37973
1.38201
1.39553
1.41561
1.43698
1.455
1.46909
1.47437
1.46783
1.45053
1.41861