/*--------------------------------*- C++ -*----------------------------------*\
  =========                 |
  \\      /  F ield         | OpenFOAM: The Open Source CFD Toolbox
   \\    /   O peration     | Website:  https://openfoam.org
    \\  /    A nd           | Version:  13
     \\/     M anipulation  |
\*---------------------------------------------------------------------------*/
FoamFile
{
    format      ascii;
    class       volScalarField;
    location    "5.5";
    object      p;
}
// * * * * * * * * * * * * * * * * * * * * * * * * * * * * * * * * * * * * * //

dimensions      [1 -1 -2 0 0 0 0];

internalField   nonuniform List<scalar> 
5250
(
1.00001
1.00003
1.00008
1.00021
1.00054
1.00129
1.00334
1.00782
1.02037
1.04838
1.1245
1.31609
1.86018
3.4457
8.08005
11.6828
11.2886
11.0518
11.1365
11.367
11.5948
11.7331
11.8383
11.9207
11.9831
1.00001
1.00003
1.00008
1.00022
1.00051
1.00135
1.00308
1.00822
1.0189
1.04967
1.11958
1.31411
1.8418
3.40356
7.96519
11.6962
11.2882
11.0421
11.1278
11.3593
11.587
11.7257
11.8325
11.9162
11.9801
1.00001
1.00003
1.00008
1.00019
1.00053
1.00121
1.00321
1.00744
1.01928
1.04622
1.11793
1.30011
1.81203
3.30728
7.70876
11.7234
11.2839
11.0125
11.0968
11.3262
11.5519
11.6889
11.7952
11.8786
11.9428
1
1.00003
1.00008
1.00019
1.00049
1.00117
1.00302
1.00704
1.01841
1.04349
1.11213
1.28281
1.76527
3.16358
7.31259
11.764
11.2785
10.9636
11.0435
11.2667
11.4895
11.6229
11.7264
11.808
11.8735
1
1.00002
1.00007
1.00018
1.00045
1.0011
1.00278
1.00662
1.017
1.04062
1.1038
1.26189
1.70403
2.98119
6.78884
11.8038
11.2723
10.8985
10.9706
11.1826
11.4018
11.5299
11.6286
11.7075
11.7756
1
1.00002
1.00007
1.00016
1.00042
1.00102
1.00249
1.00626
1.01501
1.03808
1.09311
1.23932
1.63198
2.77317
6.15922
11.7962
11.2561
10.8183
10.8784
11.0714
11.2841
11.4034
11.4929
11.5653
11.6354
1
1.00002
1.00006
1.00015
1.00036
1.00096
1.00219
1.00581
1.01331
1.03497
1.08316
1.21592
1.56235
2.56732
5.5299
11.6652
11.1909
10.7179
10.7644
10.9301
11.1297
11.2344
11.3073
11.3646
11.4314
1
1.00002
1.00005
1.00013
1.00035
1.00081
1.00212
1.00499
1.01266
1.03081
1.07694
1.19397
1.50871
2.40846
5.07709
11.2453
11.0071
10.6031
10.6301
10.7534
10.93
11.0119
11.0557
11.0796
11.1235
1
1.00002
1.00005
1.00013
1.00029
1.00079
1.0018
1.00477
1.01103
1.02859
1.06868
1.1763
1.45645
2.26067
4.63291
10.5488
10.7155
10.5279
10.4864
10.5495
10.6818
10.7268
10.7196
10.6736
10.6273
1
1.00001
1.00004
1.00011
1.00028
1.00067
1.0017
1.00405
1.01038
1.02465
1.06296
1.15548
1.40743
2.11143
4.18887
9.67546
10.5545
10.428
10.3085
10.3326
10.3917
10.3781
10.2951
10.0854
9.75682
1
1.00001
1.00004
1.0001
1.00024
1.00059
1.00151
1.00353
1.00922
1.02152
1.05564
1.13588
1.35563
1.96087
3.74017
8.64348
10.443
10.3301
10.1223
10.0956
10.0766
9.99081
9.74526
9.16446
7.65239
1
1.00001
1.00003
1.00009
1.0002
1.00052
1.00127
1.00308
1.0078
1.01865
1.04739
1.11634
1.30131
1.80648
3.27995
7.4521
10.3604
10.234
9.95538
9.85087
9.76888
9.58578
9.18827
8.3892
6.80737
1
1.00001
1.00003
1.00007
1.00017
1.00043
1.00104
1.00265
1.00622
1.01612
1.03813
1.09777
1.24466
1.65358
2.8147
6.15249
10.2609
10.1335
9.81402
9.61225
9.46706
9.20341
8.70888
7.88574
6.61904
1
1.00001
1.00002
1.00005
1.00014
1.00034
1.00086
1.00212
1.00508
1.0129
1.0307
1.078
1.19316
1.50696
2.37703
4.84199
9.97086
9.94504
9.70303
9.3929
9.17764
8.86859
8.3588
7.60199
6.59686
1
1.00001
1.00002
1.00005
1.00011
1.0003
1.00067
1.00179
1.00405
1.01069
1.02482
1.0638
1.15647
1.40843
2.10507
4.11
9.11086
9.66834
9.51304
9.18837
8.91788
8.58785
8.09961
7.42471
6.58885
1
1
1.00001
1.00004
1.00009
1.00023
1.00055
1.00141
1.0033
1.0086
1.01996
1.05173
1.12515
1.32646
1.8706
3.44227
7.63982
9.39006
9.29641
9.03367
8.70179
8.35417
7.89562
7.29301
6.5727
1
1
1.00001
1.00003
1.00007
1.00018
1.00044
1.00108
1.00271
1.00641
1.01647
1.03906
1.09977
1.24957
1.66497
2.83188
6.08441
9.21011
9.15781
8.9298
8.53363
8.16162
7.72753
7.18533
6.55184
1
1
1.00001
1.00002
1.00006
1.00013
1.00035
1.0008
1.00208
1.00483
1.01226
1.0295
1.07353
1.18312
1.47393
2.27026
4.4352
8.82391
9.02404
8.83955
8.43022
8.01122
7.58786
7.09452
6.53012
1
1
1.00001
1.00002
1.00004
1.0001
1.00027
1.00061
1.00159
1.00367
1.0094
1.0224
1.05611
1.13872
1.35644
1.95285
3.62402
7.7983
8.77766
8.65587
8.33166
7.88671
7.46914
7.01553
6.50806
1
1
1
1.00001
1.00003
1.00008
1.00019
1.00049
1.00113
1.00288
1.00689
1.01705
1.04197
1.1039
1.26412
1.69643
2.91
6.15867
8.49966
8.45599
8.24207
7.8015
7.37398
6.94681
6.48605
1
1
1
1.00001
1.00002
1.00006
1.00013
1.00036
1.00081
1.00212
1.00487
1.01251
1.0296
1.07451
1.18416
1.47666
2.26682
4.36944
8.05968
8.31458
8.15825
7.77863
7.31377
6.89327
6.46719
1
1
1
1.00001
1.00002
1.00004
1.0001
1.00026
1.00058
1.00154
1.00346
1.00913
1.02093
1.05409
1.12995
1.33614
1.88166
3.38075
7.01415
8.0999
8.00803
7.73606
7.28158
6.85728
6.45262
1
1
1
1
1.00001
1.00003
1.00007
1.00018
1.00042
1.00108
1.00247
1.0065
1.01481
1.03868
1.09135
1.236
1.60788
2.64025
5.34174
7.78489
7.80117
7.65485
7.29256
6.85187
6.44993
1
1
1
1
1.00001
1.00002
1.00005
1.00012
1.0003
1.00072
1.00175
1.00433
1.01025
1.02593
1.06167
1.15583
1.39204
2.02625
3.66217
7.12039
7.68069
7.57683
7.2912
6.86137
6.45457
1
1
1
1
1.00001
1.00001
1.00004
1.00008
1.00021
1.00048
1.00126
1.00282
1.00745
1.01694
1.04389
1.10423
1.26778
1.69055
2.83884
5.71793
7.4367
7.41985
7.26778
6.90382
6.47204
1
1
1
1
1
1.00001
1.00002
1.00006
1.00014
1.00032
1.00083
1.00189
1.00494
1.01113
1.02925
1.06757
1.17377
1.43402
2.1338
3.89433
6.92181
7.31288
7.21232
6.94413
6.51274
1
1
1
1
1
1.00001
1.00002
1.00004
1.00009
1.00021
1.00056
1.00126
1.00326
1.00752
1.019
1.04541
1.11309
1.28239
1.73087
2.91087
5.75503
7.09279
7.07789
6.9328
6.5974
1
1
1
1
1
1
1.00001
1.00002
1.00006
1.00014
1.00036
1.00083
1.00207
1.00503
1.01199
1.02993
1.07163
1.17992
1.45363
2.17571
3.97974
6.60642
6.96541
6.88114
6.64756
1
1
1
1
1
1
1.00001
1.00002
1.00004
1.00009
1.00022
1.00056
1.00128
1.00332
1.00749
1.01954
1.04485
1.11463
1.28023
1.72524
2.85673
5.51841
6.74397
6.74355
6.63365
1
1
1
1
1
1
1
1.00001
1.00003
1.00006
1.00015
1.00033
1.00086
1.00195
1.00501
1.01163
1.02899
1.06977
1.17299
1.43536
2.11013
3.77185
6.24233
6.63692
6.58101
1
1
1
1
1
1
1
1.00001
1.00001
1.00004
1.00009
1.00021
1.00053
1.00122
1.00314
1.00709
1.01845
1.04217
1.10787
1.26116
1.67213
2.69989
5.12324
6.40342
6.46455
1
1
1
1
1
1
1
1
1.00001
1.00002
1.00006
1.00013
1.00032
1.00076
1.00183
1.00451
1.01054
1.02647
1.06219
1.15549
1.3835
1.96558
3.35403
5.85862
6.35315
1
1
1
1
1
1
1
1
1.00001
1.00001
1.00003
1.00008
1.0002
1.00045
1.00117
1.00261
1.00681
1.01534
1.03938
1.09224
1.23333
1.58268
2.47882
4.62153
6.06915
1
1
1
1
1
1
1
1
1
1.00001
1.00002
1.00005
1.00011
1.00029
1.00064
1.00167
1.00372
1.00967
1.02174
1.0558
1.13042
1.32998
1.81339
2.9782
5.39592
1
1
1
1
1
1
1
1
1
1.00001
1.00001
1.00003
1.00007
1.00017
1.00038
1.00099
1.00223
1.00572
1.01311
1.03281
1.07798
1.19353
1.48135
2.20738
3.95246
1
1
1
1
1
1
1
1
1
1
1.00001
1.00002
1.00004
1.00009
1.00024
1.00054
1.00139
1.0031
1.00805
1.01806
1.04628
1.10771
1.27138
1.66778
2.63771
1
1
1
1
1
1
1
1
1
1
1
1.00001
1.00002
1.00006
1.00013
1.00033
1.00074
1.00191
1.00425
1.01095
1.02467
1.06267
1.14672
1.36765
1.89349
1
1
1
1
1
1
1
1
1
1
1
1.00001
1.00001
1.00003
1.00008
1.00018
1.00045
1.00105
1.00251
1.00614
1.01427
1.03569
1.08338
1.20849
1.50883
1
1
1
1
1
1
1
1
1
1
1
1
1.00001
1.00002
1.00004
1.0001
1.00025
1.00058
1.00145
1.00328
1.00835
1.01879
1.0478
1.11062
1.27676
1
1
1
1
1
1
1
1
1
1
1
1
1
1.00001
1.00002
1.00006
1.00013
1.00034
1.00076
1.00194
1.00431
1.01106
1.02476
1.06283
1.14587
1
1
1
1
1
1
1
1
1
1
1
1
1
1.00001
1.00001
1.00003
1.00008
1.00018
1.00046
1.00102
1.00259
1.00586
1.01469
1.03409
1.08357
1
1
1
1
1
1
1
1
1
1
1
1
1
1
1.00001
1.00002
1.00005
1.0001
1.00026
1.00059
1.00151
1.00336
1.00861
1.0194
1.04871
1
1
1
1
1
1
1
1
1
1
1
1
1
1
1
1.00001
1.00003
1.00007
1.00017
1.00039
1.00098
1.00221
1.0057
1.01278
1.03305
1
1
1
1
1
1
1
1
1
1
1
1
1
1
1
1.00001
1.00002
1.00005
1.00013
1.0003
1.00079
1.00176
1.00467
1.0105
1.02764
1
1
1
1
1
1
1
1
1
1
1
1
1
1
1
1.00001
1.00002
1.00004
1.00012
1.00026
1.0007
1.00158
1.00424
1.00965
1.02541
1
1
1
1
1
1
1
1
1
1
1
1
1
1
1
1.00001
1.00002
1.00004
1.00011
1.00025
1.00066
1.00157
1.00393
1.0097
1.02379
1
1
1
1
1
1
1
1
1
1
1
1
1
1
1
1.00001
1.00002
1.00004
1.0001
1.00027
1.00061
1.00163
1.0037
1.00992
1.02298
1
1
1
1
1
1
1
1
1
1
1
1
1
1
1
1.00001
1.00002
1.00004
1.0001
1.00026
1.00061
1.00157
1.00381
1.00946
1.02361
1
1
1
1
1
1
1
1
1
1
1
1
1
1
1
1.00001
1.00002
1.00004
1.0001
1.00025
1.00064
1.00149
1.00396
1.00909
1.02416
1
1
1
1
1
1
1
1
1
1
1
1
1
1
1
1.00001
1.00002
1.00004
1.00011
1.00024
1.00065
1.00149
1.00393
1.00921
1.02374
3.29314
2.17255
2.43948
3.45014
3.50108
3.29846
3.16707
3.10762
3.08377
3.06572
3.02866
2.98156
2.93814
2.90371
2.87303
2.84035
2.80615
2.77179
2.73901
2.7081
2.6766
2.64296
2.62138
2.61216
2.60962
2.61493
2.64699
2.71278
2.81404
2.94293
3.08792
3.23988
3.39188
3.53886
3.67551
3.79884
3.90861
4.00534
4.0922
4.16767
4.23108
4.28446
4.3281
4.36722
4.39701
4.41681
4.42934
4.4358
4.43622
4.4336
4.42564
4.41103
4.39312
4.37326
4.35081
4.32667
4.30068
4.27369
4.2459
4.21783
4.18991
4.16256
4.13625
4.11143
4.08855
4.06807
4.05038
4.03585
4.02476
4.01732
4.0136
4.01328
4.01367
4.01489
4.01761
4.02267
4.02723
4.02848
4.02785
4.02575
4.02094
4.01268
3.99831
3.97767
3.95255
3.92341
3.89091
3.85564
3.81804
3.77859
3.73768
3.69575
3.65324
3.61066
3.56864
3.52802
3.48991
3.45577
3.42757
3.40879
4.07968
3.08308
3.15983
3.49995
3.44456
3.27361
3.14287
3.1122
3.12072
3.10579
3.04745
2.98121
2.92829
2.89296
2.86696
2.8383
2.80582
2.77166
2.73832
2.70693
2.6769
2.64678
2.6218
2.61004
2.60654
2.60994
2.63743
2.69967
2.79954
2.92876
3.07411
3.2264
3.37801
3.52489
3.66171
3.78499
3.89448
3.98972
4.07941
4.15622
4.21987
4.27389
4.31887
4.35796
4.38758
4.40832
4.42129
4.42816
4.42886
4.42693
4.42023
4.40592
4.38727
4.36733
4.34549
4.32168
4.2961
4.2693
4.24177
4.21394
4.18624
4.15912
4.13303
4.10842
4.08575
4.06546
4.04794
4.03355
4.02255
4.01513
4.01142
4.0113
4.01172
4.01297
4.01571
4.02045
4.02477
4.02565
4.02506
4.02308
4.0184
4.00958
3.99505
3.97471
3.94989
3.92107
3.88881
3.85366
3.81611
3.77664
3.73571
3.69373
3.65114
3.60845
3.56627
3.52541
3.48695
3.45251
3.42389
3.40481
4.9204
3.88692
3.4811
3.48535
3.44275
3.31859
3.16716
3.11723
3.09841
3.06909
3.02824
2.97718
2.93258
2.90432
2.8793
2.84337
2.80714
2.77074
2.73563
2.70226
2.67178
2.6447
2.6208
2.60623
2.60099
2.60253
2.62528
2.6807
2.77645
2.90589
3.05113
3.2031
3.35284
3.50204
3.64177
3.76645
3.87738
3.9756
4.06489
4.14178
4.20635
4.2611
4.30679
4.34511
4.37493
4.39641
4.41014
4.41741
4.41853
4.41708
4.41169
4.39921
4.37974
4.35943
4.33797
4.31469
4.28965
4.2633
4.23618
4.20876
4.18148
4.1548
4.12916
4.105
4.08277
4.0629
4.04574
4.03164
4.0208
4.01339
4.0095
4.00933
4.00971
4.01081
4.01317
4.01695
4.02028
4.02032
4.01959
4.01734
4.0123
4.00208
3.98709
3.96731
3.94323
3.91514
3.88348
3.84875
3.81148
3.77218
3.73134
3.68939
3.64678
3.60399
3.56165
3.52057
3.48195
3.44712
3.41777
3.39796
5.34514
4.35763
3.76863
3.54081
3.46049
3.34769
3.21826
3.14026
3.10507
3.07403
3.03122
2.97843
2.93119
2.89774
2.86781
2.83603
2.80309
2.76866
2.73459
2.70182
2.67156
2.64547
2.62093
2.60245
2.59166
2.5894
2.60899
2.66051
2.75215
2.88125
3.02387
3.17654
3.32856
3.47706
3.6158
3.74091
3.8525
3.95178
4.04054
4.11807
4.18404
4.23977
4.28632
4.32478
4.35511
4.37736
4.39205
4.40003
4.40184
4.40084
4.39683
4.38696
4.36793
4.34729
4.32593
4.3033
4.27909
4.2536
4.22727
4.20063
4.17414
4.14828
4.12346
4.10014
4.07873
4.05966
4.04328
4.0298
4.01925
4.01184
4.00761
4.00665
4.00687
4.00753
4.00891
4.01104
4.01219
4.01171
4.01003
4.00633
3.99949
3.98826
3.97313
3.95402
3.93091
3.9039
3.87326
3.83941
3.80284
3.76407
3.72362
3.68193
3.63942
3.59661
3.55426
3.51322
3.47435
3.43897
3.40866
3.38772
5.5834
4.69147
4.05867
3.68475
3.51858
3.40599
3.28825
3.19123
3.12902
3.08698
3.04045
2.98759
2.94027
2.90331
2.8702
2.83634
2.80144
2.76671
2.73285
2.70063
2.67087
2.6435
2.62019
2.60368
2.59434
2.59583
2.61368
2.66336
2.75237
2.87115
3.00664
3.14901
3.29708
3.44239
3.57932
3.70438
3.81695
3.9176
4.00729
4.08602
4.15366
4.21088
4.25866
4.29788
4.32897
4.35219
4.36801
4.37707
4.37991
4.37927
4.37643
4.36899
4.35333
4.33249
4.31103
4.28901
4.26587
4.24161
4.21653
4.19112
4.16587
4.14127
4.11773
4.0957
4.07553
4.05777
4.04246
4.02967
4.01956
4.01218
4.00741
4.00529
4.00455
4.00444
4.0042
4.00369
4.00255
4.00021
3.99584
3.98937
3.98046
3.9685
3.95331
3.93466
3.91243
3.88661
3.85731
3.8248
3.78948
3.75181
3.71227
3.67122
3.62904
3.58677
3.5448
3.50384
3.46478
3.42884
3.39755
3.3753
5.73734
4.94854
4.32421
3.89774
3.64105
3.48715
3.36115
3.25362
3.1726
3.11342
3.06056
3.00754
2.95779
2.91469
2.87701
2.84141
2.80631
2.7716
2.73788
2.70606
2.6772
2.65206
2.63273
2.62125
2.61989
2.6264
2.65117
2.70702
2.78929
2.88853
3.00384
3.12794
3.25601
3.39149
3.52555
3.65199
3.76758
3.87104
3.96266
4.043
4.11243
4.17157
4.22111
4.26184
4.29431
4.319
4.33635
4.34698
4.35144
4.35119
4.3495
4.34449
4.33326
4.31383
4.29277
4.2714
4.24946
4.22675
4.20338
4.17974
4.15627
4.13347
4.11176
4.09153
4.07331
4.05712
4.04307
4.03132
4.02181
4.01444
4.00898
4.00526
4.00284
4.00067
3.99801
3.99442
3.98975
3.98388
3.97647
3.96716
3.95592
3.94255
3.9267
3.90809
3.88655
3.86192
3.83421
3.80348
3.77
3.73406
3.69604
3.65605
3.61529
3.57383
3.53247
3.49182
3.45271
3.41633
3.38415
3.36055
5.84084
5.14504
4.55189
4.10118
3.79086
3.58527
3.43662
3.31697
3.22229
3.14887
3.08828
3.03278
2.98066
2.93374
2.8918
2.85347
2.81757
2.78271
2.74931
2.71869
2.69287
2.67374
2.66325
2.66383
2.6711
2.69495
2.7488
2.81839
2.88274
2.95141
3.03098
3.12116
3.21459
3.31877
3.44178
3.57106
3.69533
3.80723
3.90479
3.98887
4.06089
4.12227
4.17392
4.21666
4.25111
4.27782
4.29726
4.31003
4.31669
4.31767
4.31688
4.31394
4.3067
4.2917
4.27192
4.25148
4.23089
4.21
4.18876
4.16742
4.14633
4.12594
4.10665
4.0888
4.07286
4.05865
4.04628
4.03573
4.02682
4.01932
4.01292
4.00732
4.00224
3.99698
3.99086
3.9835
3.97475
3.9647
3.95341
3.94079
3.92674
3.91117
3.89395
3.87481
3.85356
3.82995
3.80385
3.77517
3.74397
3.71036
3.67443
3.63674
3.59761
3.5576
3.51732
3.47734
3.4385
3.40194
3.36911
3.34432
5.91117
5.29391
4.73991
4.28691
3.9444
3.69885
3.52178
3.38464
3.27792
3.19247
3.12297
3.06266
3.00792
2.95815
2.91338
2.87274
2.83506
2.79965
2.76693
2.73883
2.71906
2.71025
2.71192
2.72171
2.75104
2.81824
2.92089
2.99548
3.03719
3.06961
3.10383
3.14102
3.19787
3.25247
3.33244
3.45214
3.58484
3.71202
3.82379
3.91821
3.99691
4.06255
4.11707
4.16217
4.19889
4.228
4.25005
4.26555
4.27497
4.27887
4.27871
4.2774
4.27344
4.26448
4.24798
4.22936
4.21045
4.1916
4.17284
4.15429
4.13616
4.11879
4.10246
4.0877
4.07424
4.06229
4.05174
4.04239
4.03395
4.02609
4.01843
4.01061
4.00242
3.99306
3.98255
3.97073
3.95754
3.94305
3.92743
3.91086
3.8934
3.87505
3.85581
3.83552
3.81401
3.79101
3.76629
3.73961
3.71086
3.67987
3.64668
3.61161
3.57492
3.53701
3.49839
3.45963
3.42154
3.38521
3.35212
3.32648
5.95907
5.40708
4.8933
4.45155
4.09467
3.82162
3.61707
3.46135
3.33958
3.2425
3.16425
3.09766
3.0392
2.98664
2.93917
2.89627
2.85696
2.82121
2.79005
2.76656
2.75731
2.75931
2.76982
2.80076
2.87285
3.02118
3.16616
3.23572
3.24885
3.24531
3.23267
3.20654
3.20882
3.22583
3.26572
3.33318
3.44121
3.57421
3.70291
3.81599
3.91038
3.98722
4.04867
4.09822
4.13809
4.16986
4.19478
4.21341
4.22615
4.23352
4.23619
4.23594
4.23442
4.23013
4.22067
4.2054
4.18881
4.17233
4.15636
4.14103
4.12639
4.11256
4.09971
4.08819
4.07769
4.06815
4.05936
4.05103
4.0428
4.03423
4.02495
4.01462
4.00243
3.98871
3.97348
3.95683
3.93889
3.91974
3.89964
3.8788
3.85751
3.83589
3.81408
3.792
3.76959
3.74657
3.7227
3.69764
3.67114
3.64286
3.61266
3.58061
3.54687
3.51163
3.47531
3.4384
3.40168
3.36619
3.33335
3.30741
5.99348
5.49357
5.01851
4.59398
4.23528
3.94594
3.72006
3.54485
3.40786
3.29918
3.21039
3.13713
3.07394
3.01825
2.9682
2.9232
2.88268
2.8472
2.81865
2.80472
2.80627
2.81546
2.84367
2.91207
3.05859
3.31235
3.48147
3.51937
3.51001
3.47653
3.40048
3.30407
3.24383
3.23704
3.24748
3.27735
3.33432
3.42339
3.54539
3.67034
3.78507
3.88192
3.95947
4.01991
4.06705
4.10341
4.13214
4.15417
4.1705
4.18169
4.18826
4.19129
4.19121
4.19016
4.18672
4.17894
4.16641
4.15288
4.14002
4.12819
4.11733
4.10742
4.09857
4.09039
4.0828
4.07553
4.0683
4.06065
4.05228
4.04256
4.03135
4.0175
4.00134
3.98326
3.96343
3.94197
3.91918
3.89526
3.87058
3.84541
3.82015
3.79499
3.77021
3.74582
3.72184
3.69807
3.67431
3.65018
3.62536
3.59943
3.57208
3.54313
3.51258
3.48042
3.44698
3.41259
3.37794
3.344
3.31205
3.28652
6.01903
5.56265
5.12188
4.71752
4.36391
4.06682
3.82593
3.63391
3.48176
3.36035
3.26198
3.18076
3.11182
3.0525
2.99989
2.95288
2.91176
2.87752
2.85443
2.85474
2.86112
2.88377
2.94216
3.07259
3.34374
3.68062
3.83909
3.83622
3.80804
3.73199
3.57793
3.4342
3.33188
3.27424
3.26134
3.26803
3.29086
3.33468
3.40198
3.50377
3.62171
3.73532
3.83419
3.91449
3.97711
4.02466
4.06088
4.08791
4.10861
4.12387
4.13467
4.14181
4.14593
4.14771
4.14748
4.14604
4.14197
4.13346
4.12473
4.11666
4.10956
4.10359
4.09853
4.09374
4.08887
4.08359
4.07757
4.0702
4.06118
4.04991
4.03542
4.01804
3.99845
3.97644
3.95225
3.92615
3.89865
3.87008
3.84097
3.81162
3.78248
3.75379
3.72589
3.69884
3.67278
3.64757
3.62309
3.59902
3.57505
3.55077
3.52566
3.4995
3.47209
3.44323
3.41308
3.3818
3.3499
3.31828
3.28792
3.26364
6.0388
5.61849
5.20815
4.82434
4.47988
4.18165
3.93128
3.72619
3.56018
3.42634
3.31759
3.22813
3.15335
3.0889
3.03398
2.98486
2.94441
2.91255
2.90414
2.90842
2.92564
2.97237
3.08018
3.3075
3.76281
4.11173
4.19468
4.17557
4.1104
3.9648
3.76118
3.58757
3.45619
3.36477
3.30939
3.28584
3.28844
3.30218
3.33137
3.38069
3.45923
3.56306
3.67065
3.77021
3.85485
3.9221
3.97333
4.01123
4.03953
4.06025
4.07601
4.0877
4.09648
4.10283
4.10752
4.11108
4.1117
4.11127
4.10985
4.1068
4.1035
4.10133
4.09971
4.09773
4.09512
4.09144
4.08624
4.07847
4.06794
4.05366
4.03635
4.01629
3.99328
3.9674
3.9391
3.90875
3.87698
3.84421
3.81109
3.77792
3.74524
3.71323
3.68227
3.65245
3.62398
3.59677
3.57085
3.54594
3.52184
3.49811
3.47444
3.45036
3.42562
3.39989
3.37313
3.34531
3.31669
3.28808
3.25996
3.23784
6.05581
5.66427
5.28101
4.91743
4.58436
4.28889
4.03408
3.81948
3.64184
3.49632
3.3772
3.27909
3.1975
3.12831
3.0699
3.01986
2.9804
2.95904
2.96113
2.97312
3.0094
3.09785
3.29217
3.69657
4.26702
4.53863
4.53551
4.49581
4.38727
4.16638
3.94206
3.7548
3.60573
3.49036
3.40469
3.34604
3.31002
3.30334
3.30874
3.32421
3.35767
3.41228
3.49842
3.59697
3.69584
3.78446
3.85773
3.91454
3.95716
3.98847
4.01182
4.02953
4.04338
4.05509
4.06511
4.07406
4.08153
4.08782
4.09288
4.09595
4.09818
4.10008
4.10144
4.10113
4.10006
4.09755
4.09243
4.08339
4.07053
4.05425
4.03454
4.01128
3.98474
3.9552
3.92321
3.88919
3.85385
3.81761
3.78114
3.74475
3.70897
3.67397
3.64016
3.6076
3.57656
3.54702
3.51909
3.49259
3.46745
3.44326
3.41994
3.397
3.37419
3.35107
3.32745
3.3031
3.27802
3.2529
3.22753
3.20843
6.0735
5.70476
5.34495
5.00037
4.67933
4.38897
4.13266
3.91178
3.72507
3.56923
3.44017
3.33334
3.24462
3.1704
3.10855
3.05898
3.0225
3.02037
3.02745
3.05399
3.12356
3.28132
3.61235
4.2754
4.77115
4.88773
4.86295
4.7802
4.59763
4.34596
4.1196
3.92862
3.76943
3.63753
3.52951
3.44334
3.37765
3.33315
3.3078
3.30878
3.31397
3.33094
3.36798
3.43188
3.52008
3.61516
3.70646
3.78612
3.85071
3.90022
3.93718
3.96489
3.98655
4.00468
4.02084
4.03578
4.04987
4.06285
4.07452
4.08425
4.09223
4.09826
4.10265
4.10249
4.10166
4.09947
4.0946
4.08473
4.0702
4.0513
4.02843
4.0018
3.97189
3.93908
3.90401
3.86708
3.82899
3.7901
3.75105
3.7121
3.67378
3.63624
3.59988
3.56477
3.53123
3.49923
3.469
3.44042
3.41353
3.38801
3.36406
3.34127
3.31943
3.29809
3.27694
3.25565
3.2339
3.2124
3.19
3.17459
6.09626
5.7448
5.40409
5.07613
4.76709
4.48247
4.22695
4.00229
3.80856
3.644
3.50579
3.39053
3.29475
3.21539
3.15162
3.10248
3.08338
3.08798
3.10805
3.16405
3.29581
3.58061
4.16842
4.88655
5.18908
5.18299
5.13451
5.00887
4.75756
4.51021
4.29214
4.10296
3.93853
3.79527
3.6708
3.56404
3.47454
3.40209
3.34748
3.31125
3.29855
3.29875
3.30458
3.32495
3.36909
3.44261
3.53148
3.62446
3.71062
3.78384
3.84224
3.88722
3.92209
3.95026
3.97442
3.99633
4.01697
4.03644
4.0547
4.07045
4.084
4.09377
4.10136
4.1017
4.10082
4.09834
4.09266
4.08124
4.06419
4.04244
4.01655
3.98693
3.95421
3.91882
3.8814
3.84235
3.80229
3.76152
3.72061
3.67978
3.63951
3.59992
3.56143
3.52408
3.48822
3.45385
3.42124
3.39035
3.36126
3.33391
3.30861
3.2851
3.26326
3.24267
3.22301
3.20394
3.1849
3.16672
3.14717
3.13578
6.13189
5.78771
5.4606
5.14613
4.84747
4.56962
4.31621
4.0897
3.89097
3.71944
3.57331
3.45036
3.348
3.26433
3.20012
3.15833
3.15971
3.17299
3.21613
3.32367
3.56261
4.06299
4.89128
5.38356
5.46843
5.43952
5.3489
5.15458
4.90041
4.66689
4.45982
4.27468
4.1076
3.95628
3.81967
3.6974
3.58934
3.49594
3.41785
3.35542
3.31005
3.28718
3.27638
3.27733
3.28665
3.3132
3.3681
3.45012
3.54144
3.63288
3.71535
3.78479
3.84104
3.88608
3.92285
3.95417
3.98227
4.00818
4.03218
4.05373
4.07194
4.08504
4.09516
4.09564
4.09454
4.09136
4.08435
4.07035
4.05092
4.02669
3.99837
3.96648
3.93171
3.89449
3.85547
3.815
3.77363
3.73163
3.68949
3.64738
3.60572
3.56461
3.52445
3.48526
3.44742
3.41092
3.3761
3.34285
3.31149
3.2822
3.25523
3.23042
3.20775
3.18691
3.16764
3.14969
3.13236
3.11677
3.09955
3.09213
6.18631
5.83469
5.51505
5.21134
4.92224
4.65077
4.40045
4.17381
3.97171
3.79492
3.64222
3.51279
3.40485
3.31938
3.25638
3.24073
3.24921
3.28232
3.37011
3.5701
3.99103
4.83631
5.50738
5.71179
5.69775
5.63828
5.49823
5.26204
5.02911
4.81595
4.62096
4.44028
4.27193
4.11499
3.96953
3.83574
3.71399
3.60469
3.5083
3.42555
3.35716
3.30512
3.2708
3.2557
3.2474
3.251
3.26694
3.30322
3.3714
3.46027
3.55517
3.64792
3.73094
3.80082
3.85771
3.90412
3.94304
3.97672
4.00648
4.03243
4.05478
4.07048
4.08201
4.08222
4.08094
4.07715
4.06886
4.05237
4.03054
4.00419
3.97402
3.94057
3.90448
3.86616
3.82621
3.78493
3.74286
3.70019
3.65737
3.61449
3.57197
3.52984
3.48849
3.44791
3.40849
3.37021
3.33343
3.29812
3.26488
3.23378
3.20508
3.17865
3.15457
3.13266
3.11277
3.09485
3.07811
3.06414
3.04846
3.04445
6.24721
5.88691
5.56822
5.27228
4.99165
4.72698
4.4803
4.2546
4.05073
3.87016
3.71259
3.57808
3.46726
3.38222
3.3369
3.34127
3.36564
3.43744
3.6087
3.97813
4.73501
5.55391
5.90712
5.91302
5.88036
5.786
5.59006
5.36383
5.15344
4.95833
4.7738
4.59748
4.42884
4.26825
4.11653
3.97437
3.84242
3.72118
3.61107
3.51283
3.42694
3.35441
3.29679
3.25451
3.2328
3.21905
3.21988
3.22893
3.25347
3.30391
3.38363
3.48211
3.58465
3.68061
3.76426
3.83401
3.89095
3.93708
3.97483
4.00561
4.03063
4.04861
4.06038
4.06016
4.0586
4.0543
4.04494
4.02654
4.00289
3.975
3.94364
3.9093
3.87256
3.8338
3.79354
3.75205
3.70981
3.66697
3.62394
3.58077
3.53783
3.49513
3.45301
3.41147
3.37089
3.33124
3.29297
3.25631
3.2217
3.1891
3.15877
3.13063
3.10485
3.08136
3.06017
3.04144
3.02434
3.01099
2.99606
2.99451
6.35863
5.96192
5.62726
5.33275
5.05842
4.79974
4.55718
4.33295
4.12873
3.94528
3.78491
3.64745
3.53849
3.45892
3.45365
3.46902
3.52556
3.67031
3.99223
4.6619
5.56246
6.03805
6.11376
6.09014
6.01734
5.86234
5.65989
5.4622
5.27489
5.09452
4.91832
4.74561
4.57731
4.41446
4.25844
4.11026
3.97075
3.84068
3.7204
3.61055
3.51152
3.42398
3.34884
3.28722
3.24044
3.21101
3.19737
3.19452
3.20008
3.21725
3.25468
3.32209
3.41903
3.52514
3.63088
3.72751
3.81007
3.87677
3.92889
3.96842
3.99763
4.01782
4.02935
4.0289
4.02683
4.02171
4.0114
3.99198
3.96749
3.93907
3.90737
3.87286
3.8361
3.79747
3.75744
3.71626
3.67432
3.63177
3.58894
3.54588
3.50289
3.45998
3.41748
3.37538
3.33404
3.29366
3.25477
3.21739
3.18184
3.14804
3.11629
3.08654
3.05908
3.03391
3.01116
2.99117
2.97316
2.95965
2.94491
2.94469
6.40172
6.03895
5.69419
5.39526
5.12429
4.87015
4.63168
4.40947
4.2057
4.02205
3.86031
3.72496
3.62125
3.58096
3.5918
3.63744
3.76081
4.04239
4.63401
5.56827
6.14581
6.28272
6.2682
6.21506
6.09465
5.91293
5.73343
5.56174
5.39282
5.22369
5.05382
4.88419
4.71656
4.55252
4.39381
4.24151
4.09679
3.96023
3.83253
3.71402
3.60526
3.50664
3.41889
3.34275
3.27922
3.22991
3.19545
3.17989
3.17789
3.18202
3.19527
3.22506
3.27944
3.36574
3.47089
3.58122
3.68617
3.7777
3.85201
3.90824
3.94815
3.9737
3.98781
3.98736
3.98521
3.97967
3.96842
3.94875
3.92446
3.89648
3.86531
3.83137
3.79522
3.75726
3.71793
3.67749
3.63625
3.59436
3.55207
3.50944
3.4667
3.4239
3.38131
3.3391
3.29781
3.25753
3.21857
3.18086
3.14469
3.11002
3.07718
3.04617
3.01731
2.99071
2.96653
2.94531
2.92628
2.91224
2.89757
2.89771
6.38163
6.15941
5.78757
5.4682
5.19211
4.93991
4.70446
4.48495
4.28261
4.10027
3.94179
3.81526
3.73884
3.74391
3.77815
3.88255
4.13089
4.65812
5.5944
6.23711
6.43236
6.42491
6.3866
6.29305
6.13147
5.96919
5.81467
5.66201
5.50595
5.34502
5.18013
5.01331
4.84677
4.6825
4.52231
4.36746
4.21912
4.07805
3.94488
3.82015
3.70423
3.59764
3.50078
3.41432
3.33891
3.27556
3.22539
3.18951
3.17107
3.17143
3.17533
3.18618
3.20973
3.25677
3.32812
3.42393
3.52965
3.6345
3.72933
3.80757
3.86635
3.9057
3.9289
3.93366
3.9321
3.92732
3.91695
3.89821
3.87461
3.84744
3.81729
3.78455
3.74967
3.713
3.67491
3.63562
3.59545
3.55451
3.51304
3.47107
3.42882
3.38641
3.34438
3.30291
3.26227
3.22245
3.18368
3.14593
3.1095
3.07437
3.04089
3.0091
2.97936
2.95181
2.92668
2.90458
2.88488
2.8704
2.85613
2.85637
6.32216
6.18621
5.89305
5.55401
5.26527
5.0108
4.77714
4.56025
4.36131
4.18346
4.03719
3.92875
3.92428
3.94919
4.03889
4.26328
4.74455
5.66048
6.34122
6.58433
6.57905
6.54669
6.46603
6.32038
6.17437
6.03703
5.90168
5.76173
5.61403
5.45876
5.29767
5.13339
4.96823
4.80443
4.64371
4.48748
4.33691
4.19285
4.05595
3.92688
3.80593
3.69374
3.59053
3.49695
3.41337
3.34055
3.27916
3.23005
3.19497
3.17315
3.17277
3.17594
3.18566
3.20587
3.24165
3.29927
3.37959
3.47234
3.56917
3.66066
3.73864
3.79848
3.8389
3.86081
3.86293
3.86091
3.85476
3.84143
3.81939
3.79295
3.76376
3.73241
3.69926
3.66441
3.62807
3.59038
3.55163
3.51194
3.47148
3.43036
3.38902
3.3478
3.30697
3.26656
3.22677
3.18761
3.14929
3.11185
3.07556
3.04047
3.0069
2.97493
2.94493
2.91708
2.89169
2.86936
2.84978
2.83532
2.8226
2.82298
6.2237
6.15983
5.9857
5.6494
5.34606
5.08489
4.85096
4.63737
4.44459
4.2804
4.15497
4.12409
4.14622
4.22984
4.44386
4.90516
5.79291
6.47548
6.73587
6.73145
6.70055
6.62274
6.48383
6.35129
6.2314
6.11471
5.99239
5.86017
5.7174
5.56563
5.4073
5.24515
5.08155
4.91865
4.75816
4.60145
4.44978
4.30394
4.16479
4.03287
3.90873
3.79282
3.68553
3.58729
3.49844
3.41944
3.35076
3.29267
3.2463
3.2115
3.18995
3.18221
3.18358
3.18963
3.20303
3.22832
3.27007
3.33018
3.40543
3.48814
3.57063
3.64564
3.70659
3.74962
3.77344
3.77793
3.7762
3.7703
3.75712
3.73363
3.70598
3.67603
3.64454
3.61156
3.57718
3.54142
3.50446
3.46625
3.42712
3.38751
3.34783
3.30817
3.26872
3.22953
3.19078
3.15251
3.11498
3.07823
3.04254
3.00798
2.97488
2.94336
2.91379
2.88641
2.86161
2.83998
2.82159
2.80819
2.79865
2.7993
6.07307
6.07032
5.98282
5.77052
5.44723
5.16831
4.9297
4.72013
4.54153
4.40226
4.35375
4.37377
4.45543
4.66945
5.13291
6.00768
6.67007
6.91549
6.908
6.8675
6.77247
6.62685
6.50191
6.39799
6.30096
6.19838
6.0837
5.95556
5.81535
5.66571
5.50939
5.34916
5.18719
5.02559
4.86587
4.70952
4.5576
4.41113
4.27089
4.13756
4.01169
3.89378
3.78423
3.68337
3.59149
3.50884
3.43547
3.37174
3.31743
3.27283
3.23785
3.21339
3.19736
3.19109
3.19223
3.19594
3.20592
3.22805
3.27127
3.32573
3.39154
3.46424
3.53499
3.59634
3.64278
3.67087
3.68164
3.68071
3.67628
3.66547
3.6435
3.6167
3.58676
3.55515
3.52238
3.48851
3.45344
3.4171
3.38008
3.34258
3.3048
3.26686
3.22894
3.19115
3.15369
3.11666
3.08029
3.04467
3.01007
2.97659
2.94456
2.91416
2.8858
2.85979
2.8366
2.81686
2.80106
2.79044
2.78555
2.78651
5.67905
5.97152
5.94033
5.81742
5.55588
5.26275
5.01793
4.81872
4.66583
4.60713
4.62742
4.71327
4.93966
5.42964
6.30784
6.9389
7.14349
7.12725
7.06287
6.92263
6.75809
6.6341
6.54128
6.46138
6.3784
6.283
6.17186
6.04573
5.90713
5.75914
5.60465
5.4462
5.28602
5.12587
4.96743
4.81191
4.66062
4.51438
4.37421
4.24066
4.11448
3.99602
3.88584
3.78402
3.69091
3.60635
3.53048
3.46274
3.40295
3.3507
3.3056
3.26772
3.23636
3.21228
3.19256
3.18416
3.17498
3.176
3.18232
3.19918
3.23446
3.28659
3.34694
3.41172
3.47253
3.52248
3.55664
3.57588
3.57728
3.57513
3.56782
3.55198
3.52579
3.49616
3.4646
3.43216
3.3987
3.36481
3.33031
3.2952
3.25957
3.22358
3.18745
3.15135
3.11551
3.08006
3.04524
3.01118
2.97814
2.94628
2.91597
2.88745
2.86117
2.83759
2.81725
2.80097
2.78922
2.78356
2.78396
2.78621
4.78281
5.74849
5.84984
5.79817
5.65682
5.37369
5.12894
4.94772
4.88074
4.90374
5.00046
5.25286
5.7958
6.69237
7.28396
7.42829
7.39892
7.30115
7.0988
6.9072
6.76822
6.67372
6.60196
6.5336
6.45583
6.36273
6.25309
6.12852
5.99169
5.84568
5.69321
5.53681
5.37852
5.22017
5.06332
4.90926
4.75926
4.61419
4.47508
4.34251
4.21726
4.09964
3.99015
3.88877
3.79569
3.71051
3.633
3.5624
3.49815
3.43947
3.38577
3.33667
3.29191
3.25153
3.21578
3.18439
3.16273
3.14122
3.12333
3.124
3.12919
3.14384
3.17513
3.22459
3.28097
3.33989
3.3929
3.43425
3.46008
3.47104
3.47023
3.46599
3.45525
3.4332
3.40455
3.37364
3.34192
3.30988
3.27754
3.24475
3.21149
3.17781
3.14389
3.10991
3.07609
3.04265
3.0098
2.97778
2.94683
2.91726
2.8894
2.86366
2.84057
2.82069
2.80479
2.79392
2.78796
2.78823
2.79012
2.79617
3.12474
5.21063
5.72932
5.73328
5.67438
5.52404
5.28855
5.18084
5.20625
5.31799
5.60975
6.23273
7.15907
7.70894
7.77493
7.7269
7.58727
7.31181
7.08576
6.92321
6.81401
6.73848
6.67402
6.60687
6.52808
6.4344
6.3255
6.2028
6.0685
5.92521
5.77541
5.62148
5.46551
5.30932
5.15455
5.00253
4.85452
4.71149
4.57441
4.44392
4.32073
4.20512
4.0974
3.99746
3.90518
3.81996
3.74118
3.66786
3.59924
3.5343
3.47253
3.4133
3.35666
3.30259
3.25165
3.20437
3.16173
3.12787
3.09351
3.06657
3.0504
3.05111
3.05633
3.07088
3.10186
3.15027
3.20463
3.25876
3.30542
3.33888
3.3591
3.36249
3.36071
3.35431
3.34003
3.31345
3.2842
3.2536
3.22265
3.19163
3.16057
3.12939
3.09806
3.06667
3.03539
3.00445
2.97411
2.9447
2.91652
2.88998
2.86552
2.84368
2.82519
2.81059
2.80153
2.7967
2.79725
2.80023
2.8083
2.827
2.25845