/*--------------------------------*- C++ -*----------------------------------*\
  =========                 |
  \\      /  F ield         | OpenFOAM: The Open Source CFD Toolbox
   \\    /   O peration     | Website:  https://openfoam.org
    \\  /    A nd           | Version:  13
     \\/     M anipulation  |
\*---------------------------------------------------------------------------*/
FoamFile
{
    format      ascii;
    class       surfaceScalarField;
    location    "5.5";
    object      phi;
}
// * * * * * * * * * * * * * * * * * * * * * * * * * * * * * * * * * * * * * //

dimensions      [1 0 -1 0 0 0 0];

internalField   nonuniform List<scalar> 
10325
(
0.00840003
2.21871e-10
0.00840004
1.42718e-10
0.00840002
3.63599e-09
0.00840002
1.43686e-09
0.00839993
2.62741e-08
0.00840016
9.63913e-09
0.00839903
1.66582e-07
0.00840135
4.46546e-08
0.00839505
9.12966e-07
0.00840325
7.04904e-07
0.00838764
4.26327e-06
0.00838874
8.72468e-06
0.00834834
3.10526e-05
0.00823789
0.000112418
0.00765259
0.000574439
0.0069897
0.000664332
0.0063606
0.000629465
0.0057109
0.000649094
0.00502987
0.000680339
0.00430884
0.000720116
0.00353918
0.000768858
0.00272105
0.000817364
0.00185937
0.000860834
0.000953823
0.000904839
0.000953123
0.00840003
7.40747e-11
0.00840001
1.59368e-09
0.00840007
2.25218e-09
0.00839992
1.50929e-08
0.00840029
1.79269e-08
0.00839922
9.02607e-08
0.00840173
1.3418e-07
0.00839551
5.05807e-07
0.00840778
9.61717e-07
0.008384
2.86806e-06
0.00841048
6.81612e-06
0.00836951
1.97537e-05
0.0083604
6.18861e-05
0.00823225
0.000226107
0.00766216
0.00113628
0.00698446
0.00134384
0.00636355
0.00125088
0.00572332
0.00128872
0.00504678
0.00135616
0.00431835
0.00144763
0.00353966
0.00154674
0.00271306
0.00164319
0.00183974
0.0017333
0.000927663
0.0018162
0.00188008
0.00840003
2.25366e-10
0.00840005
1.66539e-09
0.00839997
5.16131e-09
0.00840018
1.65217e-08
0.00839968
3.76043e-08
0.00840082
1.145e-07
0.00839818
2.21544e-07
0.0084034
7.36206e-07
0.0083925
1.35451e-06
0.00840821
4.41455e-06
0.00838119
9.78056e-06
0.00839624
2.96887e-05
0.00834773
9.01737e-05
0.00824931
0.000330713
0.00773563
0.00163796
0.00704667
0.00203425
0.00642401
0.00187401
0.00578866
0.00192346
0.0051165
0.00202758
0.00438652
0.00217674
0.00360111
0.00233124
0.00276439
0.00247914
0.00187538
0.00262138
0.000944041
0.00274679
0.00282344
0.00840003
3.2313e-10
0.00840004
1.84424e-09
0.00840002
6.9817e-09
0.00840002
1.81691e-08
0.00839995
5.17814e-08
0.00840018
1.24871e-07
0.00839906
3.27954e-07
0.00840159
7.9641e-07
0.00839499
2.01818e-06
0.00840452
5.07457e-06
0.00838767
1.31999e-05
0.0083931
3.67063e-05
0.00835738
0.000114449
0.00827975
0.000411785
0.00788662
0.00201928
0.00719158
0.00273078
0.00655663
0.00250947
0.0059197
0.0025598
0.00524964
0.00269683
0.00451912
0.00290623
0.00372852
0.0031212
0.00287742
0.00332929
0.00196536
0.00353248
0.000995718
0.00371563
0.00381836
0.00840003
4.36783e-10
0.00840003
2.01748e-09
0.00840005
8.50501e-09
0.00839999
1.93583e-08
0.00840004
6.42647e-08
0.0084
1.2344e-07
0.0083996
4.23835e-07
0.0084005
7.55346e-07
0.00839755
2.61963e-06
0.00840115
5.1273e-06
0.00839434
1.58902e-05
0.00839292
4.03742e-05
0.00837506
0.000129383
0.00833047
0.000455959
0.00815024
0.00218842
0.00745003
0.00343238
0.00678013
0.0031799
0.00613011
0.0032092
0.00545684
0.00336934
0.0047248
0.00363725
0.00392558
0.00391943
0.00305682
0.00419692
0.00210799
0.00448051
0.00108031
0.0047424
0.00489769
0.00840003
3.82154e-10
0.00840004
2.07811e-09
0.0084
8.16561e-09
0.00840008
2.0838e-08
0.00839995
5.94545e-08
0.00840008
1.45534e-07
0.00839996
3.64422e-07
0.00839955
9.29371e-07
0.00840045
2.235e-06
0.00839882
5.85227e-06
0.00839992
1.47602e-05
0.00840068
4.10665e-05
0.00840332
0.00012417
0.00842229
0.000434859
0.00861603
0.00198521
0.00790167
0.00414715
0.0071376
0.00394449
0.00645289
0.00389336
0.00576348
0.00405796
0.00502651
0.00437319
0.00421229
0.00473238
0.00331573
0.00509282
0.00232111
0.00547396
0.00121118
0.00585115
0.00610802
0.00840003
2.90782e-10
0.00840002
2.28422e-09
0.00840006
6.55158e-09
0.00839997
2.22471e-08
0.00840021
4.93415e-08
0.00839955
1.44909e-07
0.00840124
3.20284e-07
0.00839739
8.6628e-07
0.00840616
2.04264e-06
0.00839094
5.1716e-06
0.00841571
1.31002e-05
0.00839583
3.50686e-05
0.00843714
0.000103497
0.00851057
0.000347698
0.00898742
0.00150643
0.00839948
0.00473185
0.00753571
0.00480725
0.00683017
0.00459783
0.00614667
0.00474046
0.00540993
0.00510862
0.00458694
0.00555425
0.00366491
0.0060138
0.00262061
0.00651657
0.00141203
0.0070584
0.00751911
0.00840003
3.27051e-10
0.00840004
1.92785e-09
0.0084
7.18495e-09
0.00840012
1.87024e-08
0.00839985
5.26725e-08
0.00840052
1.25401e-07
0.00839914
3.16898e-07
0.00840189
8.05305e-07
0.00839692
1.85496e-06
0.00840577
5.0452e-06
0.00839332
1.18361e-05
0.00841237
3.29906e-05
0.00840584
9.39767e-05
0.00844627
0.000313854
0.00862271
0.00132453
0.00833616
0.00501229
0.00764693
0.00549395
0.00708923
0.00515428
0.0064694
0.00535919
0.00579112
0.00578532
0.0050029
0.00634102
0.00409263
0.00692236
0.00302552
0.00758221
0.00172366
0.00835924
0.00924162
0.00840003
2.56714e-10
0.00840002
2.18097e-09
0.00840008
5.99917e-09
0.00839993
2.12181e-08
0.00840028
4.54128e-08
0.00839951
1.37893e-07
0.00840134
2.91191e-07
0.00839739
8.28925e-07
0.00840566
1.83281e-06
0.00839075
4.95486e-06
0.00841329
1.18962e-05
0.00838583
3.24134e-05
0.00841208
9.2295e-05
0.00840766
0.000303843
0.008504
0.00122823
0.00819225
0.00531662
0.00791435
0.0057703
0.0073242
0.00574328
0.00671987
0.00596215
0.00613564
0.00636807
0.00544072
0.00703437
0.00461065
0.00775094
0.00361799
0.00857311
0.00223979
0.00973579
0.0114798
0.00840003
3.18898e-10
0.00840003
1.99912e-09
0.00840003
6.89333e-09
0.00840002
1.95018e-08
0.00840003
5.10721e-08
0.00840003
1.28608e-07
0.00839981
3.23365e-07
0.00840045
7.95045e-07
0.00839832
1.98575e-06
0.00840232
4.91289e-06
0.00839558
1.24586e-05
0.00840186
3.26957e-05
0.00839495
9.32606e-05
0.00840222
0.000301561
0.00845542
0.00116846
0.00829543
0.00546912
0.00788552
0.00617906
0.00745942
0.00616837
0.00700611
0.00641393
0.00649769
0.00687498
0.00594662
0.00758368
0.00530597
0.00838978
0.00441508
0.00946196
0.00310822
0.01104
0.0145861
0.00840003
3.47164e-10
0.00840003
1.96156e-09
0.00840003
7.40427e-09
0.00840003
1.92848e-08
0.00840001
5.41721e-08
0.0084001
1.30518e-07
0.00839961
3.37931e-07
0.00840096
8.18302e-07
0.00839723
2.06453e-06
0.00840444
5.09508e-06
0.00839203
1.28668e-05
0.00840563
3.36686e-05
0.00838998
9.46726e-05
0.00840089
0.000301571
0.00843454
0.00112537
0.00847698
0.0054194
0.00805535
0.00659985
0.00763514
0.00658768
0.00729302
0.00675474
0.00691468
0.00725145
0.00654966
0.00794638
0.00611276
0.00882411
0.00569093
0.00988109
0.00563986
0.0110885
0.0115013
0.00871985
0.00840003
3.64241e-10
0.00840003
1.9499e-09
0.00840005
7.45483e-09
0.0084
1.90521e-08
0.00840009
5.58816e-08
0.00839994
1.2518e-07
0.00840002
3.61778e-07
0.0084001
7.65213e-07
0.00839921
2.23497e-06
0.00840083
4.79867e-06
0.00839815
1.36349e-05
0.00839992
3.2902e-05
0.00839977
9.49809e-05
0.00840892
0.000292244
0.00846839
0.00106159
0.00887156
0.00500805
0.00841493
0.0070558
0.00794866
0.00705322
0.00760234
0.0070989
0.00731412
0.00753815
0.00705357
0.00820518
0.0068498
0.00902555
0.00679466
0.00993304
0.0072105
0.0106677
0.0105246
0.00817999
0.00840003
2.92677e-10
0.00840003
1.99716e-09
0.00840003
6.42356e-09
0.00840004
1.93476e-08
0.00840003
4.80473e-08
0.00840001
1.27736e-07
0.00840018
3.07671e-07
0.00839951
7.92306e-07
0.0084015
1.91808e-06
0.00839726
4.89023e-06
0.00840616
1.21463e-05
0.00839741
3.15381e-05
0.00841572
8.60556e-05
0.00843742
0.000261862
0.00858573
0.000916087
0.00959499
0.00398818
0.00902518
0.00762414
0.00843469
0.00764219
0.00804873
0.00748431
0.00778088
0.00780348
0.00759632
0.00838697
0.0075547
0.0090644
0.0077587
0.00972606
0.00825861
0.0101633
0.00992937
0.00884391
0.00840003
2.49883e-10
0.00840004
1.57045e-09
0.00840002
5.56814e-09
0.00840006
1.543e-08
0.0084
4.11762e-08
0.00840013
1.03858e-07
0.00840005
2.53705e-07
0.00840011
6.48304e-07
0.00840099
1.51929e-06
0.00840002
3.98279e-06
0.00840635
9.3594e-06
0.0084081
2.47214e-05
0.0084347
6.37596e-05
0.00850574
0.000186731
0.00881263
0.00061139
0.0103008
0.00249279
0.00975558
0.00816495
0.00925849
0.00813575
0.00865778
0.00808394
0.00833426
0.00812549
0.00819696
0.00852151
0.00822522
0.00903189
0.00846812
0.0094777
0.00889938
0.00972845
0.00946638
0.00935399
0.00840003
2.22491e-10
0.00840003
1.38266e-09
0.00840005
4.73834e-09
0.0084
1.34657e-08
0.00840013
3.50235e-08
0.00839985
8.80844e-08
0.00840061
2.21279e-07
0.00839909
5.33549e-07
0.0084031
1.3586e-06
0.00839584
3.19952e-06
0.00841182
8.28823e-06
0.00839352
1.99968e-05
0.00843136
5.35289e-05
0.00844156
0.000149059
0.0085894
0.000481137
0.00920697
0.00186304
0.00989098
0.00747325
0.00955611
0.00846793
0.00911251
0.00852499
0.00883434
0.00840277
0.0087333
0.00861843
0.00878151
0.00898105
0.00899699
0.00925709
0.00936439
0.00935493
0.00909359
0.00973118
0.00840003
1.74841e-10
0.00840003
1.24615e-09
0.00840003
3.95399e-09
0.00840004
1.21934e-08
0.00840003
2.92434e-08
0.00840003
8.11274e-08
0.00840014
1.81281e-07
0.00839974
5.05126e-07
0.0084013
1.10096e-06
0.00839776
3.08141e-06
0.00840696
6.83082e-06
0.00839488
1.87468e-05
0.00841984
4.58803e-05
0.00841969
0.00013097
0.00851025
0.000405069
0.00887301
0.00148761
0.00985296
0.0064857
0.00971911
0.00859967
0.00949122
0.00874989
0.00924871
0.00864458
0.009173
0.00869052
0.00923978
0.00891017
0.00941783
0.00907483
0.00970792
0.00905874
0.0087864
0.0100069
0.00840003
1.66534e-10
0.00840003
1.04249e-09
0.00840004
3.55679e-09
0.00840002
1.01319e-08
0.00840006
2.66722e-08
0.00840002
6.61649e-08
0.00840007
1.72095e-07
0.0084002
4.02503e-07
0.00839977
1.06927e-06
0.00840165
2.45017e-06
0.00839863
6.60339e-06
0.00840747
1.55228e-05
0.00840407
4.1885e-05
0.0084298
0.000111387
0.00848732
0.000341219
0.0087835
0.00119243
0.0103137
0.00494402
0.0101666
0.00874391
0.00991278
0.00900093
0.00964429
0.00891158
0.00956227
0.00876916
0.00962289
0.00884685
0.00976807
0.0089237
0.00998241
0.00883905
0.00854882
0.0102122
0.00840003
1.29261e-10
0.00840004
8.11635e-10
0.00840003
2.82161e-09
0.00840005
7.94628e-09
0.0084
2.08813e-08
0.00840015
5.2685e-08
0.0083999
1.30123e-07
0.00840065
3.22615e-07
0.0083995
7.87949e-07
0.0084029
1.94752e-06
0.00839907
4.76412e-06
0.00841256
1.18509e-05
0.00840907
2.97554e-05
0.00846159
7.82939e-05
0.00855977
0.000223533
0.00903475
0.000726413
0.0111407
0.00282989
0.0108851
0.00899204
0.0106294
0.00925359
0.0102485
0.00929024
0.0100191
0.0089948
0.00999679
0.00886809
0.010088
0.00882653
0.010231
0.00868929
0.00838347
0.0103895
0.00840003
1.07186e-10
0.00840003
6.30819e-10
0.00840003
2.32309e-09
0.00840005
6.15798e-09
0.00840001
1.70431e-08
0.00840013
4.11829e-08
0.00839992
1.04604e-07
0.00840053
2.55973e-07
0.00839953
6.19667e-07
0.00840248
1.56472e-06
0.0083982
3.67151e-06
0.00841036
9.55422e-06
0.00840128
2.27807e-05
0.00843952
6.07056e-05
0.00847457
0.000165731
0.0086907
0.000524453
0.00954516
0.00196447
0.0109632
0.00756365
0.0108818
0.00933127
0.0106644
0.00950432
0.0104145
0.00924074
0.0103357
0.00894539
0.0103765
0.00878156
0.0104643
0.00859402
0.00828084
0.0105605
0.00840003
8.30569e-11
0.00840003
5.22155e-10
0.00840004
1.79946e-09
0.00840003
5.08854e-09
0.00840006
1.33982e-08
0.0084
3.3484e-08
0.00840018
8.46592e-08
0.00839989
2.04873e-07
0.00840068
5.15502e-07
0.00839967
1.24297e-06
0.00840237
3.13868e-06
0.00840033
7.61004e-06
0.0084101
1.93758e-05
0.00841134
4.91227e-05
0.00845455
0.000134454
0.00856153
0.000406268
0.00908662
0.00144044
0.0109703
0.00566582
0.0110998
0.00919897
0.0110081
0.00959336
0.0107717
0.00947335
0.0106478
0.00906704
0.0106364
0.00878942
0.0106808
0.00854274
0.00822382
0.0107313
0.00840003
6.33429e-11
0.00840003
3.97141e-10
0.00840004
1.36733e-09
0.00840003
3.87949e-09
0.00840006
1.0132e-08
0.0084
2.54781e-08
0.00840017
6.35176e-08
0.0083999
1.55125e-07
0.00840079
3.8559e-07
0.00839944
9.29349e-07
0.00840394
2.32964e-06
0.00839833
5.5996e-06
0.00841718
1.41719e-05
0.00840972
3.50732e-05
0.00847685
9.31061e-05
0.00859266
0.00026448
0.00917977
0.000864105
0.0115784
0.00324852
0.0116468
0.00912644
0.0115503
0.00968834
0.0113007
0.00972089
0.0110293
0.00933608
0.0109205
0.00889371
0.0109058
0.00855279
0.00820911
0.0109135
0.00840003
4.62035e-11
0.00840003
3.04059e-10
0.00840003
1.00827e-09
0.00840003
2.96333e-09
0.00840004
7.48718e-09
0.00840002
1.93397e-08
0.00840011
4.71139e-08
0.00839994
1.16979e-07
0.00840061
2.86432e-07
0.00839943
6.95615e-07
0.00840352
1.72641e-06
0.00839731
4.15571e-06
0.0084166
1.04529e-05
0.0083995
2.55651e-05
0.00846114
6.64926e-05
0.00850593
0.000181583
0.00883222
0.000564673
0.00999605
0.0020648
0.0117217
0.00739309
0.011794
0.00961313
0.0116284
0.00988362
0.0113527
0.00960852
0.0112209
0.00902169
0.0111442
0.0086242
0.00823863
0.0111094
0.00840003
3.40419e-11
0.00840003
2.2993e-10
0.00840003
7.55551e-10
0.00840004
2.23951e-09
0.00840003
5.6009e-09
0.00840004
1.47127e-08
0.00840005
3.50983e-08
0.00840005
8.98157e-08
0.00840027
2.13314e-07
0.00839985
5.38989e-07
0.00840186
1.29375e-06
0.00839878
3.23146e-06
0.0084102
7.90889e-06
0.00839907
1.97677e-05
0.00844016
5.01563e-05
0.00845811
0.000134509
0.00864834
0.000398194
0.0093133
0.00138102
0.0116877
0.00500784
0.011955
0.00934128
0.0120181
0.0098174
0.01185
0.0097733
0.0115339
0.00933352
0.0114033
0.00875015
0.00831281
0.0113238
0.00840003
2.49474e-11
0.00840003
1.61767e-10
0.00840003
5.5187e-10
0.00840004
1.5821e-09
0.00840003
4.06974e-09
0.00840005
1.046e-08
0.00840002
2.50948e-08
0.00840013
6.39807e-08
0.00840005
1.49779e-07
0.00840039
3.84475e-07
0.0084006
8.8834e-07
0.00840126
2.2997e-06
0.0084048
5.31626e-06
0.00840791
1.37748e-05
0.0084293
3.30792e-05
0.00847116
8.74857e-05
0.00863182
0.000240766
0.00924255
0.000763758
0.0115222
0.00272409
0.0124163
0.00843568
0.0123843
0.00984508
0.0121855
0.00996811
0.0118467
0.00966822
0.0116871
0.00890536
0.00843911
0.0115562
0.00840003
1.87831e-11
0.00840003
1.12922e-10
0.00840003
4.05097e-10
0.00840003
1.1019e-09
0.00840003
2.99161e-09
0.00840004
7.26126e-09
0.00840003
1.85296e-08
0.00840011
4.44597e-08
0.00839998
1.10399e-07
0.00840055
2.68694e-07
0.00839964
6.5426e-07
0.00840316
1.61635e-06
0.00839828
3.90147e-06
0.00841555
9.77621e-06
0.00840095
2.38217e-05
0.00846045
6.13511e-05
0.00849887
0.000163757
0.00879673
0.000494686
0.00975287
0.00174625
0.0121862
0.00598914
0.0124963
0.00952987
0.0125484
0.00991105
0.0123787
0.00983313
0.0120074
0.00927348
0.00863736
0.0118049
0.00840003
1.24622e-11
0.00840003
8.05049e-11
0.00840003
2.71001e-10
0.00840003
7.86362e-10
0.00840004
2.00253e-09
0.00840003
5.11977e-09
0.00840005
1.25798e-08
0.00840005
3.06423e-08
0.00840008
7.62138e-08
0.00840023
1.8065e-07
0.00840008
4.56728e-07
0.00840169
1.06554e-06
0.00839984
2.72661e-06
0.00841063
6.35249e-06
0.00840232
1.63702e-05
0.00845021
3.94454e-05
0.00847492
0.000104624
0.00870958
0.000290999
0.00948818
0.000940659
0.0122159
0.00324819
0.0128877
0.00885053
0.0129166
0.00987793
0.0127014
0.0100441
0.012351
0.00962045
0.00888551
0.0120993
0.00840003
8.83084e-12
0.00840003
5.41527e-11
0.00840003
1.91238e-10
0.00840003
5.27876e-10
0.00840003
1.40914e-09
0.00840004
3.46554e-09
0.00840003
8.73315e-09
0.00840007
2.1003e-08
0.00840001
5.22482e-08
0.00840027
1.24977e-07
0.00839997
3.09552e-07
0.00840133
7.43259e-07
0.00839997
1.8362e-06
0.00840641
4.42641e-06
0.00840312
1.09754e-05
0.00842978
2.69472e-05
0.00844382
6.87312e-05
0.00857429
0.000184641
0.00893349
0.000557468
0.0102405
0.00194691
0.0126902
0.00638103
0.0129599
0.00960304
0.0131026
0.00989696
0.0128304
0.00988925
0.00924672
0.0124668
0.00840003
6.09971e-12
0.00840003
3.6264e-11
0.00840003
1.30615e-10
0.00840003
3.54909e-10
0.00840003
9.58522e-10
0.00840004
2.33286e-09
0.00840003
5.91937e-09
0.00840006
1.41124e-08
0.00840003
3.52327e-08
0.00840018
8.40735e-08
0.00840006
2.07741e-07
0.00840066
5.0031e-07
0.00840075
1.21993e-06
0.00840249
2.98664e-06
0.008406
7.22327e-06
0.00841431
1.79694e-05
0.00843841
4.44344e-05
0.00850756
0.000116098
0.00873429
0.000326465
0.00961413
0.0010634
0.0124157
0.00355766
0.0132353
0.00877605
0.0133285
0.00980067
0.0131655
0.010049
0.00961699
0.0127929
0.00840003
3.77374e-12
0.00840003
2.5263e-11
0.00840003
8.42677e-11
0.00840003
2.46029e-10
0.00840003
6.20954e-10
0.00840004
1.60758e-09
0.00840003
3.82951e-09
0.00840004
9.73237e-09
0.00840005
2.27138e-08
0.00840007
5.78794e-08
0.00840018
1.34011e-07
0.00840014
3.41172e-07
0.00840119
7.94205e-07
0.0084003
2.00811e-06
0.00840741
4.7288e-06
0.00840314
1.18855e-05
0.00843704
2.88396e-05
0.00845267
7.36692e-05
0.00861081
0.000196806
0.00904963
0.00059397
0.0105954
0.00202134
0.0130383
0.00631374
0.013302
0.00953154
0.0135265
0.00982001
0.00984116
0.0132991
0.00840003
2.67087e-12
0.00840003
1.57469e-11
0.00840003
5.75846e-11
0.00840003
1.5348e-10
0.00840003
4.22068e-10
0.00840003
1.00714e-09
0.00840003
2.59024e-09
0.00840004
6.11155e-09
0.00840003
1.52564e-08
0.00840011
3.65006e-08
0.00840002
8.90387e-08
0.00840045
2.17025e-07
0.00840007
5.19024e-07
0.00840226
1.28648e-06
0.00840085
3.04218e-06
0.00841078
7.6373e-06
0.00841123
1.81483e-05
0.00845364
4.63076e-05
0.00851085
0.000117444
0.00879065
0.000332299
0.00972943
0.00106567
0.0125803
0.00344543
0.0135686
0.0085336
0.013628
0.00975639
0.00988092
0.0135846
0.00840003
1.62032e-12
0.00840003
1.06509e-11
0.00840003
3.53741e-11
0.00840003
1.0375e-10
0.00840003
2.61685e-10
0.00840003
6.70372e-10
0.00840004
1.63022e-09
0.00840003
3.99067e-09
0.00840005
9.79395e-09
0.00840005
2.32913e-08
0.00840008
5.83208e-08
0.0084002
1.35874e-07
0.00840015
3.45287e-07
0.00840132
7.95377e-07
0.00840036
2.03935e-06
0.00840815
4.70127e-06
0.00840322
1.20681e-05
0.00844163
2.85522e-05
0.00845231
7.40064e-05
0.00862888
0.000193892
0.00907151
0.000581549
0.0105943
0.00193937
0.0132471
0.00585542
0.0136712
0.0093256
0.00970818
0.01384
0.00840003
1.05861e-12
0.00840003
6.54056e-12
0.00840003
2.30488e-11
0.00840003
6.37944e-11
0.00840003
1.68912e-10
0.00840003
4.16688e-10
0.00840003
1.03094e-09
0.00840004
2.51754e-09
0.00840003
6.04383e-09
0.00840006
1.493e-08
0.00840005
3.51408e-08
0.00840016
8.77309e-08
0.00840019
2.04363e-07
0.00840058
5.14691e-07
0.00840136
1.18939e-06
0.00840253
3.01246e-06
0.00840896
6.98755e-06
0.00841599
1.77174e-05
0.00845286
4.25034e-05
0.00852879
0.000110524
0.00881198
0.000301737
0.00979154
0.00095097
0.0126504
0.00297334
0.0138864
0.00808081
0.00965712
0.0139335
0.00840003
6.66472e-13
0.00840003
4.11618e-12
0.00840003
1.43264e-11
0.00840003
4.01143e-11
0.00840003
1.05182e-10
0.00840003
2.59798e-10
0.00840003
6.51499e-10
0.00840003
1.53981e-09
0.00840004
3.88508e-09
0.00840005
8.97331e-09
0.00840004
2.28809e-08
0.00840013
5.23922e-08
0.00840005
1.33506e-07
0.00840065
3.07507e-07
0.00840006
7.76959e-07
0.00840373
1.81193e-06
0.00840067
4.52864e-06
0.00841941
1.07796e-05
0.00841283
2.68373e-05
0.00848969
6.65249e-05
0.00857305
0.000175545
0.00904783
0.000511747
0.0103027
0.00168709
0.013301
0.00506866
0.00895216
0.0139983
0.00840003
4.01738e-13
0.00840003
2.52607e-12
0.00840003
8.78447e-12
0.00840003
2.46152e-11
0.00840003
6.4463e-11
0.00840003
1.59487e-10
0.00840003
3.95427e-10
0.00840003
9.54738e-10
0.00840003
2.32058e-09
0.00840004
5.61887e-09
0.00840005
1.34674e-08
0.00840005
3.28748e-08
0.00840016
7.81058e-08
0.0084001
1.91708e-07
0.00840091
4.53406e-07
0.00840031
1.11551e-06
0.00840547
2.63975e-06
0.00840224
6.51086e-06
0.00842946
1.55346e-05
0.0084281
3.87888e-05
0.0085465
9.68775e-05
0.00875046
0.000263499
0.00966148
0.000801101
0.0122092
0.00250237
0.00712928
0.0140192
0.00840003
2.39737e-13
0.00840003
1.56466e-12
0.00840003
5.34104e-12
0.00840003
1.52318e-11
0.00840003
3.91334e-11
0.00840003
9.92935e-11
0.00840003
2.37729e-10
0.00840003
5.96166e-10
0.00840003
1.38741e-09
0.00840003
3.50583e-09
0.00840005
8.05991e-09
0.00840004
2.03906e-08
0.00840013
4.6957e-08
0.00840006
1.18099e-07
0.00840058
2.74335e-07
0.00840025
6.81291e-07
0.00840306
1.60984e-06
0.00840173
3.93752e-06
0.0084154
9.48916e-06
0.00841694
2.31475e-05
0.00847746
5.75484e-05
0.00856145
0.000148323
0.00896895
0.00042094
0.0100935
0.00135137
0.00405638
0.0131466
0.00840003
1.48456e-13
0.00840003
9.4688e-13
0.00840003
3.22149e-12
0.00840003
9.20154e-12
0.00840003
2.36494e-11
0.00840003
5.92347e-11
0.00840003
1.4569e-10
0.00840003
3.50148e-10
0.00840003
8.64022e-10
0.00840003
2.02448e-09
0.00840004
5.06648e-09
0.00840005
1.16883e-08
0.00840005
2.9513e-08
0.00840015
6.77386e-08
0.0084001
1.7102e-07
0.00840081
3.9481e-07
0.00840032
9.87411e-07
0.00840474
2.31012e-06
0.00840211
5.72383e-06
0.00842534
1.36286e-05
0.00842352
3.38313e-05
0.00852365
8.39247e-05
0.00867985
0.000223651
0.00939464
0.000660229
0.00207902
0.0113538
0.00840003
8.76915e-14
0.00840003
5.56433e-13
0.00840003
1.92611e-12
0.00840003
5.42504e-12
0.00840003
1.4067e-11
0.00840003
3.5265e-11
0.00840003
8.5181e-11
0.00840003
2.10597e-10
0.00840003
4.95592e-10
0.00840003
1.23142e-09
0.00840004
2.86211e-09
0.00840004
7.13455e-09
0.00840006
1.65313e-08
0.00840006
4.11408e-08
0.00840021
9.57721e-08
0.00840015
2.36113e-07
0.00840117
5.56471e-07
0.0084006
1.3522e-06
0.00840683
3.23868e-06
0.00840422
7.78819e-06
0.00843642
1.89946e-05
0.00844292
4.62035e-05
0.00859015
0.000117739
0.00888271
0.000320372
0.000987098
0.00999692
0.00840003
5.3981e-14
0.00840003
3.18948e-13
0.00840003
1.15921e-12
0.00840003
3.10968e-12
0.00840003
8.44691e-12
0.00840003
2.01344e-11
0.00840003
5.14777e-11
0.00840003
1.19416e-10
0.00840003
3.00194e-10
0.00840003
6.95716e-10
0.00840003
1.72719e-09
0.00840004
4.04998e-09
0.00840004
9.88874e-09
0.00840008
2.3574e-08
0.00840006
5.64838e-08
0.00840027
1.3727e-07
0.00840031
3.22409e-07
0.00840109
7.99236e-07
0.00840231
1.84644e-06
0.0084047
4.64234e-06
0.00841526
1.07134e-05
0.0084277
2.71789e-05
0.00849075
6.5046e-05
0.00862238
0.000171891
0.000484856
0.0091401
0.00840003
2.85486e-14
0.00840003
1.95103e-13
0.00840003
6.35442e-13
0.00840003
1.89534e-12
0.00840003
4.65825e-12
0.00840003
1.21519e-11
0.00840003
2.84965e-11
0.00840003
7.15112e-11
0.00840003
1.67543e-10
0.00840003
4.11234e-10
0.00840003
9.74774e-10
0.00840003
2.35046e-09
0.00840004
5.66588e-09
0.00840004
1.33991e-08
0.00840008
3.28699e-08
0.00840012
7.64598e-08
0.00840025
1.90266e-07
0.00840071
4.37615e-07
0.00840092
1.09629e-06
0.00840458
2.52426e-06
0.00840471
6.31342e-06
0.0084265
1.47356e-05
0.0084363
3.69762e-05
0.0085432
9.03961e-05
0.00024199
0.00875502
0.00840003
1.76016e-14
0.00840003
1.05191e-13
0.00840003
3.8089e-13
0.00840003
1.02444e-12
0.00840003
2.76917e-12
0.00840003
6.63986e-12
0.00840003
1.66695e-11
0.00840003
3.94987e-11
0.00840003
9.60077e-11
0.00840003
2.3037e-10
0.00840003
5.46814e-10
0.00840004
1.33272e-09
0.00840004
3.10987e-09
0.00840004
7.69e-09
0.00840006
1.76956e-08
0.00840007
4.40964e-08
0.00840022
1.0123e-07
0.00840021
2.51608e-07
0.00840128
5.80668e-07
0.00840089
1.4303e-06
0.00840754
3.34873e-06
0.00840566
8.15513e-06
0.00844082
1.9505e-05
0.00845067
4.77998e-05
0.000120347
0.00861666
0.00840003
9.41426e-15
0.00840003
6.03588e-14
0.00840003
2.06488e-13
0.00840003
5.8673e-13
0.00840003
1.50614e-12
0.00840003
3.76232e-12
0.00840003
9.14296e-12
0.00840003
2.20372e-11
0.00840003
5.31518e-11
0.00840003
1.26081e-10
0.00840003
3.05575e-10
0.00840003
7.18913e-10
0.00840003
1.74308e-09
0.00840004
4.10306e-09
0.00840004
9.92676e-09
0.00840008
2.34207e-08
0.00840007
5.63119e-08
0.00840034
1.33859e-07
0.00840023
3.19536e-07
0.00840175
7.64797e-07
0.00840143
1.81199e-06
0.00840918
4.38281e-06
0.00840986
1.03652e-05
0.00844659
2.54242e-05
6.17535e-05
0.00848121
0.00840003
5.1025e-15
0.00840003
3.24147e-14
0.00840003
1.10454e-13
0.00840003
3.1378e-13
0.00840003
8.02794e-13
0.00840003
2.00059e-12
0.00840003
4.86037e-12
0.00840003
1.1612e-11
0.00840003
2.81013e-11
0.00840003
6.59809e-11
0.00840003
1.60177e-10
0.00840003
3.72077e-10
0.00840003
9.08336e-10
0.00840004
2.09819e-09
0.00840004
5.11883e-09
0.00840006
1.1845e-08
0.00840006
2.86844e-08
0.0084002
6.69671e-08
0.00840015
1.60225e-07
0.00840107
3.77457e-07
0.0084007
8.94763e-07
0.00840593
2.12833e-06
0.00840466
4.99946e-06
0.00843108
1.20714e-05
2.86154e-05
0.00843975
0.00840003
2.48174e-15
0.00840003
1.62406e-14
0.00840003
5.61544e-14
0.00840003
1.58654e-13
0.00840003
4.05502e-13
0.00840003
1.00962e-12
0.00840003
2.40671e-12
0.00840003
5.84621e-12
0.00840003
1.36093e-11
0.00840003
3.29251e-11
0.00840003
7.58031e-11
0.00840003
1.83315e-10
0.00840003
4.20893e-10
0.00840003
1.01184e-09
0.00840004
2.32317e-09
0.00840004
5.54653e-09
0.00840006
1.28331e-08
0.0084001
3.0121e-08
0.00840014
7.01551e-08
0.00840051
1.62835e-07
0.00840044
3.81337e-07
0.00840315
8.72045e-07
0.00840212
2.05184e-06
0.00841847
4.6768e-06
1.10589e-05
0.00841595
0.00840003
1.12784e-15
0.00840003
8.12303e-15
0.00840003
2.66138e-14
0.00840003
7.71838e-14
0.00840003
1.92617e-13
0.00840003
4.85966e-13
0.00840003
1.13447e-12
0.00840003
2.77391e-12
0.00840003
6.33536e-12
0.00840003
1.53239e-11
0.00840003
3.48345e-11
0.00840003
8.36707e-11
0.00840003
1.8925e-10
0.00840003
4.51054e-10
0.00840003
1.03052e-09
0.00840004
2.40058e-09
0.00840004
5.54598e-09
0.00840008
1.26831e-08
0.00840003
2.9676e-08
0.00840036
6.61976e-08
0.00839991
1.5563e-07
0.00840208
3.44547e-07
0.00839921
8.03147e-07
0.00841116
1.7624e-06
4.13331e-06
0.00839868
0.00840003
5.80672e-16
0.00840003
3.65766e-15
0.00840003
1.13052e-14
0.00840003
3.65602e-14
0.00840003
8.13622e-14
0.00840003
2.29233e-13
0.00840003
4.77886e-13
0.00840003
1.28693e-12
0.00840003
2.66333e-12
0.00840003
6.93756e-12
0.00840003
1.46194e-11
0.00840003
3.63412e-11
0.00840003
8.09364e-11
0.00840003
1.86432e-10
0.00840003
4.43181e-10
0.00840004
9.50422e-10
0.00840003
2.41434e-09
0.00840007
4.75572e-09
0.00839998
1.29595e-08
0.00840029
2.37913e-08
0.00839968
6.87521e-08
0.00840154
1.15661e-07
0.00839807
3.62685e-07
0.00840737
5.75487e-07
1.78635e-06
0.0083928
0.00840003
1.67076e-16
0.00840003
1.60709e-15
0.00840003
5.29305e-15
0.00840003
1.51271e-14
0.00840003
3.78807e-14
0.00840003
9.05511e-14
0.00840003
2.31722e-13
0.00840003
4.65923e-13
0.00840003
1.35175e-12
0.00840003
2.2836e-12
0.00840003
7.70445e-12
0.00840003
1.08043e-11
0.00840003
4.2756e-11
0.00840003
5.10404e-11
0.00840003
2.30153e-10
0.00840004
2.44848e-10
0.00840002
1.18669e-09
0.00840006
1.313e-09
0.00839998
5.77731e-09
0.00840017
7.76654e-09
0.00839983
2.69111e-08
0.00840044
4.8641e-08
0.00839948
1.17975e-07
0.00840099
2.91201e-07
5.33642e-07
0.00839859
0.00840003
2.72541e-16
0.00840003
2.71267e-16
0.00840003
3.12337e-15
0.00840003
3.67366e-15
0.00840003
2.16129e-14
0.00840003
2.43306e-14
0.00840003
1.24628e-13
0.00840003
1.44891e-13
0.00840003
6.60211e-13
0.00840003
8.57512e-13
0.00840003
3.32875e-12
0.00840003
5.48837e-12
0.00840003
1.52718e-11
0.00840003
3.54502e-11
0.00840003
6.78174e-11
0.00840003
2.20018e-10
0.00840004
2.83932e-10
0.00840001
1.34755e-09
0.0084001
1.19718e-09
0.00839985
7.86349e-09
0.0084005
3.82162e-09
0.00839889
4.55054e-08
0.00840273
2.84282e-09
0.00839414
2.57766e-07
4.57465e-08
0.00841046
0.00840003
3.42066e-17
0.00840003
3.81748e-16
0.00840003
9.9668e-16
0.00840003
2.0843e-15
0.00840003
7.794e-15
0.00840003
1.36306e-14
0.00840003
3.96305e-14
0.00840003
9.03124e-14
0.00840003
1.69607e-13
0.00840003
6.1259e-13
0.00840003
7.27662e-13
0.00840003
3.87195e-12
0.00840003
2.66912e-12
0.00840003
2.40988e-11
0.00840003
1.17801e-11
0.00840003
1.45531e-10
0.00840004
3.56181e-11
0.00840001
8.60307e-10
0.00840009
-7.86803e-11
0.0083999
4.77776e-09
0.00840026
-5.84663e-10
0.00839952
2.34522e-08
0.00840047
7.04789e-09
0.00839834
1.03395e-07
1.01079e-07
0.00840079
0.00840003
-1.69136e-17
0.00840003
3.62503e-16
0.00840003
-3.11979e-17
0.00840003
3.12884e-15
0.00840003
-8.69964e-16
0.00840003
1.79718e-14
0.00840003
-1.22174e-14
0.00840003
1.21095e-13
0.00840003
-1.27612e-13
0.00840003
7.76214e-13
0.00840003
-8.83607e-13
0.00840003
4.46562e-12
0.00840003
-4.9775e-12
0.00840003
2.3058e-11
0.00840003
-2.24411e-11
0.00840003
1.04753e-10
0.00840004
-3.52701e-11
0.00840003
3.06492e-10
0.00840002
4.95028e-10
0.00840005
-8.08425e-11
0.00839981
6.82218e-09
0.0084005
-1.02278e-08
0.00839815
6.0335e-08
0.00840316
-8.9471e-08
3.52801e-07
0.008392
0.00840003
0.00840003
0.00840003
0.00840003
0.00840003
0.00840003
0.00840003
0.00840003
0.00840003
0.00840003
0.00840003
0.00840003
0.00840003
0.00840003
0.00840003
0.00840004
0.00840002
0.00840006
0.00839996
0.00840019
0.00839963
0.0084009
0.00839788
0.00840361
0.00839199
0.00453229
0.0041777
0.00255843
0.00195186
0.00136197
0.00116543
-0.000256537
0.0015711
-0.00121992
0.000956163
-0.00177425
0.000546161
-0.00217071
0.000387338
-0.00240983
0.000225291
-0.00247968
5.80488e-05
-0.00249559
5.42485e-06
-0.00254288
3.96413e-05
-0.0026194
7.13435e-05
-0.00270107
7.76601e-05
-0.00276734
6.33032e-05
-0.00282113
5.12675e-05
-0.0028741
5.21086e-05
-0.00292772
5.38322e-05
-0.00298209
5.53137e-05
-0.00303442
5.4725e-05
-0.00308197
5.04645e-05
-0.00312065
4.20485e-05
-0.00314996
3.39999e-05
-0.00318513
4.00528e-05
-0.00322005
4.00573e-05
-0.00324831
3.34991e-05
-0.00326788
2.46802e-05
-0.00327518
1.16569e-05
-0.00325926
-1.28772e-05
-0.00320447
-5.28474e-05
-0.0031048
-9.89834e-05
-0.00296369
-0.000141163
-0.00278564
-0.000178853
-0.00257696
-0.000209818
-0.00234178
-0.000236894
-0.00209028
-0.000253605
-0.00183056
-0.000262158
-0.0015669
-0.000266411
-0.00130227
-0.000267459
-0.00103049
-0.0002747
-0.000759996
-0.000273591
-0.000492973
-0.000270099
-0.000224382
-0.000271615
5.15445e-05
-0.000278887
0.000309699
-0.000261118
0.000551058
-0.000244373
0.000783095
-0.000235093
0.00100584
-0.000225872
0.00121893
-0.000216317
0.00142157
-0.000205998
0.00161506
-0.000196925
0.00180366
-0.00019218
0.00198759
-0.000187749
0.00216349
-0.000179968
0.0023296
-0.00017059
0.00248757
-0.000162744
0.0026366
-0.000154778
0.00277876
-0.000147934
0.00291257
-0.000141026
0.00303955
-0.000134698
0.00315912
-0.000128684
0.00327189
-0.000123043
0.00337821
-0.000117867
0.00347801
-0.00011307
0.00357184
-0.00010872
0.00365995
-0.000104829
0.00374254
-0.000101379
0.0038201
-9.83821e-05
0.00389293