/*--------------------------------*- C++ -*----------------------------------*\
  =========                 |
  \\      /  F ield         | OpenFOAM: The Open Source CFD Toolbox
   \\    /   O peration     | Website:  https://openfoam.org
    \\  /    A nd           | Version:  13
     \\/     M anipulation  |
\*---------------------------------------------------------------------------*/
FoamFile
{
    format      ascii;
    class       volScalarField;
    location    "5.5";
    object      rho;
}
// * * * * * * * * * * * * * * * * * * * * * * * * * * * * * * * * * * * * * //

dimensions      [1 -3 0 0 0 0 0];

internalField   nonuniform List<scalar> 
5250
(
1.40001
1.40002
1.40007
1.40014
1.40041
1.40086
1.40249
1.40528
1.41469
1.43245
1.482
1.58274
1.80648
2.291
4.26471
5.92274
5.76011
5.65047
5.66979
5.75253
5.84113
5.89413
5.93332
5.9647
5.99151
1.40001
1.40002
1.40006
1.40016
1.40035
1.40098
1.40215
1.40585
1.41316
1.43415
1.47779
1.58325
1.79863
2.27789
4.21174
5.93007
5.76152
5.64779
5.66757
5.75095
5.83966
5.89289
5.93287
5.96502
5.99273
1.40001
1.40002
1.40006
1.40014
1.40037
1.4009
1.40218
1.40549
1.41303
1.43249
1.47618
1.57667
1.78791
2.24813
4.09387
5.94675
5.76446
5.63934
5.65844
5.74119
5.82921
5.88129
5.92147
5.9533
5.98086
1.40001
1.40002
1.40006
1.40013
1.40037
1.40078
1.40225
1.40476
1.4133
1.42925
1.47451
1.56633
1.77229
2.20401
3.91106
5.97323
5.77076
5.62584
5.64293
5.72249
5.80902
5.86039
5.89801
5.92996
5.95877
1.40001
1.40002
1.40006
1.40012
1.40035
1.40073
1.4021
1.40442
1.41243
1.42716
1.4697
1.5556
1.74994
2.14998
3.66789
6.00476
5.78204
5.60971
5.62279
5.69708
5.78169
5.82949
5.86634
5.89561
5.92555
1.40001
1.40002
1.40005
1.40013
1.40028
1.40078
1.40166
1.40467
1.41007
1.42715
1.46076
1.54668
1.72086
2.092
3.37476
6.02264
5.79651
5.59318
5.59998
5.66402
5.74496
5.78839
5.82111
5.84838
5.87941
1.40001
1.40002
1.40004
1.40012
1.40025
1.4007
1.40152
1.40418
1.40926
1.42443
1.45542
1.53367
1.69409
2.03379
3.08291
5.98633
5.79323
5.57146
5.57149
5.62335
5.69654
5.73426
5.75859
5.7793
5.81189
1.40001
1.40002
1.40004
1.4001
1.40024
1.40062
1.40141
1.40376
1.40846
1.42222
1.45061
1.52237
1.67075
1.98417
2.88477
5.8018
5.72347
5.53481
5.53115
5.56644
5.63216
5.65949
5.67338
5.68205
5.71021
1.40001
1.40002
1.40004
1.40009
1.40022
1.40055
1.40133
1.40325
1.40806
1.41937
1.44722
1.51043
1.64929
1.93781
2.70839
5.49602
5.59239
5.5097
5.48384
5.49652
5.54638
5.5616
5.55609
5.54113
5.54567
1.40001
1.40001
1.40004
1.40008
1.40021
1.40045
1.40128
1.40272
1.40761
1.41668
1.44357
1.49824
1.62776
1.89045
2.54576
5.10895
5.52373
5.47353
5.41807
5.42083
5.44282
5.43649
5.40743
5.33773
5.28076
1.40001
1.40001
1.40003
1.40007
1.40019
1.4004
1.40113
1.40239
1.40672
1.41466
1.43861
1.48695
1.60371
1.8404
2.39276
4.64654
5.48303
5.4421
5.34797
5.33436
5.32669
5.29577
5.20606
4.98751
4.35026
1.40001
1.40001
1.40003
1.40006
1.40016
1.40035
1.40097
1.40206
1.40579
1.41254
1.43343
1.47495
1.57795
1.78609
2.24633
4.10287
5.46564
5.41792
5.29191
5.24449
5.21363
5.14674
4.99592
4.68588
4.00028
1.40001
1.40001
1.40002
1.40006
1.40012
1.40033
1.40069
1.40199
1.40419
1.41174
1.42569
1.46586
1.54715
1.73152
2.1054
3.49673
5.45973
5.40643
5.25617
5.16483
5.10542
5.00368
4.81606
4.47912
3.9352
1.40001
1.40001
1.40002
1.40005
1.4001
1.40027
1.40057
1.4016
1.40341
1.40949
1.42071
1.45365
1.51987
1.67431
1.97907
2.86667
5.38102
5.36522
5.24972
5.09888
5.0097
4.88095
4.67902
4.37772
3.93857
1.40001
1.40001
1.40002
1.40004
1.40008
1.40021
1.40049
1.40125
1.40296
1.40735
1.41775
1.44286
1.50076
1.62819
1.89339
2.55085
4.99738
5.26535
5.20002
5.04103
4.92041
4.78687
4.57841
4.30959
3.95697
1.40001
1.40001
1.40001
1.40003
1.40007
1.40018
1.40038
1.40106
1.40224
1.40628
1.41363
1.43609
1.48076
1.59057
1.81125
2.31045
4.30877
5.15359
5.11809
5.0014
4.84749
4.70836
4.51112
4.25749
3.96041
1.40001
1.40001
1.40001
1.40003
1.40006
1.40013
1.40034
1.40072
1.40205
1.40431
1.41203
1.42627
1.4673
1.54981
1.73686
2.11254
3.56805
5.10725
5.08228
4.98469
4.79562
4.64057
4.45845
4.22221
3.95547
1.40001
1.40001
1.40001
1.40002
1.40005
1.4001
1.40024
1.4006
1.4014
1.40364
1.40827
1.42134
1.44879
1.51703
1.65914
1.94562
2.7454
4.98244
5.06756
4.98687
4.78716
4.59662
4.41643
4.1995
3.95294
1.40001
1.40001
1.40001
1.40002
1.40004
1.40008
1.40019
1.40046
1.40107
1.40278
1.4063
1.41642
1.43738
1.49133
1.60401
1.84441
2.39643
4.4991
4.98106
4.93174
4.77896
4.56849
4.38248
4.18272
3.95544
1.40001
1.40001
1.40001
1.40001
1.40003
1.40006
1.40014
1.40033
1.40086
1.40194
1.40515
1.41151
1.42989
1.46771
1.56018
1.74837
2.14356
3.69741
4.88387
4.86293
4.76975
4.55855
4.36088
4.1686
3.96135
1.40001
1.40001
1.40001
1.40001
1.40002
1.40005
1.4001
1.40025
1.40061
1.40144
1.40365
1.40846
1.42146
1.44948
1.51777
1.66085
1.94245
2.78127
4.72155
4.83841
4.7672
4.586
4.36161
4.16428
3.96974
1.40001
1.40001
1.40001
1.40001
1.40002
1.40004
1.40007
1.40019
1.40042
1.40109
1.40252
1.40634
1.41505
1.4367
1.48562
1.59586
1.81915
2.32891
4.21766
4.76969
4.72864
4.60211
4.37894
4.17302
3.98169
1.40001
1.40001
1.40001
1.40001
1.40001
1.40003
1.40005
1.40014
1.40029
1.40081
1.40171
1.40473
1.41027
1.4272
1.46071
1.54555
1.71531
2.06118
3.36421
4.65684
4.65703
4.59139
4.41616
4.19897
4.00407
1.40001
1.40001
1.40001
1.40001
1.40001
1.40002
1.40004
1.4001
1.40021
1.40055
1.40118
1.40328
1.40693
1.41891
1.44125
1.50203
1.62303
1.86327
2.47974
4.36764
4.64504
4.5925
4.45175
4.23504
4.03247
1.40001
1.40001
1.40001
1.40001
1.40001
1.40001
1.40003
1.40006
1.40016
1.40034
1.4009
1.40205
1.4052
1.41221
1.43003
1.47
1.56177
1.74948
2.13785
3.64043
4.56333
4.54609
4.47405
4.29029
4.07033
1.40001
1.40001
1.40001
1.40001
1.40001
1.40001
1.40002
1.40004
1.40011
1.40022
1.40063
1.4013
1.40364
1.40774
1.42084
1.44579
1.51195
1.64344
1.8972
2.645
4.33858
4.53527
4.4835
4.35036
4.12262
1.40001
1.40001
1.40001
1.40001
1.40001
1.40001
1.40002
1.40003
1.40007
1.40016
1.40039
1.40095
1.40222
1.40563
1.41292
1.43245
1.47391
1.57167
1.76282
2.18013
3.72905
4.46165
4.4466
4.37607
4.20477
1.40001
1.40001
1.40001
1.40001
1.40001
1.40001
1.40001
1.40002
1.40005
1.40011
1.40025
1.40064
1.40139
1.40381
1.40811
1.42183
1.44771
1.51647
1.65163
1.91226
2.74216
4.23982
4.42717
4.38404
4.26563
1.40001
1.40001
1.40001
1.40001
1.40001
1.40001
1.40001
1.40002
1.40003
1.40008
1.40016
1.40042
1.40089
1.40245
1.40522
1.41406
1.43087
1.47679
1.56907
1.76083
2.17261
3.66621
4.3525
4.3431
4.28878
1.40001
1.40001
1.40001
1.40001
1.40001
1.40001
1.40001
1.40001
1.40002
1.40005
1.40011
1.40025
1.4006
1.40148
1.40342
1.40868
1.41972
1.44896
1.50987
1.6465
1.88852
2.66935
4.11308
4.32494
4.2933
1.40001
1.40001
1.40001
1.40001
1.40001
1.40001
1.40001
1.40001
1.40002
1.40003
1.40007
1.40015
1.40041
1.40085
1.40232
1.40497
1.41324
1.42926
1.47249
1.55969
1.74036
2.1205
3.50363
4.23884
4.26297
1.40001
1.40001
1.40001
1.40001
1.40001
1.40001
1.40001
1.40001
1.40001
1.40002
1.40004
1.4001
1.40022
1.40059
1.40124
1.40342
1.4072
1.41938
1.44197
1.50272
1.62041
1.83931
2.46068
3.96581
4.24229
1.40001
1.40001
1.40001
1.40001
1.40001
1.40001
1.40001
1.40001
1.40001
1.40001
1.40003
1.40006
1.40015
1.40032
1.40084
1.4019
1.40479
1.41117
1.42712
1.4632
1.54472
1.70692
2.03746
3.25593
4.11334
1.40001
1.40001
1.40001
1.40001
1.40001
1.40001
1.40001
1.40001
1.40001
1.40001
1.40002
1.40004
1.40008
1.40022
1.40046
1.40122
1.40268
1.4069
1.41557
1.43859
1.48659
1.59628
1.78439
2.27734
3.75729
1.40001
1.40001
1.40001
1.40001
1.40001
1.40001
1.40001
1.40001
1.40001
1.40001
1.40001
1.40003
1.40005
1.40013
1.40029
1.4007
1.40168
1.40394
1.40978
1.4224
1.45456
1.52219
1.66625
1.93443
2.89101
1.40001
1.40001
1.40001
1.40001
1.40001
1.40001
1.40001
1.40001
1.40001
1.40001
1.40001
1.40002
1.40004
1.40007
1.40018
1.40039
1.40101
1.40225
1.40572
1.41306
1.43208
1.4728
1.56623
1.73357
2.12837
1.40001
1.40001
1.40001
1.40001
1.40001
1.40001
1.40001
1.40001
1.40001
1.40001
1.40001
1.40001
1.40002
1.40005
1.4001
1.40025
1.40053
1.40138
1.4031
1.40776
1.41783
1.44307
1.49716
1.61386
1.81462
1.40001
1.40001
1.40001
1.40001
1.40001
1.40001
1.40001
1.40001
1.40001
1.40001
1.40001
1.40001
1.40002
1.40003
1.40006
1.40014
1.40031
1.40081
1.40172
1.40465
1.40979
1.42599
1.45588
1.53411
1.6736
1.40001
1.40001
1.40001
1.40001
1.40001
1.40001
1.40001
1.40001
1.40001
1.40001
1.40001
1.40001
1.40001
1.40002
1.40004
1.40008
1.40019
1.4004
1.40109
1.40229
1.40617
1.41316
1.43403
1.47377
1.57054
1.40001
1.40001
1.40001
1.40001
1.40001
1.40001
1.40001
1.40001
1.40001
1.40001
1.40001
1.40001
1.40001
1.40001
1.40002
1.40005
1.4001
1.40026
1.40054
1.40142
1.40313
1.40789
1.4179
1.44336
1.49698
1.40001
1.40001
1.40001
1.40001
1.40001
1.40001
1.40001
1.40001
1.40001
1.40001
1.40001
1.40001
1.40001
1.40001
1.40002
1.40003
1.40006
1.40014
1.40033
1.40077
1.40181
1.40445
1.41008
1.42512
1.45604
1.40001
1.40001
1.40001
1.40001
1.40001
1.40001
1.40001
1.40001
1.40001
1.40001
1.40001
1.40001
1.40001
1.40001
1.40001
1.40002
1.40004
1.40008
1.4002
1.40043
1.40109
1.40249
1.40606
1.41431
1.43361
1.40001
1.40001
1.40001
1.40001
1.40001
1.40001
1.40001
1.40001
1.40001
1.40001
1.40001
1.40001
1.40001
1.40001
1.40001
1.40001
1.40003
1.40005
1.40013
1.40027
1.40074
1.40157
1.40419
1.40913
1.42352
1.40001
1.40001
1.40001
1.40001
1.40001
1.40001
1.40001
1.40001
1.40001
1.40001
1.40001
1.40001
1.40001
1.40001
1.40001
1.40001
1.40002
1.40004
1.4001
1.40021
1.40058
1.40127
1.40334
1.40759
1.41933
1.40001
1.40001
1.40001
1.40001
1.40001
1.40001
1.40001
1.40001
1.40001
1.40001
1.40001
1.40001
1.40001
1.40001
1.40001
1.40001
1.40002
1.40004
1.40009
1.40019
1.40051
1.40115
1.40297
1.40703
1.41754
1.40001
1.40001
1.40001
1.40001
1.40001
1.40001
1.40001
1.40001
1.40001
1.40001
1.40001
1.40001
1.40001
1.40001
1.40001
1.40001
1.40002
1.40004
1.40008
1.4002
1.40045
1.4012
1.40264
1.40724
1.41609
1.40001
1.40001
1.40001
1.40001
1.40001
1.40001
1.40001
1.40001
1.40001
1.40001
1.40001
1.40001
1.40001
1.40001
1.40001
1.40001
1.40002
1.40004
1.40008
1.4002
1.40044
1.40115
1.4027
1.40688
1.41644
1.40001
1.40001
1.40001
1.40001
1.40001
1.40001
1.40001
1.40001
1.40001
1.40001
1.40001
1.40001
1.40001
1.40001
1.40001
1.40001
1.40002
1.40003
1.40008
1.40018
1.40047
1.40106
1.40289
1.40637
1.41722
1.40001
1.40001
1.40001
1.40001
1.40001
1.40001
1.40001
1.40001
1.40001
1.40001
1.40001
1.40001
1.40001
1.40001
1.40001
1.40001
1.40002
1.40003
1.40008
1.40017
1.40049
1.40102
1.40292
1.40625
1.41731
1.40001
1.40001
1.40001
1.40001
1.40001
1.40001
1.40001
1.40001
1.40001
1.40001
1.40001
1.40001
1.40001
1.40001
1.40001
1.40001
1.40002
1.40003
1.40008
1.40018
1.40045
1.40112
1.40266
1.40684
1.4161
2.02312
1.33694
1.32914
1.75703
1.70597
1.61317
1.57482
1.56329
1.56008
1.55484
1.54174
1.52359
1.50971
1.49773
1.48812
1.47683
1.46436
1.45251
1.44102
1.43003
1.41901
1.40678
1.39973
1.39779
1.39783
1.40118
1.41539
1.44411
1.48562
1.5384
1.59619
1.65695
1.71704
1.77554
1.82992
1.8798
1.92391
1.96421
2.00008
2.03227
2.06078
2.08557
2.1066
2.12553
2.14172
2.15296
2.16287
2.16841
2.17366
2.17536
2.17788
2.17437
2.17311
2.16716
2.16388
2.15613
2.15048
2.14242
2.13472
2.12657
2.11805
2.10992
2.10184
2.09413
2.08715
2.08081
2.07542
2.07115
2.06803
2.06616
2.06566
2.06639
2.06736
2.06858
2.07036
2.07292
2.07542
2.07663
2.07719
2.07699
2.07605
2.07346
2.06935
2.06155
2.05379
2.0424
2.03143
2.01829
2.00501
1.98978
1.97501
1.95902
1.9433
1.92664
1.91085
1.89476
1.87998
1.86595
1.85444
1.84666
2.50449
1.87813
1.7996
1.85756
1.74117
1.62404
1.54286
1.50734
1.49799
1.50514
1.48984
1.4655
1.45214
1.44058
1.43191
1.42389
1.41199
1.3982
1.38635
1.37471
1.36265
1.35245
1.34343
1.33953
1.33864
1.34045
1.35151
1.37777
1.41885
1.47302
1.5344
1.59908
1.66479
1.72971
1.79147
1.84774
1.89946
1.94503
1.99057
2.03103
2.06936
2.0993
2.12871
2.15195
2.17479
2.19038
2.20577
2.21548
2.22498
2.23068
2.23665
2.23737
2.23744
2.23564
2.23316
2.22963
2.22472
2.21943
2.21321
2.20665
2.19996
2.19304
2.18634
2.17999
2.1741
2.16896
2.16474
2.16152
2.15954
2.15882
2.15947
2.16144
2.16367
2.16606
2.16902
2.17265
2.17628
2.17823
2.18002
2.1804
2.18068
2.17832
2.17448
2.16747
2.15932
2.14885
2.13737
2.12405
2.11027
2.09517
2.07957
2.06315
2.04665
2.02975
2.0129
1.99628
1.98054
1.96613
1.9538
1.94562
3.02511
2.40862
2.11337
2.02881
1.9278
1.80182
1.6667
1.60927
1.55064
1.51437
1.48461
1.44853
1.42571
1.41504
1.40952
1.3944
1.37642
1.3571
1.34001
1.3281
1.31915
1.30816
1.29852
1.29328
1.29107
1.29072
1.29989
1.32407
1.36588
1.42393
1.49011
1.56198
1.6343
1.70772
1.77906
1.84283
1.90327
1.95678
2.00799
2.05225
2.09173
2.12572
2.1567
2.18352
2.20744
2.22679
2.24338
2.25634
2.26657
2.27519
2.28191
2.28586
2.28592
2.28549
2.28403
2.2814
2.27782
2.27304
2.26777
2.26187
2.25572
2.24945
2.24336
2.23746
2.23221
2.22754
2.22383
2.22107
2.21959
2.2192
2.22033
2.22269
2.22551
2.22829
2.23179
2.23545
2.23952
2.24136
2.24386
2.24451
2.24513
2.2425
2.2388
2.23199
2.22423
2.21377
2.20255
2.18894
2.175
2.15926
2.14352
2.12626
2.10927
2.09133
2.0741
2.0564
2.04016
2.02464
2.01155
2.00228
3.30273
2.74589
2.37431
2.19176
2.0907
1.97475
1.85024
1.75481
1.6968
1.63485
1.57362
1.51044
1.46752
1.44209
1.42442
1.40497
1.38328
1.35971
1.33973
1.32193
1.30588
1.29199
1.27985
1.27161
1.26695
1.26555
1.27245
1.29626
1.34088
1.40649
1.48137
1.56199
1.64568
1.72724
1.80471
1.87541
1.94008
1.99809
2.05151
2.09889
2.14139
2.17884
2.21207
2.24155
2.26686
2.28892
2.30666
2.32171
2.33299
2.34261
2.35071
2.35588
2.35686
2.3561
2.35506
2.35258
2.34941
2.3448
2.33984
2.33387
2.32803
2.3216
2.31574
2.30969
2.30465
2.29982
2.29642
2.29353
2.29223
2.29154
2.29268
2.29439
2.29739
2.29954
2.3029
2.3055
2.30866
2.31002
2.31193
2.31177
2.31131
2.30796
2.30379
2.29691
2.28905
2.2787
2.26731
2.25379
2.23951
2.22361
2.20726
2.18989
2.17222
2.15401
2.13597
2.11834
2.10135
2.08568
2.07149
2.06196
3.45711
2.98331
2.60786
2.36418
2.23062
2.12506
2.01907
1.91842
1.84022
1.77817
1.71596
1.65205
1.58701
1.53004
1.48481
1.45235
1.42631
1.40357
1.37833
1.35586
1.33722
1.31834
1.2996
1.28595
1.27796
1.27773
1.28743
1.3162
1.36648
1.43618
1.51461
1.59965
1.6862
1.77228
1.85318
1.92834
1.99637
2.05874
2.11506
2.16641
2.21172
2.25215
2.28736
2.31814
2.34463
2.36691
2.38539
2.40027
2.41189
2.42088
2.42895
2.43405
2.43585
2.43371
2.43177
2.42814
2.42465
2.41926
2.41419
2.40755
2.40174
2.39473
2.38906
2.38254
2.37778
2.3726
2.36953
2.36616
2.36499
2.36376
2.36464
2.36556
2.36811
2.36982
2.37248
2.37392
2.37596
2.37656
2.37684
2.37549
2.37347
2.36941
2.36426
2.35707
2.34839
2.33783
2.32563
2.31184
2.29667
2.28038
2.26298
2.24478
2.22594
2.20694
2.18797
2.16915
2.15106
2.13394
2.11861
2.1073
3.56147
3.15437
2.80742
2.5463
2.37609
2.25994
2.15729
2.06433
1.9811
1.91151
1.84812
1.78679
1.72578
1.66863
1.61295
1.56157
1.51925
1.48086
1.44809
1.41918
1.39363
1.37214
1.35577
1.34423
1.33917
1.33996
1.35248
1.38564
1.43786
1.50304
1.57916
1.66086
1.7432
1.82815
1.9109
1.98882
2.06038
2.12529
2.18384
2.23604
2.28261
2.32323
2.35913
2.38987
2.41676
2.43873
2.45746
2.47178
2.48344
2.49135
2.49901
2.50401
2.50697
2.50445
2.50168
2.49718
2.49313
2.4872
2.48178
2.47471
2.46863
2.46133
2.45551
2.44885
2.44416
2.43892
2.43589
2.43237
2.43123
2.42952
2.43011
2.42994
2.43178
2.43222
2.43381
2.43349
2.43385
2.43243
2.43124
2.42807
2.42495
2.41972
2.41423
2.40645
2.39811
2.38733
2.37591
2.36209
2.34775
2.33129
2.3145
2.29592
2.27759
2.25808
2.239
2.21946
2.20089
2.18278
2.16655
2.15382
3.62981
3.28094
2.96652
2.70698
2.51646
2.37923
2.27387
2.18093
2.10157
2.03025
1.96629
1.90717
1.84806
1.79322
1.74028
1.68766
1.6392
1.59425
1.55303
1.5163
1.48522
1.4585
1.43982
1.42808
1.42349
1.42716
1.4557
1.49823
1.54765
1.60496
1.67
1.74052
1.81036
1.88225
1.96044
2.03937
2.11496
2.18322
2.24398
2.2972
2.34408
2.38495
2.42071
2.45132
2.47767
2.49937
2.51763
2.53167
2.54314
2.55041
2.55716
2.56187
2.56541
2.56413
2.56093
2.55608
2.5519
2.54612
2.54109
2.53449
2.52902
2.52232
2.51721
2.51116
2.50724
2.50248
2.49983
2.49644
2.49521
2.49306
2.49292
2.4915
2.49195
2.49057
2.49053
2.48799
2.48658
2.48262
2.47957
2.47436
2.46959
2.46279
2.45616
2.44748
2.43854
2.4275
2.41586
2.40216
2.3878
2.37156
2.35467
2.33639
2.31781
2.29819
2.27879
2.25884
2.23976
2.22087
2.20387
2.18986
3.67492
3.37394
3.0886
2.84227
2.643
2.49385
2.37506
2.28049
2.20034
2.13029
2.06741
2.00927
1.95462
1.90073
1.85128
1.8026
1.75415
1.70962
1.66728
1.62835
1.59649
1.56943
1.55242
1.53824
1.53892
1.55641
1.6076
1.65505
1.69728
1.74117
1.78808
1.83504
1.88863
1.93767
1.9926
2.06604
2.14377
2.21846
2.28512
2.3426
2.39182
2.43389
2.47013
2.50119
2.52799
2.55026
2.569
2.58355
2.5952
2.60291
2.60874
2.61286
2.6166
2.61694
2.61415
2.60898
2.60434
2.59833
2.59314
2.58661
2.58133
2.5748
2.57007
2.56443
2.56077
2.55615
2.55381
2.55025
2.54886
2.54591
2.54493
2.542
2.54082
2.53711
2.53476
2.52985
2.52579
2.5196
2.51407
2.50669
2.49995
2.49152
2.48367
2.47404
2.46484
2.45361
2.44257
2.42932
2.41601
2.40049
2.38475
2.36714
2.34939
2.3302
2.31119
2.29126
2.2721
2.25283
2.2353
2.22041
3.70698
3.44573
3.18472
2.95355
2.75324
2.59635
2.47076
2.36965
2.28572
2.21517
2.15345
2.09572
2.0439
1.9936
1.94492
1.90079
1.8553
1.81177
1.7726
1.73492
1.70962
1.68712
1.67315
1.66396
1.67749
1.73108
1.8039
1.85146
1.88173
1.90922
1.9356
1.95033
1.97547
2.00476
2.04037
2.08608
2.14963
2.22553
2.29954
2.36479
2.42065
2.46669
2.50521
2.53716
2.56376
2.58591
2.60439
2.61921
2.63101
2.63957
2.64564
2.64933
2.65277
2.65423
2.65379
2.64935
2.64494
2.63934
2.63482
2.62916
2.62482
2.61941
2.61557
2.61091
2.60812
2.60419
2.60212
2.5987
2.59704
2.59347
2.59143
2.587
2.58366
2.57743
2.57255
2.56493
2.55831
2.54931
2.54127
2.53127
2.52236
2.51175
2.50226
2.49123
2.48111
2.46943
2.4582
2.44538
2.43251
2.41804
2.40316
2.38675
2.36994
2.35172
2.33348
2.31404
2.29528
2.27593
2.25831
2.24272
3.73431
3.49871
3.26461
3.0449
2.85262
2.68879
2.55838
2.45042
2.3636
2.28882
2.22615
2.17052
2.11858
2.07219
2.02561
1.98309
1.9425
1.90157
1.86578
1.83399
1.81521
1.79673
1.79069
1.79709
1.84123
1.94888
2.03753
2.07067
2.08981
2.10396
2.09762
2.07432
2.06288
2.07684
2.0968
2.1237
2.16116
2.21257
2.28063
2.35053
2.41473
2.47043
2.51545
2.55225
2.58079
2.60453
2.62383
2.63929
2.652
2.66157
2.66909
2.67399
2.6775
2.67979
2.68151
2.68029
2.67714
2.67235
2.66871
2.66451
2.66148
2.65774
2.65556
2.65228
2.65057
2.64753
2.64605
2.64283
2.64094
2.63672
2.63368
2.62738
2.62194
2.61354
2.60607
2.59593
2.5869
2.57536
2.56514
2.55268
2.5419
2.52917
2.51831
2.50572
2.49478
2.48234
2.47098
2.45819
2.44589
2.432
2.41818
2.40262
2.38712
2.36976
2.35276
2.3341
2.31626
2.29753
2.28023
2.265
3.76071
3.54465
3.32874
3.12406
2.93783
2.77513
2.63949
2.52599
2.43412
2.3563
2.291
2.23371
2.18333
2.13712
2.09439
2.05255
2.01569
1.9788
1.94845
1.92784
1.9119
1.90029
1.90569
1.93827
2.04264
2.19852
2.28728
2.3006
2.31095
2.3045
2.25423
2.20297
2.16783
2.15206
2.15797
2.17287
2.19357
2.22259
2.26078
2.31721
2.38182
2.44534
2.50039
2.54666
2.58264
2.61184
2.63341
2.65114
2.66503
2.67589
2.68438
2.69055
2.69545
2.69832
2.70054
2.70191
2.70229
2.69941
2.69697
2.69387
2.69183
2.68941
2.68848
2.68672
2.68594
2.68377
2.68242
2.67921
2.67661
2.67144
2.66642
2.65823
2.65068
2.6401
2.63015
2.61731
2.60551
2.59116
2.57836
2.56338
2.55031
2.53547
2.52266
2.50853
2.49622
2.4829
2.47096
2.45806
2.446
2.43275
2.4199
2.40547
2.39131
2.37533
2.35966
2.34234
2.32554
2.30786
2.29105
2.27651
3.78791
3.5855
3.385
3.19126
3.01316
2.85292
2.71478
2.59813
2.49972
2.41934
2.34993
2.2918
2.23959
2.19348
2.15213
2.11198
2.07775
2.04394
2.02544
2.00972
2.00118
2.00132
2.02741
2.09908
2.30255
2.476
2.5266
2.53392
2.52764
2.48318
2.40331
2.3333
2.2815
2.24653
2.22782
2.22399
2.23359
2.24725
2.2684
2.29701
2.3401
2.39685
2.45534
2.51031
2.55678
2.59515
2.62383
2.64713
2.66364
2.67711
2.68768
2.69574
2.70234
2.70719
2.71165
2.71543
2.71738
2.71873
2.72037
2.71978
2.7194
2.71889
2.71939
2.71893
2.71893
2.71769
2.71674
2.71346
2.71029
2.70378
2.69746
2.68793
2.67883
2.66622
2.65445
2.63934
2.62562
2.60901
2.59428
2.57717
2.56225
2.54553
2.53107
2.51538
2.50176
2.48728
2.47457
2.46101
2.44889
2.43559
2.42342
2.40962
2.39673
2.38189
2.36782
2.35182
2.33658
2.32007
2.30426
2.29073
3.81461
3.62544
3.43601
3.25296
3.08104
2.92487
2.7858
2.66638
2.56363
2.47769
2.40525
2.34376
2.29072
2.24415
2.20238
2.16485
2.13164
2.10612
2.0944
2.08558
2.08593
2.10698
2.16778
2.32797
2.59831
2.74273
2.75047
2.74952
2.72302
2.63567
2.54185
2.46193
2.39833
2.3496
2.31437
2.29168
2.27918
2.28266
2.2915
2.30388
2.32405
2.35317
2.39936
2.45269
2.5058
2.55505
2.59513
2.62803
2.65207
2.67107
2.68518
2.69591
2.70492
2.71242
2.71891
2.72472
2.72971
2.73402
2.73788
2.74041
2.74246
2.74423
2.74622
2.74684
2.74749
2.74697
2.74596
2.7421
2.73763
2.73028
2.72257
2.71157
2.70043
2.68604
2.67207
2.65517
2.6393
2.621
2.60427
2.5856
2.56889
2.55064
2.53458
2.51729
2.50229
2.4863
2.47256
2.45789
2.44529
2.43153
2.41954
2.40613
2.39409
2.38041
2.36766
2.35331
2.33952
2.32478
2.31006
2.2984
3.84513
3.66259
3.48459
3.30998
3.14437
2.99208
2.85331
2.73202
2.6266
2.53583
2.45901
2.39377
2.33772
2.28977
2.24775
2.21188
2.18053
2.16893
2.16047
2.15961
2.17494
2.22571
2.34168
2.64985
2.89458
2.96161
2.96139
2.94256
2.87523
2.7685
2.6694
2.58528
2.51499
2.45705
2.40954
2.37236
2.34448
2.32661
2.31749
2.32342
2.33032
2.34159
2.36201
2.39542
2.44245
2.49374
2.54254
2.5864
2.62164
2.64969
2.67107
2.68711
2.70059
2.71121
2.721
2.73006
2.73847
2.74643
2.75353
2.75963
2.76505
2.76934
2.7729
2.77387
2.77507
2.77488
2.7742
2.76995
2.76458
2.75589
2.74655
2.73391
2.72108
2.7052
2.68967
2.67143
2.65408
2.63443
2.61626
2.59619
2.57813
2.55847
2.54112
2.52237
2.50607
2.4886
2.4736
2.45763
2.444
2.42939
2.41696
2.40348
2.39183
2.37891
2.36739
2.35435
2.34227
2.32903
2.31576
2.30588
3.8808
3.70431
3.53148
3.36568
3.2051
3.0556
2.91862
2.7953
2.68752
2.59358
2.51239
2.44345
2.38416
2.33387
2.29113
2.25523
2.23505
2.22776
2.22651
2.23857
2.2815
2.38232
2.63527
2.98405
3.14351
3.14701
3.13767
3.09851
2.99161
2.88335
2.78632
2.70226
2.62872
2.56455
2.50814
2.46027
2.41945
2.38697
2.36295
2.34745
2.34411
2.34849
2.35337
2.36493
2.38779
2.42677
2.47449
2.52513
2.57234
2.61312
2.64601
2.67156
2.69135
2.70764
2.72143
2.73413
2.74604
2.75779
2.76793
2.77773
2.78593
2.79238
2.79794
2.79907
2.80037
2.80036
2.79941
2.79489
2.78856
2.77867
2.76789
2.75381
2.73952
2.72228
2.70538
2.68596
2.66734
2.64661
2.62715
2.60595
2.5865
2.56558
2.54679
2.52665
2.5089
2.48994
2.47356
2.45612
2.44131
2.42553
2.41246
2.39844
2.38687
2.37417
2.36348
2.35145
2.34078
2.32926
2.31734
2.3101
3.92547
3.74954
3.58122
3.41843
3.26367
3.11684
2.98109
2.85691
2.74666
2.64967
2.56521
2.49271
2.43017
2.37822
2.33466
2.30193
2.29465
2.29104
2.30044
2.3334
2.4215
2.6183
3.01613
3.26369
3.31308
3.30837
3.28171
3.20425
3.09293
2.98852
2.89617
2.8129
2.73757
2.6687
2.60622
2.55011
2.49997
2.45711
2.42066
2.39151
2.37048
2.36153
2.3589
2.36217
2.36874
2.38282
2.41143
2.45576
2.50517
2.55598
2.60161
2.64098
2.67264
2.6988
2.71935
2.7382
2.75346
2.76902
2.78238
2.79552
2.80604
2.81494
2.82243
2.82401
2.82573
2.82578
2.82434
2.81848
2.81086
2.79961
2.78736
2.7721
2.75656
2.73836
2.72035
2.70005
2.68039
2.65883
2.63837
2.61638
2.59595
2.57418
2.55435
2.53316
2.51419
2.49387
2.47606
2.45704
2.44078
2.42363
2.40948
2.39456
2.38247
2.36947
2.35891
2.34727
2.33738
2.32703
2.31612
2.31121
3.98494
3.80054
3.63408
3.4738
3.32176
3.17678
3.04272
2.91825
2.80518
2.70613
2.61723
2.5426
2.47621
2.42391
2.37894
2.36215
2.35764
2.3623
2.39047
2.46125
2.61917
3.01512
3.34631
3.45581
3.45459
3.43812
3.3873
3.28481
3.18136
3.08582
2.99867
2.91705
2.84118
2.76936
2.7028
2.64065
2.58389
2.53255
2.48675
2.44749
2.41506
2.39051
2.37518
2.37047
2.36919
2.37291
2.38283
2.40192
2.43854
2.48796
2.54018
2.59203
2.63876
2.67801
2.7108
2.73686
2.75975
2.77872
2.79687
2.81166
2.82521
2.83524
2.84389
2.84539
2.84684
2.847
2.84513
2.83829
2.82964
2.8175
2.80402
2.78772
2.77103
2.75202
2.73312
2.71215
2.69181
2.66964
2.64855
2.62578
2.60454
2.58173
2.56088
2.53851
2.51837
2.4968
2.47767
2.45732
2.4398
2.42149
2.40615
2.39019
2.37716
2.36346
2.35248
2.34076
2.33111
2.32161
2.31133
2.30866
4.05192
3.85522
3.68692
3.52953
3.3786
3.23709
3.10171
2.98008
2.86408
2.76357
2.67161
2.59314
2.52615
2.47065
2.43568
2.42949
2.43124
2.45231
2.51264
2.65101
2.99026
3.38829
3.57143
3.57717
3.56982
3.54002
3.45845
3.3589
3.26476
3.17764
3.09535
3.01597
2.93992
2.86663
2.7968
2.7308
2.66866
2.61144
2.55871
2.5124
2.47116
2.43692
2.4096
2.38966
2.38188
2.3769
2.38074
2.38731
2.40138
2.42828
2.47215
2.5265
2.58468
2.63863
2.68598
2.72659
2.75809
2.78565
2.80769
2.82502
2.84148
2.85212
2.86126
2.86299
2.86451
2.86452
2.86207
2.85404
2.84397
2.83098
2.81657
2.79957
2.78203
2.76245
2.74293
2.72149
2.70064
2.67797
2.6564
2.63309
2.6113
2.58788
2.56627
2.54315
2.52202
2.49954
2.47929
2.45812
2.43951
2.42021
2.40367
2.38655
2.37235
2.35757
2.3457
2.33334
2.32333
2.31399
2.30391
2.3027
4.14531
3.93145
3.74477
3.5885
3.43746
3.29739
3.16279
3.03915
2.92499
2.81943
2.72893
2.64533
2.58083
2.52307
2.51252
2.51006
2.52418
2.57199
2.69375
2.97779
3.41453
3.65231
3.69595
3.69036
3.66716
3.60519
3.51688
3.42967
3.34691
3.26706
3.18863
3.11079
3.03493
2.96021
2.88851
2.81938
2.75399
2.69278
2.6358
2.58379
2.53635
2.4948
2.45834
2.42943
2.40658
2.39419
2.38958
2.39191
2.39715
2.40848
2.42896
2.46534
2.52017
2.57912
2.6391
2.69405
2.74059
2.77985
2.80988
2.83303
2.85189
2.86384
2.87317
2.87494
2.876
2.87516
2.87236
2.86375
2.85306
2.83947
2.82473
2.80743
2.78951
2.76958
2.74961
2.72803
2.70676
2.6841
2.66206
2.63871
2.61625
2.59252
2.56999
2.54628
2.52413
2.5011
2.48015
2.45843
2.43907
2.41895
2.40143
2.38318
2.36781
2.35181
2.33882
2.3255
2.31474
2.30517
2.29485
2.29455
4.20257
4.00375
3.81303
3.64531
3.50009
3.35687
3.22662
3.10024
2.9867
2.88024
2.7857
2.70477
2.63689
2.60375
2.59837
2.60786
2.64638
2.75279
2.99188
3.44097
3.72576
3.79995
3.79687
3.78052
3.73426
3.65593
3.57729
3.50291
3.42899
3.35452
3.27902
3.20264
3.12703
3.0518
2.97911
2.90807
2.84076
2.77627
2.71621
2.65934
2.6079
2.55973
2.51802
2.48061
2.45044
2.4266
2.41106
2.40547
2.4086
2.41343
2.423
2.44046
2.46983
2.5171
2.57597
2.63865
2.6979
2.75114
2.79383
2.82732
2.85193
2.86779
2.87884
2.88062
2.8817
2.88048
2.87718
2.86826
2.85725
2.84349
2.82866
2.8115
2.79354
2.77371
2.75358
2.73216
2.71076
2.68828
2.66599
2.64268
2.61985
2.59597
2.5729
2.5489
2.52637
2.50305
2.48159
2.45936
2.43925
2.41837
2.39988
2.38072
2.36425
2.34727
2.33324
2.31908
2.30754
2.29762
2.28709
2.28704
4.22049
4.10383
3.89769
3.71474
3.56114
3.42044
3.28668
3.16396
3.04697
2.94264
2.84803
2.76848
2.71198
2.70367
2.70732
2.73847
2.82967
3.03405
3.48076
3.79521
3.89866
3.89773
3.88602
3.85183
3.78239
3.71094
3.64345
3.57741
3.50911
3.4388
3.36576
3.29136
3.21666
3.14178
3.06857
2.99668
2.9276
2.86134
2.79823
2.73893
2.68311
2.63178
2.58454
2.54268
2.50565
2.4751
2.45076
2.43389
2.42589
2.42993
2.43514
2.44304
2.45735
2.48336
2.52296
2.57676
2.637
2.69709
2.75168
2.79815
2.83336
2.85816
2.87419
2.87935
2.88068
2.88003
2.87698
2.86856
2.85754
2.84399
2.8291
2.81216
2.79446
2.775
2.75523
2.7339
2.71268
2.69013
2.66796
2.64456
2.62161
2.59757
2.57445
2.55055
2.52784
2.50451
2.48264
2.46018
2.43949
2.41818
2.399
2.3792
2.36197
2.34423
2.32948
2.31467
2.3026
2.29242
2.28199
2.28204
4.22051
4.14911
3.99056
3.79495
3.6309
3.48577
3.35267
3.22724
3.11322
3.00619
2.91926
2.84075
2.82732
2.82496
2.84876
2.92464
3.1101
3.54436
3.87644
4.00282
4.00223
3.99159
3.96123
3.89837
3.83433
3.77474
3.7163
3.65653
3.59225
3.52487
3.45299
3.38025
3.30528
3.231
3.15708
3.08464
3.0142
2.9466
2.88114
2.8201
2.76103
2.70725
2.65604
2.61054
2.56871
2.53303
2.50253
2.47847
2.46196
2.45152
2.45449
2.4597
2.46703
2.48063
2.50118
2.53383
2.57986
2.63275
2.68893
2.74267
2.7891
2.82564
2.85093
2.86656
2.86979
2.87031
2.8693
2.86396
2.85365
2.84016
2.82543
2.80902
2.79185
2.7732
2.75381
2.73316
2.71198
2.68979
2.66729
2.64401
2.62093
2.59742
2.57439
2.55093
2.52821
2.50506
2.48303
2.46053
2.43957
2.41803
2.39849
2.37829
2.36064
2.34247
2.32723
2.31219
2.29975
2.28961
2.27986
2.27996
4.19553
4.16206
4.0727
3.88057
3.70404
3.55432
3.41827
3.29423
3.17989
3.08
2.9948
2.96367
2.95788
2.97833
3.04961
3.22364
3.64278
3.97729
4.11068
4.11004
4.09936
4.0703
4.00912
3.94996
3.89727
3.84651
3.79418
3.73751
3.67584
3.60928
3.53913
3.46668
3.39317
3.31893
3.24558
3.17217
3.10164
3.0319
2.96601
2.90201
2.84183
2.78465
2.73166
2.68272
2.63833
2.59913
2.56465
2.5357
2.51323
2.49552
2.48674
2.48414
2.48944
2.49437
2.50444
2.5206
2.54466
2.57924
2.62309
2.6714
2.72025
2.7646
2.80195
2.8286
2.84552
2.84985
2.85064
2.84903
2.84397
2.83207
2.81788
2.80174
2.78512
2.76709
2.74863
2.72867
2.70839
2.68663
2.66479
2.64195
2.61948
2.59629
2.57371
2.5505
2.52805
2.505
2.48303
2.46055
2.43956
2.4181
2.39845
2.37842
2.36054
2.34264
2.32719
2.31255
2.30034
2.29057
2.28286
2.28325
4.15328
4.14324
4.09781
3.98169
3.79383
3.62957
3.48993
3.36387
3.25573
3.16096
3.1175
3.10862
3.12649
3.1958
3.37039
3.78328
4.10842
4.23392
4.23288
4.21802
4.17962
4.1136
4.05592
4.00988
3.96765
3.92431
3.87536
3.82052
3.75927
3.69377
3.62347
3.55222
3.47784
3.40471
3.32995
3.25751
3.18519
3.11579
3.04786
2.98333
2.92138
2.86321
2.80867
2.75827
2.71197
2.67034
2.63307
2.60136
2.57364
2.55206
2.53484
2.5239
2.5176
2.51604
2.52125
2.5251
2.53273
2.54608
2.57183
2.60439
2.64253
2.68588
2.72805
2.7658
2.79489
2.81387
2.82225
2.82284
2.82204
2.81759
2.80648
2.79194
2.77582
2.75831
2.74034
2.7214
2.70188
2.68135
2.66049
2.63895
2.6173
2.59511
2.57302
2.55052
2.52837
2.50592
2.48406
2.46204
2.44095
2.41984
2.4001
2.38053
2.36278
2.34553
2.33071
2.31682
2.30624
2.29741
2.29239
2.29358
3.94808
4.1169
4.09902
4.03589
3.88548
3.71239
3.56521
3.44312
3.33981
3.28803
3.2769
3.29316
3.36515
3.55145
3.96634
4.27858
4.38275
4.37907
4.35504
4.29444
4.21718
4.16001
4.11694
4.08216
4.04597
4.00535
3.95719
3.90267
3.84192
3.77626
3.70739
3.63512
3.56246
3.4876
3.41419
3.3399
3.26836
3.19726
3.12966
3.06369
3.0018
2.94246
2.88785
2.83618
2.7897
2.74652
2.70837
2.67374
2.64376
2.6177
2.59535
2.57711
2.56233
2.55152
2.54306
2.54133
2.53835
2.54152
2.54666
2.55652
2.57691