/*--------------------------------*- C++ -*----------------------------------*\
  =========                 |
  \\      /  F ield         | OpenFOAM: The Open Source CFD Toolbox
   \\    /   O peration     | Website:  https://openfoam.org
    \\  /    A nd           | Version:  13
     \\/     M anipulation  |
\*---------------------------------------------------------------------------*/
FoamFile
{
    format      ascii;
    class       volScalarField;
    location    "5.5";
    object      T;
}
// * * * * * * * * * * * * * * * * * * * * * * * * * * * * * * * * * * * * * //

dimensions      [0 0 0 1 0 0 0];

internalField   nonuniform List<scalar> 
5250
(
1
1.00002
1.00004
1.00011
1.00025
1.00068
1.00156
1.00404
1.00978
1.02464
1.06229
1.16414
1.44162
2.10563
2.6525
2.76156
2.74371
2.73828
2.74987
2.76641
2.77906
2.78692
2.79333
2.79797
2.80004
1
1.00002
1.00004
1.0001
1.00026
1.00065
1.00155
1.00403
1.00941
1.02468
1.06065
1.16202
1.43361
2.09185
2.64768
2.76131
2.74294
2.73718
2.7488
2.76529
2.77788
2.78574
2.79215
2.79677
2.79875
1
1.00001
1.00004
1.00009
1.00027
1.00057
1.00166
1.00351
1.00988
1.0225
1.06024
1.15443
1.41889
2.05959
2.63621
2.75996
2.7405
2.73392
2.74556
2.76192
2.77444
2.78248
2.78873
2.79342
2.79558
1
1.00001
1.00004
1.0001
1.00023
1.00061
1.00141
1.00363
1.00883
1.02214
1.05593
1.14659
1.39447
2.00953
2.61762
2.75726
2.7362
2.72832
2.73989
2.75639
2.76903
2.77663
2.78348
2.78776
2.78967
1
1.00001
1.00003
1.0001
1.00021
1.00058
1.00128
1.00345
1.00805
1.02082
1.05146
1.13568
1.36328
1.94127
2.59124
2.75204
2.72937
2.71992
2.73155
2.74801
2.76088
2.76902
2.77517
2.78014
2.78217
1
1.00001
1.00004
1.00007
1.00022
1.00047
1.00131
1.00291
1.00777
1.01833
1.04764
1.1218
1.3277
1.85585
2.55513
2.74212
2.71863
2.70789
2.71961
2.73659
2.74985
2.75808
2.76411
2.76854
2.77063
1
1.00001
1.00003
1.00007
1.00019
1.00046
1.00111
1.00282
1.00666
1.01723
1.04192
1.10995
1.29114
1.76728
2.51123
2.72811
2.70442
2.69321
2.70489
2.72118
2.73528
2.74284
2.74897
2.75301
2.75367
1
1.00001
1.00003
1.00006
1.00018
1.00037
1.00112
1.0023
1.00658
1.0147
1.03937
1.098
1.26423
1.69938
2.46396
2.71355
2.69243
2.682
2.6906
2.70457
2.71691
2.72405
2.72818
2.72992
2.72721
1
1.00001
1.00002
1.00006
1.00014
1.0004
1.00085
1.00245
1.00524
1.01456
1.03382
1.09031
1.23631
1.63326
2.39482
2.68709
2.68253
2.67512
2.67715
2.68705
2.69629
2.70022
2.70109
2.69675
2.68288
1
1.00001
1.00002
1.00006
1.00013
1.00036
1.00079
1.00211
1.00492
1.0126
1.03088
1.07971
1.2105
1.56365
2.30361
2.65137
2.67507
2.66724
2.66368
2.66853
2.67297
2.67258
2.66545
2.64525
2.58667
1
1.00001
1.00002
1.00005
1.00011
1.00031
1.00071
1.00182
1.0044
1.01094
1.02731
1.06946
1.18344
1.49165
2.18838
2.60429
2.66645
2.65745
2.64984
2.64959
2.64841
2.6412
2.62068
2.57249
2.4627
1
1.00001
1.00001
1.00005
1.00009
1.00027
1.00059
1.00161
1.00365
1.00961
1.02297
1.05961
1.15456
1.41599
2.0442
2.54285
2.65377
2.6445
2.63375
2.62967
2.62322
2.60751
2.57483
2.50645
2.38242
1
1
1.00001
1.00003
1.00009
1.0002
1.00055
1.00123
1.00322
1.00768
1.01943
1.04846
1.12628
1.33699
1.87166
2.46331
2.63114
2.62408
2.61401
2.60554
2.59605
2.57507
2.53163
2.46479
2.35482
1
1
1.00001
1.00003
1.00008
1.00016
1.00045
1.00098
1.00264
1.00608
1.01568
1.03822
1.09906
1.26007
1.68152
2.3647
2.59417
2.59507
2.58762
2.57902
2.56477
2.54378
2.50103
2.43113
2.34493
1
1
1.00001
1.00002
1.00005
1.00015
1.00032
1.0009
1.00193
1.00542
1.012
1.03221
1.07883
1.21104
1.55652
2.25572
2.55239
2.57072
2.5612
2.55181
2.53741
2.51167
2.47673
2.41198
2.33118
1
1
1.00001
1.00002
1.00005
1.00011
1.00029
1.00066
1.0017
1.0041
1.01013
1.02531
1.06379
1.16753
1.44588
2.08583
2.48233
2.55087
2.54295
2.52873
2.51316
2.48407
2.45037
2.39819
2.32345
1
1
1.00001
1.00002
1.00003
1.0001
1.0002
1.00057
1.00126
1.00332
1.00781
1.01993
1.04933
1.12879
1.34206
1.87672
2.38735
2.52468
2.52268
2.50803
2.49126
2.46226
2.42653
2.38252
2.31897
1
1
1
1.00001
1.00003
1.00006
1.00018
1.00037
1.00108
1.00223
1.00633
1.01404
1.03738
1.09185
1.24372
1.6336
2.26171
2.47941
2.49306
2.4816
2.46542
2.44
2.40535
2.36513
2.31276
1
1
1
1.00001
1.00002
1.00005
1.00014
1.00028
1.00082
1.00169
1.00488
1.01056
1.02865
1.06899
1.18392
1.48231
2.11717
2.42663
2.4671
2.4572
2.44078
2.41687
2.38605
2.34818
2.30349
1
1
1
1.00001
1.00001
1.00004
1.00009
1.00025
1.00052
1.0015
1.00321
1.00876
1.02019
1.05297
1.13434
1.35841
1.90059
2.33195
2.4365
2.43443
2.41919
2.39597
2.36732
2.33305
2.29228
1
1
1
1
1.00001
1.00003
1.00006
1.00018
1.00038
1.00109
1.00226
1.00644
1.01407
1.03784
1.09228
1.24474
1.63379
2.19944
2.38981
2.40585
2.39587
2.37464
2.3476
2.31747
2.28078
1
1
1
1
1.00001
1.00002
1.00005
1.00012
1.00028
1.00076
1.00166
1.00459
1.01008
1.02717
1.06484
1.17216
1.44811
2.03231
2.32827
2.37749
2.37093
2.35338
2.32802
2.30055
2.26881
1
1
1
1
1.00001
1.00001
1.00004
1.00008
1.00022
1.00051
1.00125
1.00311
1.00742
1.01888
1.04599
1.11961
1.31233
1.79332
2.22295
2.3404
2.3452
2.33411
2.31187
2.28453
2.25519
1
1
1
1
1
1.00001
1.00003
1.00005
1.00016
1.00033
1.00091
1.00199
1.00529
1.01226
1.03129
1.07732
1.20076
1.52246
2.06757
2.28237
2.31494
2.30977
2.29297
2.26821
2.24092
1
1
1
1
1
1.00001
1.00002
1.00004
1.0001
1.00023
1.00062
1.00136
1.00372
1.00815
1.02197
1.05165
1.13646
1.35285
1.85906
2.19895
2.28154
2.285
2.27421
2.25285
2.22608
1
1
1
1
1
1.00001
1.00001
1.00003
1.00006
1.00017
1.00038
1.00096
1.00234
1.00558
1.01416
1.03376
1.08686
1.22161
1.5746
2.06127
2.23358
2.25744
2.2521
2.23472
2.21167
1
1
1
1
1
1
1.00001
1.00002
1.00005
1.0001
1.00028
1.00058
1.00167
1.00349
1.00969
1.02173
1.05728
1.14231
1.37463
1.86926
2.16062
2.22562
2.22846
2.21796
2.19665
1
1
1
1
1
1
1.00001
1.00001
1.00003
1.00006
1.00019
1.00038
1.00107
1.0023
1.00617
1.01411
1.03632
1.0893
1.23217
1.59288
2.03185
2.18147
2.20268
2.19743
2.18177
1
1
1
1
1
1
1
1.00001
1.00002
1.00004
1.00011
1.00026
1.00065
1.00157
1.00375
1.00941
1.02231
1.05668
1.14229
1.37171
1.84085
2.1073
2.16924
2.17379
2.16545
1
1
1
1
1
1
1
1
1.00001
1.00003
1.00007
1.00016
1.00044
1.0009
1.00257
1.0054
1.0147
1.03362
1.08764
1.22048
1.56429
1.97824
2.12475
2.14841
2.14601
1
1
1
1
1
1
1
1
1.00001
1.00002
1.00004
1.00011
1.00025
1.00062
1.00149
1.00353
1.00891
1.02084
1.05333
1.13204
1.34512
1.78253
2.04718
2.11492
2.12303
1
1
1
1
1
1
1
1
1
1.00001
1.00003
1.00006
1.00017
1.00035
1.00094
1.00207
1.00537
1.01246
1.03127
1.07651
1.19532
1.49612
1.90828
2.06821
2.09661
1
1
1
1
1
1
1
1
1
1.00001
1.00002
1.00004
1.0001
1.00022
1.00057
1.00125
1.00338
1.00731
1.01963
1.04507
1.11779
1.2981
1.70328
1.9872
2.06568
1
1
1
1
1
1
1
1
1
1
1.00001
1.00002
1.00006
1.00013
1.00032
1.0008
1.00181
1.00472
1.01051
1.02748
1.06458
1.16644
1.42276
1.83086
2.01057
1
1
1
1
1
1
1
1
1
1
1.00001
1.00001
1.00003
1.00008
1.00018
1.0005
1.00104
1.0029
1.00609
1.01654
1.03754
1.09773
1.24465
1.59755
1.91403
1
1
1
1
1
1
1
1
1
1
1
1.00001
1.00002
1.00005
1.00011
1.00027
1.00067
1.0015
1.00395
1.00866
1.02284
1.05296
1.13645
1.34688
1.73504
1
1
1
1
1
1
1
1
1
1
1
1
1.00001
1.00003
1.00006
1.00016
1.00036
1.00092
1.00204
1.00539
1.01179
1.03096
1.07231
1.18642
1.46086
1
1
1
1
1
1
1
1
1
1
1
1
1.00001
1.00001
1.00004
1.00008
1.00023
1.00047
1.00129
1.00281
1.00722
1.01682
1.0418
1.10285
1.26218
1
1
1
1
1
1
1
1
1
1
1
1
1
1.00001
1.00002
1.00005
1.00011
1.0003
1.00067
1.00164
1.00392
1.0093
1.02294
1.05503
1.13813
1
1
1
1
1
1
1
1
1
1
1
1
1
1
1.00001
1.00003
1.00007
1.00016
1.00037
1.00093
1.00207
1.0054
1.01183
1.0309
1.07164
1
1
1
1
1
1
1
1
1
1
1
1
1
1
1.00001
1.00002
1.00004
1.00009
1.00022
1.00048
1.0013
1.00268
1.00744
1.01587
1.04187
1
1
1
1
1
1
1
1
1
1
1
1
1
1
1
1.00001
1.00002
1.00005
1.00013
1.00028
1.00074
1.00158
1.00426
1.00909
1.02413
1
1
1
1
1
1
1
1
1
1
1
1
1
1
1
1.00001
1.00001
1.00003
1.00008
1.00019
1.00046
1.00109
1.00271
1.00622
1.01598
1
1
1
1
1
1
1
1
1
1
1
1
1
1
1
1
1.00001
1.00003
1.00006
1.00015
1.00038
1.00086
1.00228
1.00505
1.01365
1
1
1
1
1
1
1
1
1
1
1
1
1
1
1
1
1.00001
1.00002
1.00006
1.00013
1.00035
1.00076
1.00212
1.00461
1.01272
1
1
1
1
1
1
1
1
1
1
1
1
1
1
1
1
1.00001
1.00002
1.00006
1.00012
1.00034
1.00071
1.00204
1.00451
1.01216
1
1
1
1
1
1
1
1
1
1
1
1
1
1
1
1
1.00001
1.00002
1.00005
1.00013
1.0003
1.00081
1.00178
1.00498
1.0111
1
1
1
1
1
1
1
1
1
1
1
1
1
1
1
1
1.00001
1.00002
1.00005
1.00014
1.00028
1.00082
1.00175
1.0049
1.01117
1
1
1
1
1
1
1
1
1
1
1
1
1
1
1
1
1.00001
1.00002
1.00005
1.00013
1.0003
1.00077
1.00187
1.00461
1.01165
1
1
1
1
1
1
1
1
1
1
1
1
1
1
1
1
1.00001
1.00002
1.00005
1.00012
1.00033
1.00069
1.00203
1.0043
1.0121
2.27887
2.27503
2.56955
2.74909
2.87315
2.8626
2.81552
2.78303
2.76734
2.76043
2.75023
2.73971
2.72463
2.71425
2.70291
2.6926
2.68283
2.6716
2.66105
2.65124
2.64075
2.63024
2.62189
2.6163
2.61369
2.61275
2.61821
2.62994
2.65187
2.67819
2.70838
2.73748
2.7656
2.79037
2.812
2.82924
2.84424
2.85484
2.86444
2.87106
2.87441
2.87609
2.87637
2.87651
2.87425
2.87212
2.86707
2.86391
2.85726
2.85335
2.84493
2.84012
2.83022
2.82517
2.81492
2.80937
2.79983
2.79273
2.78457
2.77676
2.76949
2.762
2.7551
2.74864
2.7425
2.73707
2.73225
2.72806
2.72467
2.72208
2.72023
2.71905
2.71803
2.71726
2.71677
2.71682
2.71663
2.71588
2.71473
2.71358
2.71156
2.70938
2.70503
2.70124
2.69433
2.68938
2.68151
2.6745
2.66596
2.65862
2.64949
2.64115
2.6319
2.62371
2.61461
2.6068
2.59891
2.59283
2.58764
2.5843
2.28053
2.2982
2.4582
2.63784
2.76964
2.82202
2.85187
2.89059
2.91659
2.88884
2.86369
2.84797
2.82316
2.81147
2.80309
2.79069
2.78201
2.77524
2.76528
2.75674
2.75028
2.73985
2.73221
2.72788
2.72602
2.7259
2.73206
2.74323
2.76236
2.7836
2.80485
2.82474
2.84075
2.853
2.86157
2.86784
2.87044
2.87175
2.86913
2.86491
2.85491
2.85022
2.84042
2.83518
2.82448
2.81763
2.8062
2.79825
2.78674
2.77841
2.76679
2.75694
2.74519
2.73492
2.72426
2.71362
2.70351
2.69305
2.68321
2.67352
2.66403
2.65513
2.64655
2.63846
2.631
2.62415
2.61792
2.6125
2.60777
2.60383
2.60065
2.59819
2.59578
2.59374
2.59196
2.59069
2.58915
2.58739
2.58489
2.58316
2.57983
2.57695
2.57215
2.56733
2.56094
2.55463
2.54722
2.54002
2.5317
2.52357
2.51495
2.50647
2.49755
2.4889
2.4804
2.4724
2.46486
2.4584
2.45341
2.44998
2.27714
2.25926
2.30606
2.4051
2.50019
2.57853
2.66037
2.71187
2.79742
2.83732
2.85567
2.87746
2.8797
2.87345
2.85987
2.85481
2.85523
2.85835
2.8581
2.84855
2.83554
2.83039
2.82562
2.82129
2.82044
2.82289
2.82748
2.83444
2.84582
2.85706
2.86663
2.87094
2.87218
2.871
2.86584
2.86138
2.85212
2.8444
2.83411
2.82545
2.81534
2.80638
2.79572
2.78596
2.77468
2.76406
2.75219
2.7409
2.72921
2.71798
2.70668
2.69435
2.68236
2.67042
2.65898
2.64776
2.63653
2.62584
2.61519
2.60506
2.59522
2.58586
2.57687
2.56855
2.56065
2.55353
2.54699
2.54126
2.53612
2.53189
2.52815
2.52535
2.52239
2.51994
2.51747
2.51572
2.51323
2.51119
2.50794
2.5058
2.50196
2.49852
2.49328
2.48848
2.482
2.47597
2.46845
2.46158
2.45337
2.44578
2.43707
2.42923
2.42051
2.41262
2.40409
2.39682
2.38939
2.38362
2.37871
2.37587
2.26577
2.22176
2.22216
2.26173
2.31727
2.37336
2.43514
2.50533
2.56195
2.63245
2.6968
2.76066
2.79633
2.81318
2.81866
2.82602
2.83697
2.85071
2.85761
2.8614
2.86413
2.86666
2.86698
2.86522
2.86384
2.86449
2.87053
2.87343
2.8735
2.86797
2.85778
2.84713
2.83166
2.8183
2.80497
2.79262
2.78005
2.7689
2.75738
2.74685
2.73546
2.72425
2.71279
2.70113
2.6897
2.67739
2.66571
2.65325
2.64151
2.63006
2.61861
2.60699
2.59461
2.58318
2.57162
2.56087
2.5499
2.53969
2.52932
2.51981
2.5102
2.50156
2.49288
2.48528
2.47771
2.4713
2.46498
2.45986
2.4548
2.45102
2.44722
2.4448
2.44174
2.43987
2.43714
2.43569
2.43306
2.43132
2.4283
2.42624
2.42257
2.41927
2.41445
2.41003
2.40418
2.39851
2.39165
2.38495
2.3773
2.36989
2.36179
2.35388
2.34562
2.33762
2.32962
2.32188
2.31475
2.3084
2.30372
2.30015
2.26108
2.20162
2.17886
2.18201
2.20836
2.24389
2.28005
2.32887
2.3805
2.43047
2.48061
2.53179
2.59381
2.65656
2.70627
2.73411
2.74978
2.75967
2.77583
2.78855
2.79627
2.80724
2.82262
2.8346
2.84211
2.84424
2.84222
2.83295
2.81991
2.79884
2.77915
2.75599
2.73748
2.7193
2.70403
2.68943
2.67673
2.66409
2.65251
2.64052
2.62924
2.61761
2.60656
2.59563
2.58488
2.57428
2.56362
2.55301
2.54236
2.53255
2.5225
2.51294
2.50208
2.49229
2.48193
2.47294
2.46314
2.45459
2.44519
2.43716
2.42834
2.42106
2.41301
2.40668
2.39962
2.39437
2.38843
2.38426
2.37946
2.37633
2.37262
2.37045
2.36746
2.36568
2.36289
2.36115
2.35845
2.35648
2.35363
2.35115
2.3479
2.34485
2.34096
2.33702
2.33242
2.32749
2.32206
2.31623
2.31
2.30337
2.29661
2.28963
2.28248
2.27532
2.26819
2.26144
2.25504
2.24955
2.24515
2.24242
2.25533
2.19632
2.1564
2.14306
2.14533
2.16025
2.18127
2.20656
2.24202
2.28029
2.31846
2.3565
2.39944
2.44548
2.49718
2.54744
2.58605
2.62027
2.64698
2.6695
2.68945
2.70591
2.71863
2.73001
2.7389
2.7441
2.74433
2.73508
2.71585
2.69053
2.66305
2.63666
2.61498
2.59722
2.58297
2.57077
2.56003
2.55
2.54036
2.53136
2.5223
2.51384
2.50498
2.49663
2.48765
2.47941
2.4704
2.46211
2.45307
2.44513
2.43669
2.42903
2.41989
2.41147
2.40235
2.3947
2.38626
2.37917
2.37118
2.36458
2.35709
2.35112
2.34432
2.33912
2.33317
2.32889
2.32372
2.32032
2.31593
2.31331
2.3096
2.30762
2.30448
2.30282
2.29978
2.29803
2.295
2.29295
2.28981
2.28744
2.28389
2.28108
2.27708
2.27362
2.26895
2.26475
2.25931
2.25431
2.24812
2.24241
2.23567
2.22939
2.22228
2.21577
2.20879
2.20259
2.1963
2.19119
2.1868
2.1844
2.25279
2.19543
2.1482
2.12106
2.109
2.10968
2.11591
2.12926
2.14659
2.17137
2.19887
2.22629
2.25801
2.29043
2.32638
2.36711
2.40643
2.44366
2.47842
2.51018
2.53837
2.5665
2.5896
2.61146
2.62703
2.64368
2.64364
2.63361
2.60772
2.57451
2.54096
2.51054
2.48595
2.46849
2.45787
2.45149
2.44614
2.44141
2.43618
2.43098
2.42537
2.41984
2.41396
2.40824
2.40208
2.39619
2.38962
2.38343
2.37635
2.37012
2.36342
2.35748
2.35027
2.34326
2.33536
2.3286
2.32112
2.3149
2.30779
2.30201
2.29532
2.2901
2.284
2.27956
2.27423
2.2706
2.26608
2.26324
2.25935
2.25709
2.25363
2.25177
2.2485
2.24679
2.24339
2.24154
2.23789
2.23578
2.23216
2.22972
2.22606
2.22336
2.21954
2.21646
2.21239
2.20884
2.20435
2.20021
2.19515
2.19034
2.18469
2.1792
2.17303
2.16721
2.16091
2.15522
2.14931
2.14453
2.14022
2.13807
2.25193
2.19669
2.14851
2.11158
2.08936
2.07647
2.07595
2.07785
2.08563
2.09806
2.1148
2.13398
2.15444
2.17886
2.2032
2.23114
2.26269
2.29263
2.32338
2.35477
2.38442
2.41767
2.44567
2.47712
2.50271
2.53503
2.54371
2.53388
2.50523
2.46815
2.43019
2.39637
2.37053
2.34997
2.34138
2.33926
2.34111
2.34254
2.34269
2.34164
2.33951
2.33684
2.33345
2.32971
2.32535
2.32102
2.31611
2.31147
2.30617
2.30144
2.29621
2.29189
2.28649
2.2814
2.275
2.26952
2.26339
2.25848
2.25287
2.24852
2.24328
2.23952
2.23475
2.23161
2.22744
2.22492
2.22118
2.21914
2.21571
2.21396
2.2106
2.20885
2.20536
2.20342
2.19966
2.19738
2.1936
2.19094
2.18707
2.18425
2.18035
2.17743
2.17346
2.17043
2.16632
2.16311
2.15872
2.15512
2.15033
2.14616
2.14084
2.13602
2.13031
2.12506
2.11916
2.1139
2.10826
2.10372
2.09948
2.0974
2.25054
2.1969
2.1511
2.11007
2.08212
2.0607
2.04954
2.04499
2.04549
2.04928
2.05715
2.06934
2.08175
2.09736
2.1157
2.13322
2.15585
2.18004
2.20359
2.23249
2.25795
2.28973
2.31764
2.35648
2.39763
2.44337
2.45726
2.44673
2.41713
2.37975
2.33818
2.30175
2.27407
2.25273
2.24078
2.23696
2.24119
2.24841
2.25441
2.25915
2.2616
2.263
2.26255
2.2614
2.25971
2.25756
2.25493
2.25213
2.2488
2.24542
2.24168
2.23843
2.23473
2.23123
2.22661
2.22227
2.2172
2.21316
2.20847
2.20506
2.2009
2.19806
2.19441
2.19214
2.18885
2.18703
2.18404
2.18242
2.17938
2.17775
2.17446
2.17259
2.16879
2.16658
2.1624
2.15974
2.15551
2.15261
2.14834
2.1453
2.14107
2.13806
2.13396
2.13101
2.12705
2.12406
2.12017
2.11694
2.11289
2.10916
2.10462
2.10029
2.09527
2.09051
2.08507
2.08025
2.07485
2.07066
2.06646
2.06463
2.24697
2.19825
2.15215
2.11225
2.07859
2.05458
2.0357
2.02528
2.01854
2.01801
2.01898
2.02348
2.03132
2.03918
2.05148
2.0637
2.07762
2.09621
2.115
2.14103
2.16437
2.1938
2.22326
2.26862
2.32565
2.37947
2.39214
2.37948
2.35143
2.31334
2.26956
2.22999
2.20147
2.1821
2.1683
2.16053
2.15998
2.16615
2.1764
2.1861
2.1945
2.1999
2.20369
2.20508
2.20626
2.20569
2.2048
2.20357
2.20163
2.1996
2.19685
2.19441
2.19149
2.18907
2.18587
2.18281
2.17882
2.17564
2.17185
2.16907
2.16582
2.16365
2.16075
2.15911
2.15649
2.15512
2.15251
2.15108
2.14818
2.14646
2.14297
2.14073
2.13654
2.13373
2.12919
2.12594
2.12102
2.11752
2.1125
2.109
2.10403
2.10069
2.09598
2.09288
2.0886
2.08566
2.08178
2.07887
2.07513
2.07205
2.06805
2.06458
2.06007
2.05616
2.05112
2.04689
2.04171
2.03768
2.03352
2.03141
2.24071
2.19704
2.15417
2.11409
2.0796
2.05164
2.0293
2.01406
2.00256
1.99656
1.99336
1.99358
1.99538
1.99966
2.00529
2.01411
2.02238
2.03585
2.05098
2.07312
2.09508
2.12457
2.16144
2.21932
2.29176
2.3438
2.34984
2.33449
2.30697
2.26722
2.2221
2.18246
2.15176
2.13003
2.11583
2.10564
2.10033
2.10051
2.10671
2.1169
2.12879
2.13855
2.14682
2.15196
2.15593
2.15731
2.1589
2.15873
2.15835
2.15757
2.15639
2.15515
2.15338
2.15201
2.15012
2.14829
2.14587
2.14375
2.14116
2.13943
2.13736
2.13618
2.13428
2.13318
2.13126
2.13023
2.12816
2.12686
2.12421
2.12241
2.1188
2.11618
2.11185
2.10865
2.10375
2.10011
2.09484
2.09101
2.08558
2.08174
2.07641
2.07272
2.06776
2.06432
2.05988
2.05671
2.05279
2.04985
2.04623
2.0434
2.03973
2.03674
2.03275
2.02942
2.02501
2.02129
2.01668
2.01295
2.00916
2.00707
2.23193
2.19381
2.15405
2.11643
2.08149
2.05205
2.02735
2.00787
1.99393
1.98273
1.9765
1.97199
1.97122
1.97152
1.97367
1.97863
1.98397
1.99496
2.00737
2.02606
2.04675
2.0793
2.12698
2.20598
2.28788
2.3249
2.3243
2.30703
2.27666
2.23534
2.19101
2.15258
2.12084
2.09687
2.07969
2.06845
2.06118
2.05721
2.05605
2.0605
2.06954
2.0812
2.09296
2.10266
2.11079
2.11586
2.12007
2.12144
2.12317
2.12332
2.12318
2.12291
2.12227
2.12176
2.12068
2.11957
2.11836
2.11709
2.11508
2.11397
2.11257
2.11185
2.11063
2.10996
2.10862
2.10769
2.10574
2.10428
2.1013
2.09897
2.0949
2.09188
2.08696
2.08324
2.07756
2.07334
2.06724
2.06282
2.05666
2.0523
2.04639
2.04222
2.03676
2.03288
2.028
2.0245
2.02023
2.01719
2.0134
2.01076
2.00718
2.00468
2.00101
1.99836
1.99441
1.99141
1.98726
1.98414
1.98066
1.97885
2.22255
2.18732
2.15175
2.11636
2.08311
2.0529
2.02732
2.00545
1.98882
1.97558
1.96575
1.95871
1.9542
1.95159
1.95147
1.95295
1.95745
1.96697
1.97937
1.99579
2.01981
2.05839
2.12617
2.22306
2.29913
2.31671
2.3086
2.28918
2.25565
2.21308
2.17121
2.13521
2.10481
2.07972
2.05956
2.04412
2.03321
2.02601
2.0215
2.02003
2.02266
2.03011
2.0413
2.05316
2.06488
2.07365
2.08115
2.08535
2.08895
2.0905
2.09169
2.09256
2.09276
2.09302
2.09318
2.09332
2.09333
2.09324
2.09288
2.09251
2.09209
2.09171
2.09088
2.09026
2.08922
2.08833
2.08649
2.08482
2.08164
2.07889
2.07465
2.07106
2.06585
2.06151
2.05553
2.05067
2.04426
2.03918
2.03267
2.02764
2.02133
2.01658
2.01068
2.00638
2.00105
1.99728
1.99257
1.98936
1.98523
1.98253
1.97886
1.97654
1.97315
1.97089
1.96753
1.96504
1.96162
1.95893
1.95604
1.95432
2.21135
2.18061
2.14744
2.11498
2.08343
2.05361
2.02774
2.00457
1.9855
1.97054
1.95862
1.94952
1.94313
1.93844
1.93616
1.93618
1.94059
1.94959
1.96182
1.9798
2.01063
2.064
2.15969
2.25884
2.30763
2.31052
2.29897
2.27431
2.23868
2.19771
2.16058
2.12746
2.0983
2.07263
2.05074
2.03203
2.01696
2.00568
1.99826
1.99375
1.99096
1.99153
1.99626
2.00577
2.0177
2.02958
2.0409
2.04941
2.05635
2.06075
2.06362
2.06573
2.06665
2.06792
2.0688
2.06959
2.07044
2.07106
2.07165
2.07201
2.07199
2.07182
2.07138
2.07057
2.06927
2.0683
2.06635
2.06452
2.06118
2.05808
2.05342
2.04928
2.04355
2.03857
2.03208
2.02661
2.01976
2.01416
2.00725
2.00176
1.99498
1.98976
1.98332
1.97858
1.9727
1.96856
1.96338
1.95986
1.95538
1.95244
1.94861
1.94626
1.94295
1.94095
1.93789
1.93595
1.93294
1.93101
1.92854
1.92743
2.19924
2.17118
2.14237
2.11149
2.08229
2.05376
2.02759
2.00452
1.98399
1.96702
1.95357
1.94265
1.93471
1.92879
1.92582
1.92596
1.93139
1.9406
1.95431
1.9788
2.02242
2.1042
2.21451
2.29259
2.31103
2.30575
2.29098
2.26317
2.22643
2.18993
2.15662
2.12569
2.09759
2.07186
2.04899
2.0281
2.01053
1.99539
1.98332
1.97481
1.97004
1.96649
1.96587
1.96832
1.97536
1.98604
1.99803
2.00951
2.01952
2.02723
2.03293
2.03706
2.04022
2.04251
2.04459
2.04631
2.04796
2.04912
2.05085
2.05155
2.05232
2.05248
2.05219
2.05154
2.05014
2.04892
2.04677
2.04436
2.04044
2.03674
2.03158
2.02691
2.02076
2.01536
2.00858
2.00275
1.9957
1.98977
1.98271
1.9769
1.96997
1.96443
1.95777
1.95267
1.94649
1.94198
1.93639
1.93252
1.92757
1.92432
1.92007
1.91757
1.91405
1.91214
1.90915
1.90756
1.90487
1.90336
1.90134
1.9004
2.18692
2.16102
2.13471
2.10758
2.0794
2.05256
2.02702
2.00413
1.98327
1.96523
1.95019
1.93786
1.92876
1.92164
1.91899
1.92086
1.9278
1.93895
1.95728
1.99415
2.05975
2.17248
2.2704
2.30935
2.31079
2.30184
2.28189
2.25214
2.21816
2.18626
2.15587
2.12755
2.10065
2.07548
2.05184
2.02986
2.01006
1.9919
1.97673
1.96428
1.95492
1.94877
1.94453
1.9424
1.94252
1.94664
1.95542
1.96687
1.97913
1.98986
1.99934
2.00635
2.01205
2.01591
2.0196
2.02171
2.0248
2.02652
2.02886
2.03012
2.0316
2.03168
2.03132
2.03042
2.02864
2.02703
2.02458
2.02184
2.01764
2.01363
2.00825
2.00321
1.99684
1.99109
1.98418
1.97812
1.97102
1.96489
1.95777
1.95169
1.94458
1.93866
1.9317
1.92621
1.91967
1.91482
1.9089
1.90474
1.89944
1.89595
1.89142
1.88869
1.88496
1.88299
1.87998
1.8786
1.87617
1.87513
1.87356
1.87304
2.1734
2.14932
2.12464
2.10027
2.07455
2.04959
2.02472
2.00235
1.98219
1.96329
1.94829
1.93421
1.92504
1.91721
1.91638
1.92072
1.92943
1.94525
1.97374
2.03075
2.1333
2.24564
2.30414
2.31394
2.30907
2.29591
2.27248
2.24272
2.21313
2.18495
2.15741
2.13106
2.10501
2.08027
2.05615
2.03361
2.01231
1.99269
1.97513
1.95947
1.94613
1.93564
1.92791
1.92283
1.91896
1.91808
1.91945
1.92534
1.93558
1.94714
1.95941
1.97031
1.97947
1.98699
1.99234
1.9971
2.00028
2.00359
2.00549
2.00786
2.0093
2.00995
2.00951
2.00856
2.00691
2.00493
2.00217
1.99885
1.99417
1.98967
1.98417
1.97897
1.97266
1.96679
1.95993
1.95377
1.94665
1.94044
1.93325
1.92717
1.92003
1.91414
1.90712
1.90155
1.89484
1.88975
1.88355
1.87903
1.87346
1.86964
1.86486
1.86183
1.85786
1.85564
1.85247
1.85102
1.84863
1.84777
1.8465
1.8462
2.15852
2.13781
2.11438
2.09128
2.06841
2.04437
2.02225
1.99876
1.98006
1.96059
1.94551
1.93176
1.92157
1.91655
1.91801
1.92543
1.93807
1.96241
2.01072
2.10086
2.21688
2.29482
2.3156
2.31419
2.30615
2.28824
2.2629
2.23567
2.20991
2.18455
2.15916
2.13414
2.10904
2.08453
2.06062
2.03755
2.01577
1.99494
1.97581
1.95748
1.94149
1.9271
1.91547
1.90669
1.90016
1.89604
1.89347
1.89357
1.89677
1.90484
1.91619
1.92954
1.94165
1.95286
1.96204
1.96863
1.97505
1.97869
1.98198
1.98507
1.98591
1.98732
1.98673
1.98542
1.98361
1.9815
1.97862
1.97516
1.9705
1.96576
1.96023
1.95495
1.94879
1.94297
1.93624
1.93016
1.92316
1.91704
1.90993
1.90389
1.89675
1.89081
1.88376
1.87802
1.87123
1.86585
1.85948
1.85461
1.8489
1.84478
1.83981
1.83649
1.83228
1.82982
1.82643
1.82487
1.82242
1.8217
1.8206
1.82061
2.14751
2.12306
2.10379
2.0805
2.06019
2.03787
2.01723
1.996
1.97616
1.95906
1.94175
1.93036
1.9195
1.91929
1.92441
1.93487
1.95541
1.99785
2.07486
2.19179
2.28069
2.31451
2.31586
2.31041
2.29723
2.27653
2.2531
2.22969
2.20648
2.18311
2.15944
2.13575
2.1115
2.08778
2.06399
2.04101
2.01855
1.99681
1.97609
1.95635
1.93827
1.92144
1.90714
1.89433
1.8851
1.87765
1.87327
1.86978
1.86894
1.87013
1.87594
1.88653
1.89934
1.91352
1.92613
1.93706
1.94634
1.95244
1.95754
1.96108
1.96245
1.96414
1.96337
1.96195
1.96022
1.9583
1.95518
1.95157
1.94686
1.94217
1.93659
1.93131
1.92527
1.9196
1.91316
1.90716
1.90045
1.89431
1.88746
1.88132
1.87446
1.86845
1.86168
1.85586
1.84922
1.84365
1.83727
1.83221
1.82635
1.82198
1.81676
1.8132
1.80873
1.80605
1.80246
1.80076
1.79823
1.79749
1.79658
1.79668
2.13261
2.11166
2.0907
2.07209
2.04967
2.03113
2.00965
1.99123
1.97141
1.95501
1.94007
1.92806
1.92264
1.92544
1.93527
1.95273
1.98957
2.05587
2.16841
2.26552
2.30937
2.31473
2.31125
2.30157
2.28494
2.2643
2.24383
2.22286
2.20181
2.1801
2.15777
2.13508
2.11166
2.08846
2.06483
2.04195
2.01901
1.99705
1.97538
1.95524
1.93543
1.9179
1.90089
1.88658
1.87351
1.86347
1.85547
1.85073
1.84715
1.84586
1.84622
1.85011
1.85893
1.87202
1.88638
1.90011
1.91284
1.9224
1.93027
1.93524
1.93814
1.93989
1.93931
1.93789
1.93612
1.93424
1.93099
1.92739
1.92292
1.91845
1.91308
1.90786
1.90201
1.89645
1.89031
1.88441
1.87799
1.87188
1.86532
1.85918
1.85255
1.84651
1.83989
1.83403
1.82751
1.822
1.81578
1.81072
1.8049
1.80041
1.79512
1.79133
1.78672
1.78378
1.78
1.77806
1.7754
1.77451
1.7737
1.77383
2.11689
2.10126
2.07883
2.06085
2.0412
2.02193
2.00393
1.98452
1.96775
1.95076
1.93766
1.92936
1.9301
1.93866
1.95375
1.9849
2.0438
2.1494
2.25014
2.30079
2.30986
2.30773
2.30088
2.28731
2.26949
2.25196
2.2343
2.21581
2.19667
2.17607
2.1547
2.13245
2.10949
2.08656
2.06326
2.04041
2.01762
1.99532
1.97369
1.95267
1.93281
1.9138
1.89632
1.87993
1.86558
1.85277
1.84252
1.83465
1.83006
1.82723
1.82555
1.82587
1.82865
1.83602
1.84679
1.86029
1.87392
1.8866
1.89742
1.90505
1.91042
1.91312
1.91375
1.91264
1.91099
1.9091
1.90608
1.90253
1.89831
1.89397
1.88902
1.8841
1.87856
1.87323
1.86732
1.86177
1.8556
1.84985
1.84346
1.83756
1.83107
1.82516
1.8187
1.81298
1.80676
1.80133
1.79534
1.79024
1.78452
1.77991
1.7746
1.77067
1.76595
1.76286
1.75892
1.75681
1.75403
1.75299
1.75224
1.75235
2.09716
2.08737
2.06745
2.04895
2.03019
2.01251
1.99483
1.97828
1.96127
1.94827
1.93614
1.9362
1.94318
1.95716
1.98488
2.0408
2.13575
2.23586
2.29018
2.3029
2.30139
2.29618
2.28527
2.26981
2.25441
2.23906
2.22328
2.20604
2.18795
2.16811
2.14793
2.12611
2.10438
2.08178
2.05925
2.03671
2.01437
1.99213
1.97087
1.94945
1.92983
1.91015
1.89257
1.87538
1.86037
1.84632
1.83448
1.82455
1.81683
1.81211
1.8097
1.80767
1.80782
1.80932
1.81447
1.82293
1.834
1.84647
1.85831
1.86859
1.87663
1.88201
1.88517
1.88559
1.8845
1.88317
1.88084
1.87783
1.8738
1.86966
1.86495
1.86022
1.85504
1.84992
1.84447
1.8391
1.83346
1.82793
1.82211
1.81637
1.81029
1.80446
1.7984
1.79276
1.78684
1.78146
1.77567
1.77059
1.76499
1.76039
1.75514
1.75122
1.74653
1.74343
1.73957
1.73736
1.73484
1.73368
1.73329
1.73344
2.07679
2.072
2.05761
2.03815
2.02063
2.00288
1.98679
1.97082
1.95681
1.94564
1.94236
1.94818
1.96246
1.9883
2.04007
2.13028
2.22635
2.27937
2.29409
2.29294
2.28836
2.27793
2.26418
2.25112
2.23849
2.22555
2.21112
2.19512
2.17757
2.15885
2.13901
2.11823
2.09662
2.0748
2.05247
2.03081
2.00853
1.98738
1.96585
1.94556
1.9256
1.90687
1.88887
1.87206
1.85642
1.84186
1.82913
1.81794
1.80836
1.80167
1.79591
1.79342
1.79037
1.79023
1.79052
1.79309
1.7991
1.80761
1.81756
1.82803
1.83766
1.84617
1.85201
1.85586
1.85655
1.85593
1.85456
1.85271
1.84952
1.84569
1.84124
1.83688
1.83201
1.82726
1.82202
1.817
1.8115
1.80627
1.80051
1.79509
1.78928
1.78387
1.77807
1.77273
1.76701
1.76189
1.75632
1.75145
1.74604
1.74153
1.73648
1.73255
1.72813
1.72497
1.72151
1.71931
1.71724
1.71638
1.71632
1.71643
2.04714
2.05117
2.04402
2.02898
2.01014
1.99353
1.97757
1.96447
1.95291
1.94979
1.95518
1.96978
1.99509
2.04558
2.13213
2.22315
2.27292
2.2867
2.28479
2.27939
2.26851
2.25536
2.2443
2.23378
2.22333
2.21128
2.19779
2.18238
2.16572
2.14741
2.12867
2.10822
2.0881
2.06651
2.04575
2.02405
2.00323
1.98204
1.96179
1.94166
1.92252
1.90392
1.88628
1.86956
1.85405
1.83961
1.82664
1.81461
1.80461
1.7954
1.78828
1.78246
1.77801
1.77563
1.77259
1.77194
1.77212
1.775
1.78076
1.78776
1.79683
1.80573
1.81412
1.82041
1.82473
1.8264
1.82631
1.82547
1.82379
1.8213
1.81755
1.81358
1.80901
1.80445
1.79954
1.79464
1.78943
1.78416
1.77867
1.77329
1.76776
1.7624
1.7569
1.75165
1.74626
1.74122
1.73604
1.73131
1.72642
1.72211
1.71759
1.71384
1.70991
1.70696
1.70388
1.70217
1.70038
1.70045
1.70119
1.70089
2.01381
2.03069
2.0289
2.018
2.00188
1.98467
1.97047
1.95933
1.95586
1.96166
1.97699
2.00373
2.05505
2.1404
2.22649
2.27049
2.28188
2.27861
2.27049
2.2568
2.24353
2.23263
2.22442
2.21597
2.20709
2.19612
2.18353
2.16879
2.15257
2.13514
2.11646
2.09751
2.07735
2.05764
2.03692
2.01704
1.99638
1.97674
1.95673
1.93784
1.91895
1.90128
1.88382
1.86788
1.85227
1.83829
1.82497
1.81314
1.80203
1.79203
1.78314
1.77518
1.76828
1.76256
1.75757
1.75414
1.75113
1.74951
1.74945
1.75194
1.75724
1.76405
1.77229
1.7799
1.78721
1.792
1.79544
1.79592
1.79554
1.79463
1.79265
1.78965
1.78556
1.78132
1.77678
1.77234
1.7676
1.76291
1.75806
1.7532
1.74822
1.74324
1.73818
1.73322
1.7281
1.72332
1.71823
1.71377
1.70889
1.70483
1.70049
1.69694
1.69355
1.69074
1.68867
1.68699
1.68668
1.68694
1.68836
1.68811
1.94425
1.99856
2.00822
2.00457
1.9927
1.97784
1.96559
1.96155
1.96812
1.98404
2.01384
2.06699
2.15327
2.2356
2.27328
2.28104
2.27617
2.26423
2.24688
2.23237
2.22147
2.21353
2.20652
2.19933
2.19074
2.18022
2.1678
2.1534
2.13806
2.12123
2.10398
2.08548
2.06681
2.04747
2.02803
2.00854
1.98893
1.96991
1.95093
1.93281
1.91489
1.89795
1.88134
1.86605
1.85113
1.83763
1.82447
1.8125
1.80088
1.79006
1.78
1.77023
1.76166
1.75305
1.74597
1.73921
1.734
1.72857
1.72555
1.72374
1.72392
1.72634
1.7314
1.73836
1.74631
1.75357
1.76002
1.76408
1.76649
1.7667
1.76631
1.76525
1.76284
1.75932
1.75513
1.75063
1.74608
1.74155
1.73686
1.73226
1.72743
1.72279
1.71797
1.71332
1.70865
1.70411
1.69972
1.69547
1.69143
1.68765
1.68408
1.68104
1.6782
1.67638
1.67478
1.67462
1.67493
1.67592
1.67776
1.67809
1.81304
1.95532
1.98372
1.98789
1.9833
1.97341
1.96692
1.9733
1.99068
2.02486
2.08357
2.17051
2.24756
2.27934
2.283
2.27634
2.26029
2.23888
2.22279
2.21056
2.20272
2.196
2.18998
2.18263
2.174
2.16348
2.15158
2.13805
2.12339
2.10746
2.09057
2.0731
2.05491
2.03669
2.01802
1.99953
1.98098
1.96281
1.94476
1.92745
1.91033
1.89428
1.8786
1.86398
1.84977
1.83654
1.82351
1.81156
1.79949
1.78858
1.77707
1.76679
1.75594
1.74617
1.73639
1.72742
1.71966
1.7123
1.70603
1.70077
1.69856
1.6972
1.69792
1.70075
1.70603
1.71343
1.72102
1.72823
1.73378
1.73745
1.73906
1.73902
1.73856
1.73719
1.73435
1.73011
1.72611
1.72156
1.71744
1.71299
1.70881
1.70439
1.70014
1.69563
1.69144
1.68693
1.683
1.67876
1.67531
1.67165
1.66892
1.66619
1.66458
1.66333
1.66337
1.66386
1.66506
1.66741
1.6702
1.67197
1.60584
1.87279
1.95492
1.97086
1.97422
1.97352
1.97876
1.99802
2.03534
2.1013
2.19165
2.26197
2.28842
2.28742
2.27829
2.25866
2.23489
2.2156
2.20221
2.19274
2.18603
2.17976
2.17315
2.1656
2.15684
2.14668