/*--------------------------------*- C++ -*----------------------------------*\
  =========                 |
  \\      /  F ield         | OpenFOAM: The Open Source CFD Toolbox
   \\    /   O peration     | Website:  https://openfoam.org
    \\  /    A nd           | Version:  13
     \\/     M anipulation  |
\*---------------------------------------------------------------------------*/
FoamFile
{
    format      ascii;
    class       volVectorField;
    location    "5.5";
    object      U;
}
// * * * * * * * * * * * * * * * * * * * * * * * * * * * * * * * * * * * * * //

dimensions      [0 1 -1 0 0 0 0];

internalField   nonuniform List<vector> 
5250
(
(3 3.00813e-08 0)
(2.99999 -1.35517e-08 0)
(2.99997 5.10623e-07 0)
(2.99991 -1.38133e-07 0)
(2.99978 3.71444e-06 0)
(2.99945 -9.04331e-08 0)
(2.99867 2.30039e-05 0)
(2.99666 4.79637e-06 0)
(2.99181 0.000124302 0)
(2.97944 9.99392e-05 0)
(2.94757 0.000588842 0)
(2.86003 0.00111051 0)
(2.60627 0.00348968 0)
(1.86243 0.00972085 0)
(0.863591 0.0264521 0)
(0.444001 0.0243367 0)
(0.534426 0.0244022 0)
(0.558726 0.0262301 0)
(0.503999 0.0280717 0)
(0.413382 0.029934 0)
(0.328855 0.0321403 0)
(0.260495 0.0347051 0)
(0.191982 0.0373614 0)
(0.114467 0.040392 0)
(0.0493837 0.0444958 0)
(3 4.58123e-08 0)
(2.99999 2.18048e-07 0)
(2.99997 8.81032e-07 0)
(2.99991 2.07518e-06 0)
(2.99978 6.54732e-06 0)
(2.99947 1.29483e-05 0)
(2.99867 4.37098e-05 0)
(2.99674 7.72435e-05 0)
(2.99188 0.000268171 0)
(2.97983 0.000518674 0)
(2.9484 0.00154197 0)
(2.86246 0.00373659 0)
(2.61333 0.0106261 0)
(1.88101 0.0302591 0)
(0.874129 0.0806276 0)
(0.440504 0.070285 0)
(0.534341 0.0672302 0)
(0.559845 0.0701724 0)
(0.504821 0.0731719 0)
(0.414231 0.0763059 0)
(0.329694 0.0798164 0)
(0.260753 0.0836232 0)
(0.19122 0.0870857 0)
(0.112389 0.0903315 0)
(0.046684 0.0931622 0)
(3 4.54854e-08 0)
(2.99999 4.82872e-07 0)
(2.99997 1.12989e-06 0)
(2.99992 4.70107e-06 0)
(2.99979 8.44764e-06 0)
(2.99948 3.02625e-05 0)
(2.99872 5.36538e-05 0)
(2.99685 0.000182448 0)
(2.99218 0.000345196 0)
(2.9805 0.00106217 0)
(2.95026 0.00234904 0)
(2.86755 0.00657209 0)
(2.62856 0.0177151 0)
(1.92217 0.0514403 0)
(0.899563 0.138426 0)
(0.43762 0.119411 0)
(0.538065 0.112954 0)
(0.56634 0.118041 0)
(0.511175 0.123726 0)
(0.420883 0.130273 0)
(0.33634 0.136953 0)
(0.266595 0.14391 0)
(0.195677 0.150493 0)
(0.114941 0.156314 0)
(0.0468865 0.15988 0)
(3 7.78874e-08 0)
(2.99999 5.26102e-07 0)
(2.99997 1.80245e-06 0)
(2.99992 5.19316e-06 0)
(2.9998 1.33375e-05 0)
(2.9995 3.58629e-05 0)
(2.9988 8.18786e-05 0)
(2.99699 0.000228862 0)
(2.99262 0.000500998 0)
(2.9815 0.00138825 0)
(2.953 0.00327813 0)
(2.87527 0.00886606 0)
(2.65102 0.0241711 0)
(1.98597 0.0701895 0)
(0.94015 0.192709 0)
(0.437283 0.167988 0)
(0.546632 0.158171 0)
(0.579207 0.165241 0)
(0.524144 0.173768 0)
(0.434246 0.184325 0)
(0.349274 0.194638 0)
(0.27839 0.205287 0)
(0.205548 0.215755 0)
(0.121685 0.224954 0)
(0.0493321 0.229745 0)
(3 1.16055e-07 0)
(2.99999 5.778e-07 0)
(2.99997 2.33885e-06 0)
(2.99992 5.64909e-06 0)
(2.99982 1.74474e-05 0)
(2.99954 3.74109e-05 0)
(2.99888 0.000112898 0)
(2.99719 0.000233284 0)
(2.99314 0.000692022 0)
(2.98282 0.00150978 0)
(2.95648 0.00417225 0)
(2.88507 0.0104299 0)
(2.67993 0.0293156 0)
(2.06974 0.084561 0)
(0.997651 0.239266 0)
(0.44514 0.21784 0)
(0.561905 0.205595 0)
(0.59937 0.213295 0)
(0.544638 0.223778 0)
(0.455133 0.238206 0)
(0.36909 0.252446 0)
(0.2965 0.267312 0)
(0.22104 0.282445 0)
(0.132571 0.296096 0)
(0.053877 0.303107 0)
(3 1.22307e-07 0)
(2.99999 6.14938e-07 0)
(2.99997 2.51e-06 0)
(2.99993 6.06189e-06 0)
(2.99983 1.86769e-05 0)
(2.99958 4.0641e-05 0)
(2.99896 0.000118964 0)
(2.99747 0.000254057 0)
(2.99368 0.000728889 0)
(2.9844 0.00163098 0)
(2.96045 0.00444044 0)
(2.89626 0.0111488 0)
(2.71347 0.031138 0)
(2.1699 0.0899499 0)
(1.0788 0.262554 0)
(0.475753 0.263499 0)
(0.589153 0.255819 0)
(0.629278 0.263718 0)
(0.574918 0.275358 0)
(0.485829 0.293377 0)
(0.397919 0.312135 0)
(0.322759 0.332169 0)
(0.243769 0.353329 0)
(0.149098 0.3735 0)
(0.0613676 0.385092 0)
(3 9.92612e-08 0)
(2.99999 6.48734e-07 0)
(2.99998 2.1896e-06 0)
(2.99994 6.40941e-06 0)
(2.99984 1.62253e-05 0)
(2.99962 4.32851e-05 0)
(2.99906 0.000102138 0)
(2.9977 0.000267342 0)
(2.99429 0.000634646 0)
(2.98591 0.00161879 0)
(2.96442 0.00399712 0)
(2.90738 0.0103789 0)
(2.74622 0.0280652 0)
(2.27091 0.0802853 0)
(1.17946 0.237856 0)
(0.526509 0.296237 0)
(0.623392 0.307727 0)
(0.662902 0.315523 0)
(0.610894 0.328096 0)
(0.524492 0.350117 0)
(0.43572 0.374493 0)
(0.358205 0.401002 0)
(0.275638 0.430153 0)
(0.173746 0.460172 0)
(0.0736703 0.481306 0)
(3 9.08901e-08 0)
(2.99999 6.23263e-07 0)
(2.99998 2.03194e-06 0)
(2.99994 6.04824e-06 0)
(2.99986 1.50565e-05 0)
(2.99966 3.98421e-05 0)
(2.99915 9.36967e-05 0)
(2.99791 0.00024546 0)
(2.99481 0.000569377 0)
(2.9872 0.00148075 0)
(2.96775 0.00354041 0)
(2.91632 0.00922207 0)
(2.77175 0.0243473 0)
(2.3446 0.0685109 0)
(1.28119 0.202038 0)
(0.570237 0.335844 0)
(0.638604 0.369099 0)
(0.678541 0.367724 0)
(0.638856 0.380185 0)
(0.562698 0.406513 0)
(0.477984 0.438404 0)
(0.401422 0.473523 0)
(0.317985 0.513645 0)
(0.210454 0.558802 0)
(0.094522 0.600582 0)
(3 8.46606e-08 0)
(2.99999 6.09259e-07 0)
(2.99998 1.94234e-06 0)
(2.99995 5.90662e-06 0)
(2.99987 1.44767e-05 0)
(2.99969 3.89249e-05 0)
(2.99923 8.95081e-05 0)
(2.9981 0.000240874 0)
(2.99532 0.00054026 0)
(2.98839 0.00145669 0)
(2.97086 0.00339756 0)
(2.92471 0.00896283 0)
(2.79526 0.0234034 0)
(2.41519 0.0658077 0)
(1.41004 0.193778 0)
(0.649312 0.385883 0)
(0.646575 0.418816 0)
(0.676751 0.414768 0)
(0.659149 0.430662 0)
(0.599082 0.459996 0)
(0.523543 0.500971 0)
(0.452323 0.547345 0)
(0.373351 0.601524 0)
(0.267527 0.671673 0)
(0.132395 0.75773 0)
(3 8.60094e-08 0)
(2.99999 6.19864e-07 0)
(2.99998 1.91166e-06 0)
(2.99995 6.04538e-06 0)
(2.99989 1.4284e-05 0)
(2.99972 3.9588e-05 0)
(2.99931 9.09137e-05 0)
(2.99829 0.000240951 0)
(2.99582 0.000562453 0)
(2.98958 0.00145013 0)
(2.974 0.00350025 0)
(2.933 0.00903887 0)
(2.81892 0.0236724 0)
(2.48552 0.0662894 0)
(1.56332 0.19386 0)
(0.74898 0.434027 0)
(0.653545 0.451036 0)
(0.681464 0.453189 0)
(0.6788 0.475801 0)
(0.634805 0.509114 0)
(0.573813 0.558706 0)
(0.512334 0.61696 0)
(0.447794 0.691944 0)
(0.361999 0.806327 0)
(0.203951 1.01327 0)
(3 9.90781e-08 0)
(2.99999 5.89531e-07 0)
(2.99998 2.1332e-06 0)
(2.99996 5.7701e-06 0)
(2.9999 1.57018e-05 0)
(2.99975 3.85378e-05 0)
(2.9994 9.85138e-05 0)
(2.99849 0.000239611 0)
(2.99633 0.000601042 0)
(2.99084 0.00147355 0)
(2.9772 0.00367346 0)
(2.94149 0.00929541 0)
(2.84302 0.0244072 0)
(2.55673 0.06795 0)
(1.73743 0.197335 0)
(0.867287 0.482349 0)
(0.662238 0.485066 0)
(0.693264 0.48764 0)
(0.703534 0.51245 0)
(0.673616 0.551728 0)
(0.628864 0.607068 0)
(0.58584 0.67647 0)
(0.55528 0.771427 0)
(0.553076 0.916464 0)
(0.591789 1.16163 0)
(3 1.06187e-07 0)
(2.99999 5.83729e-07 0)
(2.99999 2.22109e-06 0)
(2.99997 5.73339e-06 0)
(2.99991 1.64624e-05 0)
(2.99979 3.82762e-05 0)
(2.99948 0.000104684 0)
(2.99871 0.000236746 0)
(2.99685 0.000641036 0)
(2.99214 0.00146665 0)
(2.98052 0.00387495 0)
(2.95028 0.00943528 0)
(2.86783 0.0251492 0)
(2.63002 0.0691425 0)
(1.933 0.200651 0)
(1.00812 0.525787 0)
(0.681007 0.522628 0)
(0.713604 0.523092 0)
(0.735271 0.543436 0)
(0.717976 0.586625 0)
(0.689208 0.645336 0)
(0.668614 0.722346 0)
(0.673508 0.825941 0)
(0.732312 0.968232 0)
(0.876673 1.15381 0)
(3 9.83873e-08 0)
(3 5.91387e-07 0)
(2.99999 2.08225e-06 0)
(2.99997 5.78161e-06 0)
(2.99993 1.56136e-05 0)
(2.99982 3.81235e-05 0)
(2.99956 0.000100653 0)
(2.99894 0.000234744 0)
(2.99735 0.000623623 0)
(2.99353 0.00145192 0)
(2.98384 0.003817 0)
(2.95922 0.00930849 0)
(2.89288 0.0247247 0)
(2.70381 0.0675554 0)
(2.14501 0.196223 0)
(1.17906 0.547842 0)
(0.729412 0.565274 0)
(0.750584 0.568514 0)
(0.777414 0.576668 0)
(0.771226 0.61685 0)
(0.755016 0.675997 0)
(0.754052 0.753143 0)
(0.784025 0.851672 0)
(0.867947 0.970749 0)
(1.03129 1.08718 0)
(3 8.03734e-08 0)
(3 5.31325e-07 0)
(2.99999 1.78816e-06 0)
(2.99998 5.17834e-06 0)
(2.99994 1.333e-05 0)
(2.99986 3.44817e-05 0)
(2.99965 8.38144e-05 0)
(2.99914 0.000214398 0)
(2.99787 0.000511977 0)
(2.9948 0.00131473 0)
(2.98707 0.003165 0)
(2.96772 0.00809775 0)
(2.91653 0.0206009 0)
(2.77403 0.055923 0)
(2.35948 0.159704 0)
(1.39898 0.471844 0)
(0.830009 0.588601 0)
(0.810773 0.612005 0)
(0.829044 0.617952 0)
(0.833843 0.648459 0)
(0.826008 0.70183 0)
(0.836043 0.771761 0)
(0.878848 0.856028 0)
(0.967992 0.948599 0)
(1.12192 1.02393 0)
(3 6.98162e-08 0)
(3 4.36701e-07 0)
(2.99999 1.52251e-06 0)
(2.99998 4.26131e-06 0)
(2.99995 1.12417e-05 0)
(2.99988 2.82895e-05 0)
(2.99971 6.99572e-05 0)
(2.9993 0.000173799 0)
(2.99827 0.000422205 0)
(2.99574 0.00104915 0)
(2.98949 0.00255812 0)
(2.97376 0.0063595 0)
(2.93267 0.0160324 0)
(2.81919 0.0421171 0)
(2.49023 0.116984 0)
(1.61317 0.348282 0)
(0.925738 0.622327 0)
(0.851806 0.654681 0)
(0.868771 0.665654 0)
(0.887078 0.682686 0)
(0.892043 0.725126 0)
(0.910045 0.783749 0)
(0.958032 0.851914 0)
(1.04447 0.922198 0)
(1.18192 0.975143 0)
(3 5.898e-08 0)
(3 3.90394e-07 0)
(2.99999 1.28933e-06 0)
(2.99998 3.80841e-06 0)
(2.99996 9.52219e-06 0)
(2.99991 2.50894e-05 0)
(2.99977 5.95788e-05 0)
(2.99944 0.000153819 0)
(2.99859 0.000363372 0)
(2.99658 0.000926436 0)
(2.99149 0.00221402 0)
(2.97893 0.00559804 0)
(2.94621 0.0138897 0)
(2.85694 0.0364588 0)
(2.59998 0.100187 0)
(1.86685 0.29254 0)
(1.07356 0.665433 0)
(0.880957 0.690545 0)
(0.895032 0.702395 0)
(0.924783 0.710597 0)
(0.947372 0.743532 0)
(0.97374 0.791739 0)
(1.02376 0.84616 0)
(1.10516 0.899544 0)
(1.22578 0.938663 0)
(3 5.07147e-08 0)
(3 3.41198e-07 0)
(3 1.11971e-06 0)
(2.99999 3.3306e-06 0)
(2.99997 8.35015e-06 0)
(2.99993 2.19889e-05 0)
(2.99982 5.28271e-05 0)
(2.99955 0.000135631 0)
(2.99891 0.000324547 0)
(2.99728 0.000825949 0)
(2.99338 0.00199914 0)
(2.98348 0.00504565 0)
(2.95838 0.0126001 0)
(2.89075 0.0328694 0)
(2.69839 0.090049 0)
(2.13235 0.260881 0)
(1.26563 0.684383 0)
(0.92874 0.723131 0)
(0.928276 0.730918 0)
(0.960561 0.734128 0)
(0.996569 0.756457 0)
(1.02964 0.795853 0)
(1.07952 0.840142 0)
(1.15494 0.881508 0)
(1.2605 0.91111 0)
(3 4.42459e-08 0)
(3 2.76326e-07 0)
(3 9.50145e-07 0)
(2.99999 2.69779e-06 0)
(2.99998 7.07993e-06 0)
(2.99994 1.77475e-05 0)
(2.99986 4.50411e-05 0)
(2.99966 0.000108292 0)
(2.99917 0.000276813 0)
(2.99798 0.000655551 0)
(2.99501 0.00168678 0)
(2.98776 0.0040293 0)
(2.96942 0.0103268 0)
(2.92147 0.0261264 0)
(2.78948 0.0707077 0)
(2.40598 0.201917 0)
(1.53467 0.583417 0)
(1.03793 0.730109 0)
(0.987835 0.753515 0)
(1.00606 0.761648 0)
(1.04558 0.772112 0)
(1.08319 0.800816 0)
(1.13044 0.835832 0)
(1.1984 0.868011 0)
(1.29044 0.890494 0)
(3 3.50214e-08 0)
(3 2.13528e-07 0)
(3 7.61515e-07 0)
(2.99999 2.07869e-06 0)
(2.99998 5.60515e-06 0)
(2.99996 1.38136e-05 0)
(2.99989 3.46149e-05 0)
(2.99974 8.49896e-05 0)
(2.99937 0.000206931 0)
(2.99846 0.000514049 0)
(2.99619 0.0012315 0)
(2.99068 0.0030957 0)
(2.97679 0.00747489 0)
(2.94094 0.0190257 0)
(2.84316 0.0492435 0)
(2.56265 0.136096 0)
(1.80353 0.404628 0)
(1.15485 0.735134 0)
(1.03635 0.774743 0)
(1.04478 0.791637 0)
(1.08457 0.794296 0)
(1.12906 0.810407 0)
(1.17567 0.835554 0)
(1.23706 0.85968 0)
(1.3176 0.876212 0)
(3 2.82364e-08 0)
(3 1.7121e-07 0)
(3 6.11954e-07 0)
(2.99999 1.66731e-06 0)
(2.99999 4.51774e-06 0)
(2.99997 1.10674e-05 0)
(2.99992 2.80881e-05 0)
(2.99981 6.83131e-05 0)
(2.99953 0.000168433 0)
(2.99883 0.000415934 0)
(2.99716 0.00100804 0)
(2.99297 0.00252691 0)
(2.98266 0.00614187 0)
(2.95614 0.0155669 0)
(2.88495 0.0400452 0)
(2.6832 0.109439 0)
(2.0959 0.319105 0)
(1.33365 0.755215 0)
(1.08423 0.806708 0)
(1.07887 0.819678 0)
(1.1141 0.818425 0)
(1.1653 0.821393 0)
(1.21448 0.837399 0)
(1.27135 0.854985 0)
(1.34254 0.866825 0)
(3 2.17848e-08 0)
(3 1.36641e-07 0)
(3 4.69617e-07 0)
(3 1.33213e-06 0)
(2.99999 3.48701e-06 0)
(2.99998 8.75917e-06 0)
(2.99994 2.19721e-05 0)
(2.99986 5.34965e-05 0)
(2.99966 0.000133683 0)
(2.99916 0.00032274 0)
(2.99795 0.000810596 0)
(2.99496 0.00195448 0)
(2.98765 0.00491798 0)
(2.96917 0.0121123 0)
(2.92091 0.0312452 0)
(2.7884 0.0836269 0)
(2.40173 0.24 0)
(1.60483 0.660852 0)
(1.18504 0.811178 0)
(1.13287 0.83514 0)
(1.15028 0.841004 0)
(1.19884 0.836158 0)
(1.25095 0.842309 0)
(1.304 0.853377 0)
(1.36696 0.861218 0)
(3 1.62821e-08 0)
(3 1.03932e-07 0)
(3 3.51192e-07 0)
(3 1.01082e-06 0)
(2.99999 2.59915e-06 0)
(2.99998 6.61158e-06 0)
(2.99996 1.63002e-05 0)
(2.9999 4.00926e-05 0)
(2.99975 9.8893e-05 0)
(2.9994 0.000238928 0)
(2.99852 0.000595122 0)
(2.99639 0.00142641 0)
(2.99112 0.00357404 0)
(2.97805 0.00866056 0)
(2.94436 0.0219992 0)
(2.8535 0.0569749 0)
(2.59439 0.157754 0)
(1.90402 0.464378 0)
(1.31475 0.800287 0)
(1.18645 0.845746 0)
(1.18738 0.863571 0)
(1.22753 0.858511 0)
(1.28171 0.852681 0)
(1.33385 0.855484 0)
(1.39085 0.858938 0)
(3 1.19281e-08 0)
(3 7.9197e-08 0)
(3 2.60948e-07 0)
(3 7.69571e-07 0)
(3 1.93368e-06 0)
(2.99999 5.0332e-06 0)
(2.99997 1.21446e-05 0)
(2.99993 3.05671e-05 0)
(2.99982 7.38211e-05 0)
(2.99957 0.000182455 0)
(2.99894 0.000445744 0)
(2.99744 0.00108907 0)
(2.99367 0.0026947 0)
(2.98449 0.0065837 0)
(2.96098 0.0165323 0)
(2.8988 0.0423019 0)
(2.72465 0.114545 0)
(2.21849 0.333482 0)
(1.51159 0.78035 0)
(1.24993 0.864982 0)
(1.22798 0.882356 0)
(1.25169 0.880673 0)
(1.30358 0.868074 0)
(1.35886 0.862449 0)
(1.41344 0.860818 0)
(3 8.75301e-09 0)
(3 5.80514e-08 0)
(3 1.93398e-07 0)
(3 5.6444e-07 0)
(3 1.42886e-06 0)
(2.99999 3.71581e-06 0)
(2.99998 8.88921e-06 0)
(2.99995 2.27016e-05 0)
(2.99988 5.36012e-05 0)
(2.99971 0.000136303 0)
(2.99928 0.000321877 0)
(2.99826 0.000815137 0)
(2.9957 0.00194284 0)
(2.98957 0.00489114 0)
(2.97408 0.0119331 0)
(2.93436 0.0305342 0)
(2.82707 0.0805516 0)
(2.51687 0.228837 0)
(1.80714 0.632877 0)
(1.36564 0.855676 0)
(1.28475 0.887172 0)
(1.28812 0.897129 0)
(1.32848 0.885994 0)
(1.3825 0.872984 0)
(1.43534 0.866574 0)
(3 6.47668e-09 0)
(3 4.06172e-08 0)
(3 1.41198e-07 0)
(3 3.9493e-07 0)
(3 1.03992e-06 0)
(2.99999 2.60483e-06 0)
(2.99999 6.41802e-06 0)
(2.99997 1.59255e-05 0)
(2.99992 3.82337e-05 0)
(2.9998 9.58092e-05 0)
(2.99951 0.000226289 0)
(2.99879 0.000573032 0)
(2.99707 0.00134594 0)
(2.99281 0.00341558 0)
(2.98232 0.00814972 0)
(2.95561 0.020677 0)
(2.88469 0.0526573 0)
(2.6854 0.14346 0)
(2.12888 0.418405 0)
(1.52302 0.834018 0)
(1.33982 0.899199 0)
(1.3248 0.912493 0)
(1.35 0.905327 0)
(1.40141 0.887173 0)
(1.45544 0.875235 0)
(3 4.63496e-09 0)
(3 2.85903e-08 0)
(3 9.96209e-08 0)
(3 2.77973e-07 0)
(3 7.34184e-07 0)
(3 1.82095e-06 0)
(2.99999 4.57294e-06 0)
(2.99998 1.10417e-05 0)
(2.99994 2.74376e-05 0)
(2.99986 6.60505e-05 0)
(2.99967 0.000163396 0)
(2.9992 0.000393907 0)
(2.99807 0.000973524 0)
(2.99524 0.00235904 0)
(2.98844 0.00583871 0)
(2.97127 0.0143589 0)
(2.92709 0.0365639 0)
(2.80725 0.0968783 0)
(2.45939 0.277683 0)
(1.78901 0.709919 0)
(1.43572 0.885591 0)
(1.37529 0.91449 0)
(1.38099 0.920587 0)
(1.42185 0.904942 0)
(1.47486 0.885501 0)
(3 3.15545e-09 0)
(3 1.98604e-08 0)
(3 6.79008e-08 0)
(3 1.92869e-07 0)
(3 4.99597e-07 0)
(3 1.25797e-06 0)
(2.99999 3.11849e-06 0)
(2.99998 7.56222e-06 0)
(2.99996 1.87883e-05 0)
(2.99991 4.47103e-05 0)
(2.99978 0.00011198 0)
(2.99947 0.000264209 0)
(2.99871 0.000665436 0)
(2.99687 0.00156774 0)
(2.99231 0.00395433 0)
(2.98116 0.00947006 0)
(2.95274 0.0239689 0)
(2.87737 0.0613535 0)
(2.66545 0.168145 0)
(2.10269 0.481008 0)
(1.57536 0.853295 0)
(1.42966 0.917593 0)
(1.41579 0.931748 0)
(1.43989 0.923721 0)
(1.489 0.900583 0)
(3 2.21132e-09 0)
(3 1.33447e-08 0)
(3 4.73577e-08 0)
(3 1.29521e-07 0)
(3 3.47536e-07 0)
(3 8.49828e-07 0)
(3 2.14955e-06 0)
(2.99999 5.14427e-06 0)
(2.99998 1.28313e-05 0)
(2.99994 3.06201e-05 0)
(2.99986 7.58578e-05 0)
(2.99966 0.000182113 0)
(2.99916 0.000447779 0)
(2.99798 0.00108349 0)
(2.99502 0.00265354 0)
(2.98792 0.00648661 0)
(2.97 0.0160368 0)
(2.92383 0.0405925 0)
(2.79856 0.107624 0)
(2.43636 0.308612 0)
(1.81703 0.742598 0)
(1.51312 0.904527 0)
(1.46011 0.93338 0)
(1.46562 0.938985 0)
(1.50398 0.921152 0)
(3 1.46038e-09 0)
(3 9.06767e-09 0)
(3 3.15488e-08 0)
(3 8.80405e-08 0)
(3 2.31306e-07 0)
(3 5.76508e-07 0)
(3 1.42646e-06 0)
(2.99999 3.48709e-06 0)
(2.99998 8.47333e-06 0)
(2.99996 2.07566e-05 0)
(2.99991 4.99492e-05 0)
(2.99978 0.000122985 0)
(2.99946 0.000294072 0)
(2.9987 0.000728865 0)
(2.99681 0.00173889 0)
(2.99231 0.00431977 0)
(2.98104 0.0104668 0)
(2.95272 0.0262402 0)
(2.87778 0.0675536 0)
(2.66671 0.185548 0)
(2.12754 0.519545 0)
(1.6493 0.869325 0)
(1.51498 0.934708 0)
(1.49888 0.949028 0)
(1.51802 0.940844 0)
(3 9.50828e-10 0)
(3 6.0361e-09 0)
(3 2.07997e-08 0)
(3 5.84169e-08 0)
(3 1.52528e-07 0)
(3 3.81836e-07 0)
(3 9.37916e-07 0)
(3 2.31363e-06 0)
(2.99999 5.5449e-06 0)
(2.99998 1.37837e-05 0)
(2.99994 3.25489e-05 0)
(2.99986 8.1507e-05 0)
(2.99966 0.000191463 0)
(2.99918 0.000480569 0)
(2.99801 0.00113024 0)
(2.99519 0.00283223 0)
(2.98823 0.00675391 0)
(2.97106 0.0169021 0)
(2.92677 0.0422476 0)
(2.8073 0.112153 0)
(2.46522 0.319577 0)
(1.8876 0.746071 0)
(1.59812 0.915103 0)
(1.54244 0.946679 0)
(1.54264 0.952801 0)
(3 6.33646e-10 0)
(3 3.87783e-09 0)
(3 1.3594e-08 0)
(3 3.75364e-08 0)
(3 9.9638e-08 0)
(3 2.44483e-07 0)
(3 6.14565e-07 0)
(3 1.47148e-06 0)
(2.99999 3.64694e-06 0)
(2.99998 8.70442e-06 0)
(2.99996 2.14505e-05 0)
(2.99991 5.13539e-05 0)
(2.99979 0.000125787 0)
(2.99949 0.000302692 0)
(2.99877 0.000738535 0)
(2.99699 0.00178813 0)
(2.99275 0.00435967 0)
(2.98218 0.0106579 0)
(2.95578 0.0264654 0)
(2.88633 0.0678609 0)
(2.6919 0.18528 0)
(2.19654 0.511503 0)
(1.73679 0.872535 0)
(1.59652 0.944449 0)
(1.57525 0.959472 0)
(3 3.94169e-10 0)
(3 2.52221e-09 0)
(3 8.52333e-09 0)
(3 2.44101e-08 0)
(3 6.26168e-08 0)
(3 1.58128e-07 0)
(3 3.8664e-07 0)
(3 9.46204e-07 0)
(3 2.29977e-06 0)
(2.99999 5.55519e-06 0)
(2.99998 1.35686e-05 0)
(2.99995 3.24915e-05 0)
(2.99987 7.97907e-05 0)
(2.99969 0.000190253 0)
(2.99925 0.000468412 0)
(2.99821 0.00111783 0)
(2.99561 0.00275271 0)
(2.98945 0.00663102 0)
(2.97403 0.0163992 0)
(2.93501 0.0409928 0)
(2.83109 0.107727 0)
(2.53434 0.304772 0)
(1.98834 0.719297 0)
(1.68625 0.911837 0)
(1.62144 0.951381 0)
(3 2.53053e-10 0)
(3 1.56078e-09 0)
(3 5.44801e-09 0)
(3 1.50885e-08 0)
(3 3.9809e-08 0)
(3 9.80605e-08 0)
(3 2.44024e-07 0)
(3 5.87638e-07 0)
(3 1.43902e-06 0)
(2.99999 3.4601e-06 0)
(2.99999 8.40212e-06 0)
(2.99997 2.02716e-05 0)
(2.99992 4.88783e-05 0)
(2.99981 0.000118846 0)
(2.99955 0.000283976 0)
(2.9989 0.00069575 0)
(2.99734 0.00165631 0)
(2.99354 0.00407527 0)
(2.98428 0.0098 0)
(2.96108 0.0242945 0)
(2.9009 0.0614334 0)
(2.73437 0.165353 0)
(2.29799 0.45518 0)
(1.8347 0.843196 0)
(1.67581 0.938399 0)
(3 1.5744e-10 0)
(3 9.71621e-10 0)
(3 3.36244e-09 0)
(3 9.39999e-09 0)
(3 2.4572e-08 0)
(3 6.07886e-08 0)
(3 1.51567e-07 0)
(3 3.61467e-07 0)
(3 8.98536e-07 0)
(3 2.11377e-06 0)
(2.99999 5.26475e-06 0)
(2.99998 1.23517e-05 0)
(2.99995 3.06662e-05 0)
(2.99989 7.23117e-05 0)
(2.99973 0.000178366 0)
(2.99935 0.00042386 0)
(2.99843 0.00103819 0)
(2.99623 0.00249463 0)
(2.99083 0.00608294 0)
(2.97772 0.0148633 0)
(2.9445 0.0370256 0)
(2.85739 0.0961173 0)
(2.61003 0.267726 0)
(2.10094 0.661785 0)
(1.77554 0.89851 0)
(3 9.41357e-11 0)
(3 5.98758e-10 0)
(3 2.05439e-09 0)
(3 5.77437e-09 0)
(3 1.50101e-08 0)
(3 3.74084e-08 0)
(3 9.15838e-08 0)
(3 2.24029e-07 0)
(3 5.3579e-07 0)
(3 1.31766e-06 0)
(3 3.10706e-06 0)
(2.99999 7.68801e-06 0)
(2.99997 1.80292e-05 0)
(2.99993 4.46813e-05 0)
(2.99984 0.000104751 0)
(2.99961 0.000258724 0)
(2.99907 0.000610183 0)
(2.99774 0.00149831 0)
(2.99457 0.00356571 0)
(2.98678 0.00873988 0)
(2.96757 0.0212311 0)
(2.91821 0.0535264 0)
(2.78412 0.141287 0)
(2.42082 0.391273 0)
(1.95321 0.79278 0)
(3 5.70021e-11 0)
(3 3.67198e-10 0)
(3 1.24429e-09 0)
(3 3.54152e-09 0)
(3 9.08736e-09 0)
(3 2.29389e-08 0)
(3 5.54434e-08 0)
(3 1.369e-07 0)
(3 3.25462e-07 0)
(3 8.00055e-07 0)
(3 1.89768e-06 0)
(2.99999 4.64157e-06 0)
(2.99998 1.10585e-05 0)
(2.99996 2.68927e-05 0)
(2.99991 6.44278e-05 0)
(2.99977 0.000155729 0)
(2.99946 0.000375732 0)
(2.99869 0.000903244 0)
(2.99687 0.00219501 0)
(2.9924 0.00527938 0)
(2.98159 0.0129467 0)
(2.95442 0.0318752 0)
(2.88398 0.0817844 0)
(2.68621 0.223381 0)
(2.23477 0.57787 0)
(3 3.46459e-11 0)
(3 2.1914e-10 0)
(3 7.45675e-10 0)
(3 2.11368e-09 0)
(3 5.4366e-09 0)
(3 1.3625e-08 0)
(3 3.32369e-08 0)
(3 8.07868e-08 0)
(3 1.95712e-07 0)
(3 4.68879e-07 0)
(3 1.14146e-06 0)
(3 2.7093e-06 0)
(2.99999 6.62914e-06 0)
(2.99998 1.5662e-05 0)
(2.99995 3.84019e-05 0)
(2.99987 9.06836e-05 0)
(2.99969 0.000222066 0)
(2.99926 0.000525514 0)
(2.99822 0.00128586 0)
(2.99573 0.00305657 0)
(2.98967 0.00749088 0)
(2.97493 0.018076 0)
(2.93767 0.0453658 0)
(2.83933 0.117739 0)
(2.56585 0.327513 0)
(3 2.07065e-11 0)
(3 1.27549e-10 0)
(3 4.46696e-10 0)
(3 1.2303e-09 0)
(3 3.2455e-09 0)
(3 7.9688e-09 0)
(3 1.96688e-08 0)
(3 4.74291e-08 0)
(3 1.14415e-07 0)
(3 2.76807e-07 0)
(3 6.59245e-07 0)
(3 1.60589e-06 0)
(2.99999 3.79168e-06 0)
(2.99999 9.28591e-06 0)
(2.99997 2.18269e-05 0)
(2.99993 5.35237e-05 0)
(2.99982 0.000125819 0)
(2.99958 0.000307872 0)
(2.99897 0.000726236 0)
(2.99757 0.00177127 0)
(2.99408 0.00420942 0)
(2.9858 0.0102769 0)
(2.96506 0.0248954 0)
(2.91231 0.0627995 0)
(2.7683 0.16658 0)
(3 1.21117e-11 0)
(3 7.47694e-11 0)
(3 2.59482e-10 0)
(3 7.21117e-10 0)
(3 1.88469e-09 0)
(3 4.64129e-09 0)
(3 1.1491e-08 0)
(3 2.74317e-08 0)
(3 6.72043e-08 0)
(3 1.58996e-07 0)
(3 3.88178e-07 0)
(3 9.19161e-07 0)
(3 2.23483e-06 0)
(2.99999 5.3089e-06 0)
(2.99998 1.28398e-05 0)
(2.99996 3.06949e-05 0)
(2.9999 7.36808e-05 0)
(2.99976 0.00017767 0)
(2.99944 0.000422867 0)
(2.99863 0.00102886 0)
(2.99675 0.00244009 0)
(2.99212 0.00597241 0)
(2.98105 0.01434 0)
(2.95327 0.0355866 0)
(2.88157 0.0906417 0)
(3 6.74449e-12 0)
(3 4.36506e-11 0)
(3 1.46524e-10 0)
(3 4.19863e-10 0)
(3 1.06567e-09 0)
(3 2.69485e-09 0)
(3 6.47036e-09 0)
(3 1.59069e-08 0)
(3 3.77271e-08 0)
(3 9.19003e-08 0)
(3 2.17671e-07 0)
(3 5.27202e-07 0)
(3 1.2547e-06 0)
(3 3.01676e-06 0)
(2.99999 7.22566e-06 0)
(2.99998 1.72315e-05 0)
(2.99994 4.16424e-05 0)
(2.99987 9.84141e-05 0)
(2.99968 0.000239364 0)
(2.99925 0.000563664 0)
(2.9982 0.00137547 0)
(2.99571 0.00324338 0)
(2.98965 0.00793978 0)
(2.97499 0.0190243 0)
(2.93815 0.0475382 0)
(3 3.94458e-12 0)
(3 2.40169e-11 0)
(3 8.46479e-11 0)
(3 2.31027e-10 0)
(3 6.1291e-10 0)
(3 1.48809e-09 0)
(3 3.69416e-09 0)
(3 8.79414e-09 0)
(3 2.13217e-08 0)
(3 5.0899e-08 0)
(3 1.21742e-07 0)
(3 2.92808e-07 0)
(3 6.92422e-07 0)
(3 1.68243e-06 0)
(2.99999 3.93789e-06 0)
(2.99999 9.62706e-06 0)
(2.99997 2.24371e-05 0)
(2.99993 5.49219e-05 0)
(2.99982 0.000128069 0)
(2.99958 0.000312251 0)
(2.99899 0.000732624 0)
(2.99759 0.00177595 0)
(2.99418 0.00420787 0)
(2.98604 0.0101906 0)
(2.9659 0.0246475 0)
(3 2.12628e-12 0)
(3 1.34281e-11 0)
(3 4.55448e-11 0)
(3 1.28963e-10 0)
(3 3.29711e-10 0)
(3 8.22645e-10 0)
(3 1.99653e-09 0)
(3 4.79742e-09 0)
(3 1.1578e-08 0)
(3 2.73569e-08 0)
(3 6.633e-08 0)
(3 1.553e-07 0)
(3 3.77462e-07 0)
(3 8.82194e-07 0)
(3 2.14122e-06 0)
(2.99999 5.0149e-06 0)
(2.99998 1.20906e-05 0)
(2.99996 2.85488e-05 0)
(2.9999 6.82209e-05 0)
(2.99975 0.000162311 0)
(2.99942 0.000384507 0)
(2.9986 0.000923871 0)
(2.99665 0.00217445 0)
(2.99198 0.0052725 0)
(2.98063 0.0125194 0)
(3 1.10052e-12 0)
(3 7.00206e-12 0)
(3 2.37496e-11 0)
(3 6.70691e-11 0)
(3 1.7099e-10 0)
(3 4.2555e-10 0)
(3 1.02558e-09 0)
(3 2.46154e-09 0)
(3 5.87488e-09 0)
(3 1.39166e-08 0)
(3 3.31679e-08 0)
(3 7.79383e-08 0)
(3 1.86407e-07 0)
(3 4.3513e-07 0)
(3 1.04035e-06 0)
(3 2.42474e-06 0)
(2.99999 5.78327e-06 0)
(2.99997 1.34785e-05 0)
(2.99993 3.19323e-05 0)
(2.99984 7.46276e-05 0)
(2.99962 0.000175778 0)
(2.99908 0.000411229 0)
(2.9978 0.000961319 0)
(2.99465 0.00226271 0)
(2.98712 0.00527221 0)
(3 5.16002e-13 0)
(3 3.47911e-12 0)
(3 1.16691e-11 0)
(3 3.31172e-11 0)
(3 8.36771e-11 0)
(3 2.08888e-10 0)
(3 4.93145e-10 0)
(3 1.19966e-09 0)
(3 2.76505e-09 0)
(3 6.68737e-09 0)
(3 1.52675e-08 0)
(3 3.68174e-08 0)
(3 8.37162e-08 0)
(3 2.00441e-07 0)
(3 4.5719e-07 0)
(3 1.07995e-06 0)
(2.99999 2.48588e-06 0)
(2.99998 5.75718e-06 0)
(2.99995 1.33676e-05 0)
(2.99987 3.04112e-05 0)
(2.9997 7.09394e-05 0)
(2.99925 0.000158712 0)
(2.9982 0.00036976 0)
(2.99556 0.0008176 0)
(2.98915 0.00189431 0)
(3 2.45778e-13 0)
(3 1.66975e-12 0)
(3 5.27342e-12 0)
(3 1.58275e-11 0)
(3 3.77663e-11 0)
(3 9.89182e-11 0)
(3 2.21306e-10 0)
(3 5.59356e-10 0)
(3 1.23092e-09 0)
(3 3.05142e-09 0)
(3 6.7375e-09 0)
(3 1.63641e-08 0)
(3 3.66718e-08 0)
(3 8.63364e-08 0)
(3 1.99324e-07 0)
(3 4.50517e-07 0)
(2.99999 1.07214e-06 0)
(2.99998 2.32358e-06 0)
(2.99995 5.71804e-06 0)
(2.99989 1.18733e-05 0)
(2.99973 2.99144e-05 0)
(2.99933 6.00993e-05 0)
(2.99835 0.000154116 0)
(2.99592 0.000301425 0)
(2.98992 0.000769314 0)
(3 1.02126e-13 0)
(3 7.2432e-13 0)
(3 2.24782e-12 0)
(3 7.01452e-12 0)
(3 1.59656e-11 0)
(3 4.31139e-11 0)
(3 9.49009e-11 0)
(3 2.34072e-10 0)
(3 5.36293e-10 0)
(3 1.21719e-09 0)
(3 2.97387e-09 0)
(3 6.13137e-09 0)
(3 1.64312e-08 0)
(3 3.04237e-08 0)
(3 8.88811e-08 0)
(3 1.5108e-07 0)
(2.99999 4.70125e-07 0)
(2.99998 7.54184e-07 0)
(2.99996 2.40452e-06 0)
(2.99989 3.86896e-06 0)
(2.99974 1.19526e-05 0)
(2.99936 1.98778e-05 0)
(2.9984 5.82629e-05 0)
(2.99608 0.00010488 0)
(2.99019 0.000273704 0)
(3 6.11653e-14 0)
(3 2.41993e-13 0)
(3 1.14391e-12 0)
(3 2.42344e-12 0)
(3 7.93081e-12 0)
(3 1.47118e-11 0)
(3 4.74027e-11 0)
(3 7.67537e-11 0)
(3 2.66548e-10 0)
(3 3.85625e-10 0)
(3 1.45413e-09 0)
(3 1.96749e-09 0)
(3 7.54536e-09 0)
(3 1.04862e-08 0)
(3 3.80001e-08 0)
(3 5.66672e-08 0)
(2.99999 1.8214e-07 0)
(2.99998 3.29863e-07 0)
(2.99996 8.03591e-07 0)
(2.9999 1.95175e-06 0)
(2.99974 3.27321e-06 0)
(2.99936 1.18887e-05 0)
(2.99842 1.07531e-05 0)
(2.9961 6.96939e-05 0)
(2.99029 4.89774e-05 0)
(3 4.27326e-14 0)
(3 8.17591e-14 0)
(3 5.42986e-13 0)
(3 6.84106e-13 0)
(3 3.92505e-12 0)
(3 4.66603e-12 0)
(3 2.17577e-11 0)
(3 2.98058e-11 0)
(3 1.08048e-10 0)
(3 1.89436e-10 0)
(3 5.04254e-10 0)
(3 1.24239e-09 0)
(3 2.12444e-09 0)
(3 8.10736e-09 0)
(3 8.35785e-09 0)
(3 5.08262e-08 0)
(2.99999 2.95665e-08 0)
(2.99998 3.11373e-07 0)
(2.99996 8.61241e-08 0)
(2.9999 1.78747e-06 0)
(2.99975 3.11719e-07 0)
(2.99936 9.73581e-06 0)
(2.99845 1.39968e-06 0)
(2.99611 5.01465e-05 0)
(2.9904 2.26692e-05 0)
(3 -1.5617e-15 0)
(3 1.03348e-13 0)
(3 1.00886e-13 0)
(3 7.45326e-13 0)
(3 6.60172e-13 0)
(3 4.43591e-12 0)
(3 1.97759e-12 0)
(3 2.91733e-11 0)
(3 -3.79951e-12 0)
(3 1.88214e-10 0)
(3 -7.7763e-11 0)
(3 1.09695e-09 0)
(3 -5.35366e-10 0)
(3 5.99874e-09 0)
(3 -2.66984e-09 0)
(3 3.02916e-08 0)
(2.99999 -5.07669e-09 0)
(2.99998 1.29738e-07 0)
(2.99996 6.47777e-08 0)
(2.9999 4.66938e-07 0)
(2.99975 9.99804e-07 0)
(2.99937 8.26808e-07 0)
(2.99845 1.03985e-05 0)
(2.99612 -3.42112e-06 0)
(2.99043 6.65559e-05 0)
(3 1.70078e-16 0)
(3 5.48655e-14 0)
(3 -1.34186e-14 0)
(3 4.95063e-13 0)
(3 -3.54196e-13 0)
(3 2.68958e-12 0)
(3 -3.05858e-12 0)
(3 1.74215e-11 0)
(3 -2.36921e-11 0)
(3 1.07757e-10 0)
(3 -1.43255e-10 0)
(3 5.82928e-10 0)
(3 -6.84659e-10 0)
(3 2.79153e-09 0)
(3 -2.50566e-09 0)
(3 1.05447e-08 0)
(2.99999 1.44756e-09 0)
(2.99998 1.30919e-08 0)
(2.99996 1.14222e-07 0)
(2.9999 -1.74903e-07 0)
(2.99975 1.20997e-06 0)
(2.99937 -2.30525e-06 0)
(2.99844 9.8683e-06 0)
(2.99616 -1.66632e-05 0)
(2.99041 5.50807e-05 0)
(1.22119 1.05401 0)
(1.41409 0.814898 0)
(0.935367 0.480555 0)
(0.156922 0.388394 0)
(-0.3436 0.0858569 0)
(-0.445275 -0.00351205 0)
(-0.651584 -0.0228867 0)
(-0.748635 -0.0385582 0)
(-0.784458 -0.0374347 0)
(-0.797829 -0.018205 0)
(-0.815334 0.00383026 0)
(-0.845935 0.0152575 0)
(-0.880988 0.0165753 0)
(-0.912097 0.012668 0)
(-0.938293 0.00778738 0)
(-0.963464 0.00486496 0)
(-0.989753 0.00369393 0)
(-1.01668 0.00338637 0)
(-1.0432 0.00323545 0)
(-1.06853 0.00289476 0)
(-1.09322 0.0024012 0)
(-1.11847 0.00252858 0)
(-1.14026 0.00402936 0)
(-1.15408 0.00424241 0)
(-1.16179 0.00351043 0)
(-1.16488 0.00243983 0)
(-1.1572 0.000692403 0)
(-1.1307 -0.0027128 0)
(-1.08342 -0.00744953 0)
(-1.01873 -0.0125831 0)
(-0.942079 -0.0171476 0)
(-0.858358 -0.0209384 0)
(-0.771205 -0.0238202 0)
(-0.682958 -0.0261119 0)
(-0.596359 -0.0275933 0)
(-0.513162 -0.0284642 0)
(-0.433997 -0.0292405 0)
(-0.35878 -0.0303265 0)
(-0.284749 -0.0328837 0)
(-0.214678 -0.0335705 0)
(-0.147374 -0.0337557 0)
(-0.0825927 -0.0350763 0)
(-0.0204051 -0.0378936 0)
(0.0475041 -0.0329911 0)
(0.102533 -0.0294674 0)
(0.157471 -0.0281102 0)
(0.208897 -0.0268477 0)
(0.257915 -0.0256063 0)
(0.303342 -0.0242184 0)
(0.346369 -0.0231475 0)
(0.390767 -0.022853 0)
(0.435452 -0.0226072 0)
(0.477838 -0.0216951 0)
(0.518022 -0.0205752 0)
(0.556591 -0.0196522 0)
(0.593657 -0.0187812 0)
(0.629412 -0.018023 0)
(0.663754 -0.0172684 0)
(0.696786 -0.0165635 0)
(0.728458 -0.0158914 0)
(0.758786 -0.0152555 0)
(0.78775 -0.0146623 0)
(0.815315 -0.0141048 0)
(0.841459 -0.0135884 0)
(0.866142 -0.0131135 0)
(0.889323 -0.0126793 0)
(0.910973 -0.0122868 0)
(0.931065 -0.0119344 0)
(0.949586 -0.0116156 0)
(0.966537 -0.011319 0)
(0.981945 -0.011035 0)
(0.996225 -0.0107975 0)
(1.00983 -0.0105736 0)
(1.02275 -0.0103746 0)
(1.03477 -0.0101929 0)
(1.04604 -0.00998283 0)
(1.05715 -0.00972643 0)
(1.06853 -0.00940057 0)
(1.0801 -0.00907314 0)
(1.09172 -0.00873176 0)
(1.10368 -0.00836501 0)
(1.11652 -0.00795542 0)
(1.13047 -0.00752035 0)
(1.14534 -0.00706093 0)
(1.16104 -0.00662805 0)
(1.17739 -0.00623341 0)
(1.19423 -0.00586479 0)
(1.21142 -0.00550413 0)
(1.22887 -0.00514257 0)
(1.24647 -0.00477048 0)
(1.2641 -0.00438497 0)
(1.28164 -0.00398148 0)
(1.29896 -0.00355605 0)
(1.31588 -0.00309821 0)
(1.33214 -0.00259423 0)
(1.34743 -0.00202617 0)
(1.36127 -0.00136906 0)
(1.37305 -0.00063342 0)
(1.38184 0.000206721 0)
(1.38847 0.00112016 0)
(1.2957 0.962661 0)
(1.44125 0.673076 0)
(1.27267 0.416803 0)
(0.884822 0.397301 0)
(0.639739 0.338527 0)
(0.537335 0.262425 0)
(0.388594 0.203361 0)
(0.200438 0.14659 0)
(0.0111891 0.0763715 0)
(-0.203507 0.024911 0)
(-0.34187 0.0236783 0)
(-0.458555 0.0246073 0)
(-0.539848 0.0218758 0)
(-0.590223 0.0175714 0)
(-0.622051 0.0169481 0)