/*--------------------------------*- C++ -*----------------------------------*\
  =========                 |
  \\      /  F ield         | OpenFOAM: The Open Source CFD Toolbox
   \\    /   O peration     | Website:  https://openfoam.org
    \\  /    A nd           | Version:  13
     \\/     M anipulation  |
\*---------------------------------------------------------------------------*/
FoamFile
{
    format      ascii;
    class       volScalarField;
    location    "0.955";
    object      T;
}
// * * * * * * * * * * * * * * * * * * * * * * * * * * * * * * * * * * * * * //

dimensions      [0 0 0 1 0 0 0];

internalField   nonuniform List<scalar> 
1000
(
3.59629e-182
1.43604e-181
6.79601e-181
3.23656e-180
1.53894e-179
7.30317e-179
3.45898e-178
1.63504e-177
7.7135e-177
3.63174e-176
1.70654e-175
8.00304e-175
3.74567e-174
1.74959e-173
8.15598e-173
3.79442e-172
1.76175e-171
8.16333e-171
3.77499e-170
1.74216e-169
8.02381e-169
3.68802e-168
1.6917e-167
7.74405e-167
3.53775e-166
1.61287e-165
7.33805e-165
3.33174e-164
1.50962e-163
6.82605e-163
3.08016e-162
1.38701e-161
6.23281e-161
2.79503e-160
1.25079e-159
5.58566e-159
2.48919e-158
1.10695e-157
4.91236e-157
2.17538e-156
9.61316e-156
4.23915e-155
1.8654e-154
8.19109e-154
3.58913e-153
1.56932e-152
6.84706e-152
2.98104e-151
1.29509e-150
5.61435e-150
2.42864e-149
1.04831e-148
4.51518e-148
1.94053e-147
8.32187e-147
3.56104e-146
1.52049e-145
6.47802e-145
2.7539e-144
1.16816e-143
4.94422e-143
2.08803e-142
8.79865e-142
3.69941e-141
1.55198e-140
6.49638e-140
2.71325e-139
1.13067e-138
4.70123e-138
1.95034e-137
8.07299e-137
3.3341e-136
1.37386e-135
5.64834e-135
2.31694e-134
9.48244e-134
3.87201e-133
1.57747e-132
6.41195e-132
2.6003e-131
1.0521e-130
4.24708e-130
1.71049e-129
6.87299e-129
2.75526e-128
1.10197e-127
4.39707e-127
1.75043e-126
6.95196e-126
2.75455e-125
1.08886e-124
4.2941e-124
1.68945e-123
6.63116e-123
2.59659e-122
1.01434e-121
3.95301e-121
1.53686e-120
5.96077e-120
2.30636e-119
8.90237e-119
3.42797e-118
1.3168e-117
5.04602e-117
1.92897e-116
7.35601e-116
2.79834e-115
1.06193e-114
4.02003e-114
1.51808e-113
5.7186e-113
2.14888e-112
8.05493e-112
3.01185e-111
1.12338e-110
4.17962e-110
1.55118e-109
5.74251e-109
2.12056e-108
7.81102e-108
2.86992e-107
1.0518e-106
3.84502e-106
1.40204e-105
5.09937e-105
1.84997e-104
6.69427e-104
2.41617e-103
8.69834e-103
3.12339e-102
1.11865e-101
3.99614e-101
1.42383e-100
5.05997e-100
1.79351e-99
6.34055e-99
2.23569e-98
7.86241e-98
2.75776e-97
9.64743e-97
3.36603e-96
1.17131e-95
4.06512e-95
1.40708e-94
4.85737e-94
1.67233e-93
5.74219e-93
1.96637e-92
6.71552e-92
2.28729e-91
7.76935e-91
2.6319e-90
8.89139e-90
2.99561e-89
1.00649e-88
3.37245e-88
1.1269e-87
3.75515e-87
1.24787e-86
4.13529e-86
1.36658e-85
4.50357e-85
1.48001e-84
4.85018e-84
1.58501e-83
5.16514e-83
1.67845e-82
5.43885e-82
1.75741e-81
5.66248e-81
1.81929e-80
5.82849e-80
1.86195e-79
5.93104e-79
1.88384e-78
5.9663e-78
1.88412e-77
5.93271e-77
1.86267e-76
5.83109e-76
1.8201e-75
5.6646e-75
1.75779e-74
5.43857e-74
1.67772e-73
5.16024e-73
1.58245e-72
4.83837e-72
1.47493e-71
4.48275e-71
1.35836e-70
4.10374e-70
1.23605e-69
3.71175e-69
1.11123e-68
3.31675e-68
9.86955e-68
2.92789e-67
8.65931e-67
2.55316e-66
7.50474e-66
2.19914e-65
6.42431e-65
1.87091e-64
5.4316e-64
1.57198e-63
4.53535e-63
1.3044e-62
3.73979e-62
1.06884e-61
3.04514e-61
8.6482e-61
2.4483e-60
6.90906e-60
1.94351e-59
5.44959e-59
1.52316e-58
4.24356e-58
1.17846e-57
3.26205e-57
9.00031e-57
2.47521e-56
6.785e-56
1.85382e-55
5.04846e-55
1.37032e-54
3.70728e-54
9.99658e-54
2.68663e-53
7.19649e-53
1.92126e-52
5.1121e-52
1.35568e-51
3.58309e-51
9.4383e-51
2.47778e-50
6.48279e-50
1.69038e-49
4.39268e-49
1.1376e-48
2.93607e-48
7.55179e-48
1.9357e-47
4.94458e-47
1.25868e-46
3.19298e-46
8.07171e-46
2.03338e-45
5.10451e-45
1.27693e-44
3.18309e-44
7.90682e-44
1.95713e-43
4.8272e-43
1.18639e-42
2.90545e-42
7.08999e-42
1.72394e-41
4.17673e-41
1.00829e-40
2.42532e-40
5.81268e-40
1.38805e-39
3.30259e-39
7.8292e-39
1.84922e-38
4.35177e-38
1.02034e-37
2.38353e-37
5.54737e-37
1.2863e-36
2.97155e-36
6.83914e-36
1.56818e-35
3.58229e-35
8.15252e-35
1.84835e-34
4.17481e-34
9.39379e-34
2.10569e-33
4.7021e-33
1.046e-32
2.31795e-32
5.11692e-32
1.12523e-31
2.46488e-31
5.37857e-31
1.1691e-30
2.53133e-30
5.45943e-30
1.17286e-29
2.50982e-29
5.34971e-29
1.1358e-28
2.40193e-28
5.05933e-28
1.06145e-27
2.21808e-27
4.61655e-27
9.57012e-27
1.97594e-26
4.06331e-26
8.32211e-26
1.69757e-25
3.44874e-25
6.97793e-25
1.40611e-24
2.82188e-24
5.63996e-24
1.12261e-23
2.22532e-23
4.39299e-23
8.63637e-23
1.69083e-22
3.29654e-22
6.4004e-22
1.23748e-21
2.3826e-21
4.56811e-21
8.72153e-21
1.65812e-20
3.13905e-20
5.91751e-20
1.11079e-19
2.07622e-19
3.86419e-19
7.16115e-19
1.32142e-18
2.42791e-18
4.4417e-18
8.09073e-18
1.46739e-17
2.6498e-17
4.76423e-17
8.52857e-17
1.52006e-16
2.69737e-16
4.76555e-16
8.38251e-16
1.46797e-15
2.55942e-15
4.44264e-15
7.67736e-15
1.32084e-14
2.2623e-14
3.85755e-14
6.54827e-14
1.10661e-13
1.86169e-13
3.11791e-13
5.19829e-13
8.62766e-13
1.42547e-12
2.34449e-12
3.83853e-12
6.25607e-12
1.01497e-11
1.63916e-11
2.6351e-11
4.21677e-11
6.71685e-11
1.065e-10
1.68085e-10
2.6406e-10
4.12918e-10
6.42704e-10
9.95728e-10
1.5355e-09
2.35687e-09
3.60077e-09
5.47552e-09
8.28749e-09
1.24849e-08
1.87202e-08
2.79379e-08
4.14986e-08
6.13519e-08
9.02764e-08
1.32212e-07
1.92714e-07
2.79577e-07
4.03675e-07
5.801e-07
8.29686e-07
1.18103e-06
1.67319e-06
2.35918e-06
3.31063e-06
4.62371e-06
6.42688e-06
8.89076e-06
1.22407e-05
1.67725e-05
2.28727e-05
3.10428e-05
4.19306e-05
5.63671e-05
7.54127e-05
0.000100413
0.000133063
0.00017549
0.000230342
0.000300898
0.000391197
0.000506174
0.00065183
0.000835414
0.00106562
0.00135283
0.0017093
0.0021495
0.0026903
0.0033513
0.00415505
0.00512738
0.00629759
0.00769872
0.00936768
0.0113454
0.013677
0.0164115
0.0196021
0.0233054
0.0275816
0.0324938
0.0381074
0.0444891
0.0517065
0.0598265
0.0689144
0.0790329
0.09024
0.102588
0.116123
0.130881
0.146888
0.16416
0.1827
0.202496
0.223524
0.245742
0.269097
0.293517
0.318917
0.345199
0.372251
0.399949
0.428161
0.456746
0.485557
0.514443
0.543254
0.571839
0.600051
0.627749
0.654801
0.681083
0.706483
0.730903
0.754258
0.776476
0.797504
0.8173
0.83584
0.853112
0.869119
0.883877
0.897412
0.90976
0.920967
0.931086
0.940174
0.948293
0.955511
0.961893
0.967506
0.972418
0.976695
0.980398
0.983588
0.986323
0.988654
0.990632
0.9923
0.993701
0.994871
0.995843
0.996645
0.997305
0.997844
0.998282
0.998635
0.998918
0.999142
0.999317
0.999452
0.999552
0.999624
0.999669
0.999691
0.999691
0.999669
0.999624
0.999552
0.999452
0.999317
0.999142
0.998918
0.998635
0.998282
0.997844
0.997305
0.996645
0.995843
0.994871
0.993701
0.9923
0.990632
0.988654
0.986323
0.983588
0.980398
0.976695
0.972418
0.967506
0.961893
0.955511
0.948293
0.940174
0.931086
0.920967
0.90976
0.897412
0.883877
0.869119
0.853112
0.83584
0.8173
0.797504
0.776476
0.754258
0.730903
0.706483
0.681083
0.654801
0.627749
0.600051
0.571839
0.543254
0.514443
0.485557
0.456746
0.428161
0.399949
0.372251
0.345199
0.318917
0.293517
0.269097
0.245742
0.223524
0.202496
0.1827
0.16416
0.146888
0.130881
0.116123
0.102588
0.09024
0.0790329
0.0689144
0.0598265
0.0517065
0.0444891
0.0381074
0.0324938
0.0275816
0.0233054
0.0196021
0.0164115
0.013677
0.0113454
0.00936768
0.00769872
0.00629759
0.00512738
0.00415505
0.0033513
0.0026903
0.0021495
0.0017093
0.00135283
0.00106562
0.000835414
0.00065183
0.000506174
0.000391197
0.000300898
0.000230342
0.00017549
0.000133063
0.000100413
7.54127e-05
5.63671e-05
4.19306e-05
3.10428e-05
2.28727e-05
1.67725e-05
1.22407e-05
8.89076e-06
6.42688e-06
4.62371e-06
3.31063e-06
2.35918e-06
1.67319e-06
1.18103e-06
8.29686e-07
5.801e-07
4.03675e-07
2.79577e-07
1.92714e-07
1.32212e-07
9.02764e-08
6.13519e-08
4.14986e-08
2.79379e-08
1.87202e-08
1.24849e-08
8.28749e-09
5.47552e-09
3.60077e-09
2.35687e-09
1.5355e-09
9.95728e-10
6.42704e-10
4.12918e-10
2.6406e-10
1.68085e-10
1.065e-10
6.71685e-11
4.21677e-11
2.6351e-11
1.63916e-11
1.01497e-11
6.25607e-12
3.83853e-12
2.34449e-12
1.42547e-12
8.62766e-13
5.19829e-13
3.11791e-13
1.86169e-13
1.10661e-13
6.54827e-14
3.85755e-14
2.2623e-14
1.32084e-14
7.67736e-15
4.44264e-15
2.55942e-15
1.46797e-15
8.38251e-16
4.76555e-16
2.69737e-16
1.52006e-16
8.52857e-17
4.76423e-17
2.6498e-17
1.46739e-17
8.09073e-18
4.4417e-18
2.42791e-18
1.32142e-18
7.16115e-19
3.86419e-19
2.07622e-19
1.11079e-19
5.91751e-20
3.13905e-20
1.65812e-20
8.72153e-21
4.56811e-21
2.3826e-21
1.23748e-21
6.4004e-22
3.29654e-22
1.69083e-22
8.63637e-23
4.39299e-23
2.22532e-23
1.12261e-23
5.63996e-24
2.82188e-24
1.40611e-24
6.97793e-25
3.44874e-25
1.69757e-25
8.32211e-26
4.06331e-26
1.97594e-26
9.57012e-27
4.61655e-27
2.21808e-27
1.06145e-27
5.05933e-28
2.40193e-28
1.1358e-28
5.34971e-29
2.50982e-29
1.17286e-29
5.45943e-30
2.53133e-30
1.1691e-30
5.37857e-31
2.46488e-31
1.12523e-31
5.11692e-32
2.31795e-32
1.046e-32
4.7021e-33
2.10569e-33
9.39379e-34
4.17481e-34
1.84835e-34
8.15252e-35
3.58229e-35
1.56818e-35
6.83914e-36
2.97155e-36
1.2863e-36
5.54737e-37
2.38353e-37
1.02034e-37
4.35177e-38
1.84922e-38
7.8292e-39
3.30259e-39
1.38805e-39
5.81268e-40
2.42532e-40
1.00829e-40
4.17673e-41
1.72394e-41
7.08999e-42
2.90545e-42
1.18639e-42
4.8272e-43
1.95713e-43
7.90682e-44
3.18309e-44
1.27693e-44
5.10451e-45
2.03338e-45
8.07171e-46
3.19298e-46
1.25868e-46
4.94458e-47
1.9357e-47
7.55179e-48
2.93607e-48
1.1376e-48
4.39268e-49
1.69038e-49
6.48279e-50
2.47778e-50
9.4383e-51
3.58309e-51
1.35568e-51
5.1121e-52
1.92126e-52
7.19649e-53
2.68663e-53
9.99658e-54
3.70728e-54
1.37032e-54
5.04846e-55
1.85382e-55
6.785e-56
2.47521e-56
9.00031e-57
3.26205e-57
1.17846e-57
4.24356e-58
1.52316e-58
5.44959e-59
1.94351e-59
6.90906e-60
2.4483e-60
8.6482e-61
3.04514e-61
1.06884e-61
3.73979e-62
1.3044e-62
4.53535e-63
1.57198e-63
5.4316e-64
1.87091e-64
6.42431e-65
2.19914e-65
7.50474e-66
2.55316e-66
8.65931e-67
2.92789e-67
9.86955e-68
3.31675e-68
1.11123e-68
3.71175e-69
1.23605e-69
4.10374e-70
1.35836e-70
4.48275e-71
1.47493e-71
4.83837e-72
1.58245e-72
5.16024e-73
1.67772e-73
5.43857e-74
1.75779e-74
5.6646e-75
1.8201e-75
5.83109e-76
1.86267e-76
5.93271e-77
1.88412e-77
5.9663e-78
1.88384e-78
5.93104e-79
1.86195e-79
5.82849e-80
1.81929e-80
5.66248e-81
1.75741e-81
5.43885e-82
1.67845e-82
5.16514e-83
1.58501e-83
4.85018e-84
1.48001e-84
4.50357e-85
1.36658e-85
4.13529e-86
1.24787e-86
3.75515e-87
1.1269e-87
3.37245e-88
1.00649e-88
2.99561e-89
8.89139e-90
2.6319e-90
7.76935e-91
2.28729e-91
6.71552e-92
1.96637e-92
5.74219e-93
1.67233e-93
4.85737e-94
1.40708e-94
4.06512e-95
1.17131e-95
3.36603e-96
9.64743e-97
2.75776e-97
7.86241e-98
2.23569e-98
6.34055e-99
1.79351e-99
5.05997e-100
1.42383e-100
3.99614e-101
1.11865e-101
3.12339e-102
8.69834e-103
2.41617e-103
6.69427e-104
1.84997e-104
5.09937e-105
1.40204e-105
3.84502e-106
1.0518e-106
2.86992e-107
7.81102e-108
2.12056e-108
5.74251e-109
1.55118e-109
4.17962e-110
1.12338e-110
3.01185e-111
8.05493e-112
2.14888e-112
5.7186e-113
1.51808e-113
4.02003e-114
1.06193e-114
2.79834e-115
7.35601e-116
1.92897e-116
5.04602e-117
1.3168e-117
3.42797e-118
8.90237e-119
2.30636e-119
5.96077e-120
1.53686e-120
3.95301e-121
1.01434e-121
2.59659e-122
6.63116e-123
1.68945e-123
4.2941e-124
1.08886e-124
2.75455e-125
6.95196e-126
1.75043e-126
4.39707e-127
1.10197e-127
2.75526e-128
6.87299e-129
1.71049e-129
4.24708e-130
1.0521e-130
2.6003e-131
6.41195e-132
1.57747e-132
3.87201e-133
9.48244e-134
2.31694e-134
5.64834e-135
1.37386e-135
3.3341e-136
8.07299e-137
1.95034e-137
4.70123e-138
1.13067e-138
2.71325e-139
6.49638e-140
1.55198e-140
3.69941e-141
8.79865e-142
2.08803e-142
4.94422e-143
1.16816e-143
2.7539e-144
6.47802e-145
1.52049e-145
3.56104e-146
8.32187e-147
1.94053e-147
4.51518e-148
1.04831e-148
2.42864e-149
5.61435e-150
1.29509e-150
2.98104e-151
6.84706e-152
1.56932e-152
3.58913e-153
8.19109e-154
1.8654e-154
4.23915e-155
9.61316e-156
2.17538e-156
4.91236e-157
1.10695e-157
2.48919e-158
5.58566e-159
1.25079e-159
2.79503e-160
6.23281e-161
1.38701e-161
3.08016e-162
6.82605e-163
1.50962e-163
3.33174e-164
7.33805e-165
1.61287e-165
3.53775e-166
7.74405e-167
1.6917e-167
3.68802e-168
8.02381e-169
1.74216e-169
3.77499e-170
8.16333e-171
1.76175e-171
3.79442e-172
8.15598e-173
1.74959e-173
3.74567e-174
8.00304e-175
1.70654e-175
3.63174e-176
7.7135e-177
1.63504e-177
3.45898e-178
7.30317e-179
1.53894e-179
3.23656e-180
6.79601e-181
1.43604e-181
3.59629e-182
)
;

boundaryField
{
    sides
    {
        type            zeroGradient;
    }
    empty
    {
        type            empty;
    }
}


// ************************************************************************* //
