/*--------------------------------*- C++ -*----------------------------------*\
  =========                 |
  \\      /  F ield         | OpenFOAM: The Open Source CFD Toolbox
   \\    /   O peration     | Website:  https://openfoam.org
    \\  /    A nd           | Version:  13
     \\/     M anipulation  |
\*---------------------------------------------------------------------------*/
FoamFile
{
    format      ascii;
    class       volScalarField;
    location    "2.095";
    object      T;
}
// * * * * * * * * * * * * * * * * * * * * * * * * * * * * * * * * * * * * * //

dimensions      [0 0 0 1 0 0 0];

internalField   nonuniform List<scalar> 
1000
(
5.44997e-99
1.04785e-98
2.51356e-98
6.2794e-98
1.57694e-97
3.95805e-97
9.92034e-97
2.48249e-96
6.2023e-96
1.54711e-95
3.85293e-95
9.57992e-95
2.37811e-94
5.89389e-94
1.45838e-93
3.60276e-93
8.8858e-93
2.18803e-92
5.37905e-92
1.32023e-91
3.23511e-91
7.91443e-91
1.93304e-90
4.7136e-90
1.1475e-89
2.78897e-89
6.76738e-89
1.6394e-88
3.96492e-88
9.57347e-88
2.30775e-87
5.55381e-87
1.33437e-86
3.20067e-86
7.66456e-86
1.83237e-85
4.37339e-85
1.04208e-84
2.47891e-84
5.88703e-84
1.39575e-83
3.30363e-83
7.80639e-83
1.84154e-82
4.33694e-82
1.01966e-81
2.39331e-81
5.60805e-81
1.31187e-80
3.06364e-80
7.14251e-80
1.66237e-79
3.86253e-79
8.95936e-79
2.07465e-78
4.79596e-78
1.10679e-77
2.54986e-77
5.86443e-77
1.34646e-76
3.08615e-76
7.0615e-76
1.61299e-75
3.67809e-75
8.37269e-75
1.90266e-74
4.31626e-74
9.77473e-74
2.20979e-73
4.98709e-73
1.12355e-72
2.52686e-72
5.67307e-72
1.27145e-71
2.84463e-71
6.35322e-71
1.41646e-70
3.15251e-70
7.00406e-70
1.55339e-69
3.43916e-69
7.60082e-69
1.67689e-68
3.69305e-68
8.11896e-68
1.78176e-67
3.90329e-67
8.53582e-67
1.86333e-66
4.06036e-66
8.8322e-66
1.91779e-65
4.15681e-65
8.99386e-65
1.94248e-64
4.18786e-64
9.01263e-64
1.93612e-63
4.1518e-63
8.88709e-63
1.8989e-62
4.05009e-62
8.62273e-62
1.83249e-61
3.88735e-61
8.23155e-61
1.7399e-60
3.67094e-60
7.73115e-60
1.62526e-59
3.41044e-59
7.14344e-59
1.49353e-58
3.11692e-58
6.49299e-58
1.35011e-57
2.80219e-57
5.80538e-57
1.20051e-56
2.478e-56
5.10551e-56
1.04997e-55
2.15532e-55
4.41616e-55
9.03182e-55
1.84375e-54
3.75684e-54
7.64077e-54
1.55112e-53
3.143e-53
6.35676e-53
1.28327e-52
2.58575e-52
5.2005e-52
1.04398e-51
2.09181e-51
4.1835e-51
8.35105e-51
1.6639e-50
3.30897e-50
6.56813e-50
1.30128e-49
2.57324e-49
5.07887e-49
1.00053e-48
1.96731e-48
3.86092e-48
7.5628e-48
1.47859e-47
2.88527e-47
5.61949e-47
1.09239e-46
2.11948e-46
4.1044e-46
7.93301e-46
1.53036e-45
2.94655e-45
5.6624e-45
1.08605e-44
2.07905e-44
3.97229e-44
7.57493e-44
1.44171e-43
2.73863e-43
5.19217e-43
9.82476e-43
1.85546e-42
3.49733e-42
6.57925e-42
1.23529e-41
2.31481e-41
4.32926e-41
8.08095e-41
1.50543e-40
2.79904e-40
5.19402e-40
9.61936e-40
1.77801e-39
3.27995e-39
6.03873e-39
1.1096e-38
2.03483e-38
3.7242e-38
6.80265e-38
1.24012e-37
2.25624e-37
4.0968e-37
7.42406e-37
1.34268e-36
2.42349e-36
4.36558e-36
7.8483e-36
1.40812e-35
2.52137e-35
4.50572e-35
8.03562e-35
1.43022e-34
2.54047e-34
4.50351e-34
7.96736e-34
1.4067e-33
2.47863e-33
4.35858e-33
7.64892e-33
1.3396e-32
2.34138e-32
4.084e-32
7.10915e-32
1.235e-31
2.14108e-31
3.70436e-31
6.39601e-31
1.10209e-30
1.89513e-30
3.25215e-30
5.56948e-30
9.51848e-30
1.62342e-29
2.76312e-29
4.69329e-29
7.95538e-29
1.3457e-28
2.27166e-28
3.82683e-28
6.43337e-28
1.07929e-27
1.80693e-27
3.01887e-27
5.03321e-27
8.37422e-27
1.3904e-26
2.30375e-26
3.80911e-26
6.28503e-26
1.03487e-25
1.70042e-25
2.78816e-25
4.56218e-25
7.44932e-25
1.21381e-24
1.97367e-24
3.20247e-24
5.18541e-24
8.37851e-24
1.35094e-23
2.17366e-23
3.49003e-23
5.59177e-23
8.9403e-23
1.42638e-22
2.27092e-22
3.60782e-22
5.71963e-22
9.04835e-22
1.42839e-21
2.2501e-21
3.53698e-21
5.54801e-21
8.68393e-21
1.35634e-20
2.11394e-20
3.28768e-20
5.10219e-20
7.90122e-20
1.22096e-19
1.88268e-19
2.8968e-19
4.44763e-19
6.81405e-19
1.04171e-18
1.58911e-18
2.41894e-18
3.67417e-18
5.56873e-18
8.42199e-18
1.27097e-17
1.91388e-17
2.87577e-17
4.31175e-17
6.45076e-17
9.62999e-17
1.43449e-16
2.13219e-16
3.16235e-16
4.68003e-16
6.91101e-16
1.01833e-15
1.49723e-15
2.19654e-15
3.21545e-15
4.69674e-15
6.84543e-15
9.95531e-15
1.44463e-14
2.09175e-14
3.0221e-14
4.35669e-14
6.26685e-14
8.99475e-14
1.28817e-13
1.84079e-13
2.62469e-13
3.73419e-13
5.30099e-13
7.50864e-13
1.06122e-12
1.49656e-12
2.10583e-12
2.9566e-12
4.14192e-12
5.78962e-12
8.07491e-12
1.12373e-11
1.56037e-11
2.16187e-11
2.98861e-11
4.12235e-11
5.67358e-11
7.79121e-11
1.06755e-10
1.45951e-10
1.99094e-10
2.70985e-10
3.68016e-10
4.98679e-10
6.7423e-10
9.09554e-10
1.22428e-09
1.64424e-09
2.20334e-09
2.94598e-09
3.93014e-09
5.2314e-09
6.94797e-09
9.20722e-09
1.21739e-08
1.60605e-08
2.11407e-08
2.77658e-08
3.63855e-08
4.75748e-08
6.2066e-08
8.07903e-08
1.04929e-07
1.35974e-07
1.75812e-07
2.26813e-07
2.91955e-07
3.74966e-07
4.80503e-07
6.14367e-07
7.8377e-07
9.97649e-07
1.26705e-06
1.60561e-06
2.03008e-06
2.56104e-06
3.22364e-06
4.04861e-06
5.07335e-06
6.34326e-06
7.91333e-06
9.84999e-06
1.22333e-05
1.51593e-05
1.87432e-05
2.31229e-05
2.84623e-05
3.49567e-05
4.28373e-05
5.23777e-05
6.39003e-05
7.77845e-05
9.4475e-05
0.000114492
0.000138442
0.000167031
0.000201077
0.000241527
0.000289472
0.000346166
0.00041305
0.000491769
0.000584199
0.000692472
0.000819006
0.000966531
0.00113813
0.00133724
0.00156776
0.00183398
0.00214073
0.00249334
0.00289769
0.0033603
0.0038883
0.00448951
0.00517246
0.00594643
0.00682147
0.00780844
0.00891902
0.0101657
0.0115619
0.0131218
0.0148605
0.0167939
0.0189387
0.0213122
0.0239328
0.0268192
0.0299909
0.0334677
0.03727
0.0414183
0.0459335
0.0508361
0.0561469
0.0618862
0.0680736
0.0747284
0.0818688
0.0895121
0.0976741
0.106369
0.11561
0.125408
0.135772
0.146708
0.15822
0.17031
0.182976
0.196214
0.210018
0.224377
0.239277
0.254703
0.270635
0.287049
0.30392
0.321221
0.338918
0.356979
0.375366
0.394041
0.412963
0.432089
0.451376
0.470779
0.490252
0.509747
0.52922
0.548622
0.567909
0.587035
0.605957
0.624632
0.643018
0.661078
0.678774
0.696073
0.712943
0.729356
0.745285
0.760707
0.775604
0.789959
0.803757
0.816989
0.829648
0.841728
0.853228
0.86415
0.874497
0.884275
0.893492
0.902159
0.910287
0.91789
0.924982
0.93158
0.937701
0.943361
0.94858
0.953374
0.957763
0.961763
0.965394
0.968672
0.971613
0.974233
0.976547
0.978568
0.980308
0.981779
0.98299
0.983949
0.984662
0.985135
0.98537
0.98537
0.985135
0.984662
0.983949
0.98299
0.981779
0.980308
0.978568
0.976547
0.974233
0.971613
0.968672
0.965394
0.961763
0.957763
0.953374
0.94858
0.943361
0.937701
0.93158
0.924982
0.91789
0.910287
0.902159
0.893492
0.884275
0.874497
0.86415
0.853228
0.841728
0.829648
0.816989
0.803757
0.789959
0.775604
0.760707
0.745285
0.729356
0.712943
0.696073
0.678774
0.661078
0.643018
0.624632
0.605957
0.587035
0.567909
0.548622
0.52922
0.509747
0.490252
0.470779
0.451376
0.432089
0.412963
0.394041
0.375366
0.356979
0.338918
0.321221
0.30392
0.287049
0.270635
0.254703
0.239277
0.224377
0.210018
0.196214
0.182976
0.17031
0.15822
0.146708
0.135772
0.125408
0.11561
0.106369
0.0976741
0.0895121
0.0818688
0.0747284
0.0680736
0.0618862
0.0561469
0.0508361
0.0459335
0.0414183
0.03727
0.0334677
0.0299909
0.0268192
0.0239328
0.0213122
0.0189387
0.0167939
0.0148605
0.0131218
0.0115619
0.0101657
0.00891902
0.00780844
0.00682147
0.00594643
0.00517246
0.00448951
0.0038883
0.0033603
0.00289769
0.00249334
0.00214073
0.00183398
0.00156776
0.00133724
0.00113813
0.000966531
0.000819006
0.000692472
0.000584199
0.000491769
0.00041305
0.000346166
0.000289472
0.000241527
0.000201077
0.000167031
0.000138442
0.000114492
9.4475e-05
7.77845e-05
6.39003e-05
5.23777e-05
4.28373e-05
3.49567e-05
2.84623e-05
2.31229e-05
1.87432e-05
1.51593e-05
1.22333e-05
9.84999e-06
7.91333e-06
6.34326e-06
5.07335e-06
4.04861e-06
3.22364e-06
2.56104e-06
2.03008e-06
1.60561e-06
1.26705e-06
9.97649e-07
7.8377e-07
6.14367e-07
4.80503e-07
3.74966e-07
2.91955e-07
2.26813e-07
1.75812e-07
1.35974e-07
1.04929e-07
8.07903e-08
6.2066e-08
4.75748e-08
3.63855e-08
2.77658e-08
2.11407e-08
1.60605e-08
1.21739e-08
9.20722e-09
6.94797e-09
5.2314e-09
3.93014e-09
2.94598e-09
2.20334e-09
1.64424e-09
1.22428e-09
9.09554e-10
6.7423e-10
4.98679e-10
3.68016e-10
2.70985e-10
1.99094e-10
1.45951e-10
1.06755e-10
7.79121e-11
5.67358e-11
4.12235e-11
2.98861e-11
2.16187e-11
1.56037e-11
1.12373e-11
8.07491e-12
5.78962e-12
4.14192e-12
2.9566e-12
2.10583e-12
1.49656e-12
1.06122e-12
7.50864e-13
5.30099e-13
3.73419e-13
2.62469e-13
1.84079e-13
1.28817e-13
8.99475e-14
6.26685e-14
4.35669e-14
3.0221e-14
2.09175e-14
1.44463e-14
9.95531e-15
6.84543e-15
4.69674e-15
3.21545e-15
2.19654e-15
1.49723e-15
1.01833e-15
6.91101e-16
4.68003e-16
3.16235e-16
2.13219e-16
1.43449e-16
9.62999e-17
6.45076e-17
4.31175e-17
2.87577e-17
1.91388e-17
1.27097e-17
8.42199e-18
5.56873e-18
3.67417e-18
2.41894e-18
1.58911e-18
1.04171e-18
6.81405e-19
4.44763e-19
2.8968e-19
1.88268e-19
1.22096e-19
7.90122e-20
5.10219e-20
3.28768e-20
2.11394e-20
1.35634e-20
8.68393e-21
5.54801e-21
3.53698e-21
2.2501e-21
1.42839e-21
9.04835e-22
5.71963e-22
3.60782e-22
2.27092e-22
1.42638e-22
8.9403e-23
5.59177e-23
3.49003e-23
2.17366e-23
1.35094e-23
8.37851e-24
5.18541e-24
3.20247e-24
1.97367e-24
1.21381e-24
7.44932e-25
4.56218e-25
2.78816e-25
1.70042e-25
1.03487e-25
6.28503e-26
3.80911e-26
2.30375e-26
1.3904e-26
8.37422e-27
5.03321e-27
3.01887e-27
1.80693e-27
1.07929e-27
6.43337e-28
3.82683e-28
2.27166e-28
1.3457e-28
7.95538e-29
4.69329e-29
2.76312e-29
1.62342e-29
9.51848e-30
5.56948e-30
3.25215e-30
1.89513e-30
1.10209e-30
6.39601e-31
3.70436e-31
2.14108e-31
1.235e-31
7.10915e-32
4.084e-32
2.34138e-32
1.3396e-32
7.64892e-33
4.35858e-33
2.47863e-33
1.4067e-33
7.96736e-34
4.50351e-34
2.54047e-34
1.43022e-34
8.03562e-35
4.50572e-35
2.52137e-35
1.40812e-35
7.8483e-36
4.36558e-36
2.42349e-36
1.34268e-36
7.42406e-37
4.0968e-37
2.25624e-37
1.24012e-37
6.80265e-38
3.7242e-38
2.03483e-38
1.1096e-38
6.03873e-39
3.27995e-39
1.77801e-39
9.61936e-40
5.19402e-40
2.79904e-40
1.50543e-40
8.08095e-41
4.32926e-41
2.31481e-41
1.23529e-41
6.57925e-42
3.49733e-42
1.85546e-42
9.82476e-43
5.19217e-43
2.73863e-43
1.44171e-43
7.57493e-44
3.97229e-44
2.07905e-44
1.08605e-44
5.6624e-45
2.94655e-45
1.53036e-45
7.93301e-46
4.1044e-46
2.11948e-46
1.09239e-46
5.61949e-47
2.88527e-47
1.47859e-47
7.5628e-48
3.86092e-48
1.96731e-48
1.00053e-48
5.07887e-49
2.57324e-49
1.30128e-49
6.56813e-50
3.30897e-50
1.6639e-50
8.35105e-51
4.1835e-51
2.09181e-51
1.04398e-51
5.2005e-52
2.58575e-52
1.28327e-52
6.35676e-53
3.143e-53
1.55112e-53
7.64077e-54
3.75684e-54
1.84375e-54
9.03182e-55
4.41616e-55
2.15532e-55
1.04997e-55
5.10551e-56
2.478e-56
1.20051e-56
5.80538e-57
2.80219e-57
1.35011e-57
6.49299e-58
3.11692e-58
1.49353e-58
7.14344e-59
3.41044e-59
1.62526e-59
7.73115e-60
3.67094e-60
1.7399e-60
8.23155e-61
3.88735e-61
1.83249e-61
8.62273e-62
4.05009e-62
1.8989e-62
8.88709e-63
4.1518e-63
1.93612e-63
9.01263e-64
4.18786e-64
1.94248e-64
8.99386e-65
4.15681e-65
1.91779e-65
8.8322e-66
4.06036e-66
1.86333e-66
8.53582e-67
3.90329e-67
1.78176e-67
8.11896e-68
3.69305e-68
1.67689e-68
7.60082e-69
3.43916e-69
1.55339e-69
7.00406e-70
3.15251e-70
1.41646e-70
6.35322e-71
2.84463e-71
1.27145e-71
5.67307e-72
2.52686e-72
1.12355e-72
4.98709e-73
2.20979e-73
9.77473e-74
4.31626e-74
1.90266e-74
8.37269e-75
3.67809e-75
1.61299e-75
7.0615e-76
3.08615e-76
1.34646e-76
5.86443e-77
2.54986e-77
1.10679e-77
4.79596e-78
2.07465e-78
8.95936e-79
3.86253e-79
1.66237e-79
7.14251e-80
3.06364e-80
1.31187e-80
5.60805e-81
2.39331e-81
1.01966e-81
4.33694e-82
1.84154e-82
7.80639e-83
3.30363e-83
1.39575e-83
5.88703e-84
2.47891e-84
1.04208e-84
4.37339e-85
1.83237e-85
7.66456e-86
3.20067e-86
1.33437e-86
5.55381e-87
2.30775e-87
9.57347e-88
3.96492e-88
1.6394e-88
6.76738e-89
2.78897e-89
1.1475e-89
4.7136e-90
1.93304e-90
7.91443e-91
3.23511e-91
1.32023e-91
5.37905e-92
2.18803e-92
8.8858e-93
3.60276e-93
1.45838e-93
5.89389e-94
2.37811e-94
9.57992e-95
3.85293e-95
1.54711e-95
6.2023e-96
2.48249e-96
9.92034e-97
3.95805e-97
1.57694e-97
6.2794e-98
2.51356e-98
1.04785e-98
5.44997e-99
)
;

boundaryField
{
    sides
    {
        type            zeroGradient;
    }
    empty
    {
        type            empty;
    }
}


// ************************************************************************* //
