#           x             T        mag(U)             p
       -4.995       348.432    7.5037e-12        100000
       -4.985       348.432   6.53657e-12        100000
       -4.975       348.432   6.02309e-12        100000
       -4.965       348.432   7.05004e-12        100000
       -4.955       348.432   6.12083e-12        100000
       -4.945       348.432   7.55914e-12        100000
       -4.935       348.432   7.12298e-12        100000
       -4.925       348.432   8.46355e-12        100000
       -4.915       348.432   6.08144e-12        100000
       -4.905       348.432   7.90777e-12        100000
       -4.895       348.432   4.89258e-12        100000
       -4.885       348.432   5.77073e-12        100000
       -4.875       348.432   4.16759e-12        100000
       -4.865       348.432   5.70655e-12        100000
       -4.855       348.432   4.73212e-12        100000
       -4.845       348.432   5.23392e-12        100000
       -4.835       348.432   3.73872e-12        100000
       -4.825       348.432   4.17926e-12        100000
       -4.815       348.432   3.17128e-12        100000
       -4.805       348.432   5.34041e-12        100000
       -4.795       348.432   4.63876e-12        100000
       -4.785       348.432   4.54248e-12        100000
       -4.775       348.432   5.67883e-12        100000
       -4.765       348.432    4.6621e-12        100000
       -4.755       348.432   5.44398e-12        100000
       -4.745       348.432   6.76267e-12        100000
       -4.735       348.432   6.55845e-12        100000
       -4.725       348.432   5.84951e-12        100000
       -4.715       348.432   5.91807e-12        100000
       -4.705       348.432   5.29227e-12        100000
       -4.695       348.432   6.12812e-12        100000
       -4.685       348.432   4.59062e-12        100000
       -4.675       348.432   5.02824e-12        100000
       -4.665       348.432   4.59937e-12        100000
       -4.655       348.432   6.63722e-12        100000
       -4.645       348.432   5.35354e-12        100000
       -4.635       348.432   6.19814e-12        100000
       -4.625       348.432   5.73281e-12        100000
       -4.615       348.432     6.751e-12        100000
       -4.605       348.432   4.17634e-12        100000
       -4.595       348.432   4.50893e-12        100000
       -4.585       348.432   4.84444e-12        100000
       -4.575       348.432   5.31853e-12        100000
       -4.565       348.432    3.2165e-12        100000
       -4.555       348.432   3.20191e-12        100000
       -4.545       348.432   1.40767e-12        100000
       -4.535       348.432   1.59877e-12        100000
       -4.525       348.432   9.33587e-14        100000
       -4.515       348.432    7.6875e-13        100000
       -4.505       348.432   1.29243e-12        100000
       -4.495       348.432   1.19908e-12        100000
       -4.485       348.432   3.36967e-13        100000
       -4.475       348.432   4.17197e-13        100000
       -4.465       348.432   1.75485e-12        100000
       -4.455       348.432   4.30325e-13        100000
       -4.445       348.432   1.82779e-12        100000
       -4.435       348.432   1.80445e-12        100000
       -4.425       348.432   1.74026e-12        100000
       -4.415       348.432   4.57895e-12        100000
       -4.405       348.432   2.62571e-12        100000
       -4.395       348.432   5.44398e-12        100000
       -4.385       348.432   4.17051e-12        100000
       -4.375       348.432   4.56145e-12        100000
       -4.365       348.432   2.77742e-12        100000
       -4.355       348.432   4.27408e-12        100000
       -4.345       348.432    2.9656e-12        100000
       -4.335       348.432   4.28137e-12        100000
       -4.325       348.432   2.89558e-12        100000
       -4.315       348.432    4.4039e-12        100000
       -4.305       348.432   4.27116e-12        100000
       -4.295       348.432   5.21204e-12        100000
       -4.285       348.432   4.14425e-12        100000
       -4.275       348.432   4.63293e-12        100000
       -4.265       348.432   4.86049e-12        100000
       -4.255       348.432   4.16467e-12        100000
       -4.245       348.432   3.14502e-12        100000
       -4.235       348.432   3.51408e-12        100000
       -4.225       348.432   2.81097e-12        100000
       -4.215       348.432   2.39086e-12        100000
       -4.205       348.432   2.30625e-12        100000
       -4.195       348.432   1.68192e-12        100000
       -4.185       348.432   2.27999e-12        100000
       -4.175       348.432   2.10349e-12        100000
       -4.165       348.432   3.86126e-12        100000
       -4.155       348.432   1.32307e-12        100000
       -4.145       348.432   3.55492e-12        100000
       -4.135       348.432   1.76215e-12        100000
       -4.125       348.432   3.62057e-12        100000
       -4.115       348.432   1.52583e-12        100000
       -4.105       348.432   3.99692e-12        100000
       -4.095       348.432   2.52944e-12        100000
       -4.085       348.432   4.81818e-12        100000
       -4.075       348.432   2.94518e-12        100000
       -4.065       348.432   5.50962e-12        100000
       -4.055       348.432   5.24997e-12        100000
       -4.045       348.432   6.11499e-12        100000
       -4.035       348.432   5.04429e-12        100000
       -4.025       348.432    6.1996e-12        100000
       -4.015       348.432   4.17926e-12        100000
       -4.005       348.432     6.274e-12        100000
       -3.995       348.432   4.83715e-12        100000
       -3.985       348.432   4.96406e-12        100000
       -3.975       348.432   4.61542e-12        100000
       -3.965       348.432   4.59354e-12        100000
       -3.955       348.432   4.73795e-12        100000
       -3.945       348.432   4.60521e-12        100000
       -3.935       348.432   4.36598e-12        100000
       -3.925       348.432   5.27768e-12        100000
       -3.915       348.432   5.06617e-12        100000
       -3.905       348.432   5.54025e-12        100000
       -3.895       348.432   3.98525e-12        100000
       -3.885       348.432   5.24413e-12        100000
       -3.875       348.432   3.33611e-12        100000
       -3.865       348.432    2.2056e-12        100000
       -3.855       348.432   2.48859e-12        100000
       -3.845       348.432     2.916e-12        100000
       -3.835       348.432   2.48276e-12        100000
       -3.825       348.432   3.05312e-12        100000
       -3.815       348.432   3.98087e-12        100000
       -3.805       348.432   4.81235e-12        100000
       -3.795       348.432   5.41772e-12        100000
       -3.785       348.432   5.75615e-12        100000
       -3.775       348.432   4.99615e-12        100000
       -3.765       348.432   4.22448e-12        100000
       -3.755       348.432   4.42287e-12        100000
       -3.745       348.432   4.24344e-12        100000
       -3.735       348.432   4.44621e-12        100000
       -3.725       348.432   5.75469e-12        100000
       -3.715       348.432   5.57964e-12        100000
       -3.705       348.432   5.43523e-12        100000
       -3.695       348.432   4.30617e-12        100000
       -3.685       348.432   3.72122e-12        100000
       -3.675       348.432   2.82702e-12        100000
       -3.665       348.432   2.48859e-12        100000
       -3.655       348.432   2.60237e-12        100000
       -3.645       348.432   2.42441e-12        100000
       -3.635       348.432   2.35731e-12        100000
       -3.625       348.432   3.83354e-12        100000
       -3.615       348.432   5.60736e-12        100000
       -3.605       348.432   5.82471e-12        100000
       -3.595       348.432    5.0472e-12        100000
       -3.585       348.432   4.85757e-12        100000
       -3.575       348.432   6.09749e-12        100000
       -3.565       348.432   7.14632e-12        100000
       -3.555       348.432   7.08943e-12        100000
       -3.545       348.432   7.44536e-12        100000
       -3.535       348.432   6.61826e-12        100000
       -3.525       348.432   6.54532e-12        100000
       -3.515       348.432   6.34401e-12        100000
       -3.505       348.432   3.92982e-12        100000
       -3.495       348.432   4.24053e-12        100000
       -3.485       348.432   4.82548e-12        100000
       -3.475       348.432   3.96191e-12        100000
       -3.465       348.432    3.6089e-12        100000
       -3.455       348.432   3.61911e-12        100000
       -3.445       348.432   3.15669e-12        100000
       -3.435       348.432   3.33028e-12        100000
       -3.425       348.432   4.04652e-12        100000
       -3.415       348.432   3.43823e-12        100000
       -3.405       348.432   3.47178e-12        100000
       -3.395       348.432   1.46019e-12        100000
       -3.385       348.432   1.11447e-12        100000
       -3.375       348.432   2.82994e-13        100000
       -3.365       348.432   1.04153e-12        100000
       -3.355       348.432   1.93865e-12        100000
       -3.345       348.432   2.51631e-12        100000
       -3.335       348.432   1.63378e-12        100000
       -3.325       348.432   2.58779e-12        100000
       -3.315       348.432   3.16982e-12        100000
       -3.305       348.432   4.15738e-12        100000
       -3.295       348.432   4.56291e-12        100000
       -3.285       348.432   4.33097e-12        100000
       -3.275       348.432   3.28944e-12        100000
       -3.265       348.432   2.14287e-12        100000
       -3.255       348.432   2.31355e-12        100000
       -3.245       348.432   1.18157e-12        100000
       -3.235       348.432   1.02111e-12        100000
       -3.225       348.432   6.36006e-13        100000
       -3.215       348.432    5.0472e-13        100000
       -3.205       348.432   1.58272e-12        100000
       -3.195       348.432   4.25949e-13        100000
       -3.185       348.432   3.41343e-13        100000
       -3.175       348.432   4.30325e-13        100000
       -3.165       348.432   1.54771e-12        100000
       -3.155       348.432   8.41687e-13        100000
       -3.145       348.432   1.14948e-12        100000
       -3.135       348.432    8.6065e-13        100000
       -3.125       348.432   5.83492e-14        100000
       -3.115       348.432   9.13165e-13        100000
       -3.105       348.432   7.93549e-13        100000
       -3.095       348.432   1.82195e-12        100000
       -3.085       348.432   1.51416e-12        100000
       -3.075       348.432   2.53819e-12        100000
       -3.065       348.432   1.19032e-12        100000
       -3.055       348.432   1.31723e-12        100000
       -3.045       348.432   1.86134e-12        100000
       -3.035       348.432     2.156e-12        100000
       -3.025       348.432   2.38648e-12        100000
       -3.015       348.432   1.98241e-12        100000
       -3.005       348.432   3.03416e-13        100000
       -2.995       348.432   1.76506e-13        100000
       -2.985       348.432   2.36168e-12        100000
       -2.975       348.432   1.56084e-12        100000
       -2.965       348.432    1.7636e-12        100000
       -2.955       348.432   1.73005e-12        100000
       -2.945       348.432   1.77527e-12        100000
       -2.935       348.432    3.0327e-12        100000
       -2.925       348.432   2.96851e-12        100000
       -2.915       348.432   2.93934e-12        100000
       -2.905       348.432   2.18809e-12        100000
       -2.895       348.432   2.01742e-12        100000
       -2.885       348.432   2.19539e-12        100000
       -2.875       348.432   2.85765e-12        100000
       -2.865       348.432   3.12752e-12        100000
       -2.855       348.432   2.64176e-12        100000
       -2.845       348.432   3.31132e-13        100000
       -2.835       348.432   1.27055e-12        100000
       -2.825       348.432   1.37704e-12        100000
       -2.815       348.432   2.92621e-12        100000
       -2.805       348.432   9.89894e-12        100000
       -2.795       348.432    2.2196e-11        100000
       -2.785       348.432   4.73343e-11        100000
       -2.775       348.432   9.70391e-11        100000
       -2.765       348.432    1.9963e-10        100000
       -2.755       348.432   4.06762e-10        100000
       -2.745       348.432    8.2209e-10        100000
       -2.735       348.432   1.65266e-09        100000
       -2.725       348.432   3.29685e-09        100000
       -2.715       348.432   6.53131e-09        100000
       -2.705       348.432   1.28439e-08        100000
       -2.695       348.432    2.5079e-08        100000
       -2.685       348.432   4.86132e-08        100000
       -2.675       348.432    9.3548e-08        100000
       -2.665       348.432   1.78681e-07        100000
       -2.655       348.432   3.38738e-07        100000
       -2.645       348.432   6.37292e-07        100000
       -2.635       348.432   1.18975e-06        100000
       -2.625       348.432   2.20375e-06        100000
       -2.615       348.432   4.04955e-06        100000
       -2.605       348.432   7.38129e-06        100000
       -2.595       348.432   1.33439e-05        100000
       -2.585       348.432   2.39218e-05        100000
       -2.575       348.432   4.25209e-05        100000
       -2.565       348.432   7.49275e-05        100000
       -2.555       348.432    0.00013087        100000
       -2.545       348.432   0.000226528       99999.9
       -2.535       348.432   0.000388516       99999.9
       -2.525       348.432    0.00066011       99999.8
       -2.515       348.432    0.00111085       99999.6
       -2.505       348.431     0.0018511       99999.3
       -2.495       348.431    0.00305378       99998.9
       -2.485        348.43    0.00498621       99998.2
       -2.475       348.429    0.00805577         99997
       -2.465       348.427     0.0128742       99995.2
       -2.455       348.424     0.0203454       99992.5
       -2.445        348.42     0.0317829       99988.2
       -2.435       348.414     0.0490597       99981.8
       -2.425       348.404     0.0747945       99972.3
       -2.415        348.39      0.112566       99958.2
       -2.405        348.37      0.167142         99938
       -2.395       348.341      0.244689       99909.1
       -2.385       348.301      0.352905       99868.9
       -2.375       348.246      0.500966       99813.7
       -2.365       348.172      0.699153       99739.8
       -2.355       348.076      0.957885       99643.1
       -2.345       347.953       1.28571       99520.4
       -2.335       347.802       1.68626       99370.2
       -2.325       347.625         2.158       99193.7
       -2.315       347.423        2.6981       98992.1
       -2.305       347.196       3.30436       98766.4
       -2.295       346.946       3.97426       98517.7
       -2.285       346.673       4.70438       98247.3
       -2.275       346.379       5.49067       97956.9
       -2.265       346.067       6.32869       97648.3
       -2.255       345.737       7.21384       97323.5
       -2.245       345.391       8.14162       96984.1
       -2.235       345.032        9.1077       96631.9
       -2.225        344.66        10.108       96268.5
       -2.215       344.277        11.139       95895.3
       -2.205       343.885       12.1972       95513.6
       -2.195       343.483       13.2798       95124.6
       -2.185       343.074        14.384       94729.2
       -2.175       342.658       15.5077       94328.4
       -2.165       342.236       16.6487         93923
       -2.155       341.808       17.8053       93513.7
       -2.145       341.376       18.9759         93101
       -2.135       340.939       20.1592       92685.4
       -2.125       340.499       21.3539       92267.6
       -2.115       340.055        22.559       91847.7
       -2.105       339.608       23.7735       91426.3
       -2.095       339.158       24.9967       91003.7
       -2.085       338.705       26.2277         90580
       -2.075        338.25        27.466       90155.6
       -2.065       337.793       28.7109       89730.6
       -2.055       337.334        29.962       89305.3
       -2.045       336.874       31.2188       88879.9
       -2.035       336.411       32.4809       88454.4
       -2.025       335.948       33.7478       88029.1
       -2.015       335.483       35.0193         87604
       -2.005       335.016       36.2951       87179.3
       -1.995       334.549       37.5749       86755.1
       -1.985       334.081       38.8584       86331.4
       -1.975       333.612       40.1455       85908.3
       -1.965       333.141       41.4358         85486
       -1.955        332.67       42.7293       85064.5
       -1.945       332.199       44.0258       84643.8
       -1.935       331.727        45.325         84224
       -1.925       331.254       46.6268       83805.2
       -1.915        330.78       47.9312       83387.3
       -1.905       330.306        49.238       82970.5
       -1.895       329.832        50.547       82554.8
       -1.885       329.357       51.8582       82140.2
       -1.875       328.882       53.1715       81726.8
       -1.865       328.406       54.4867       81314.5
       -1.855        327.93       55.8038       80903.4
       -1.845       327.454       57.1227       80493.6
       -1.835       326.977       58.4433         80085
       -1.825         326.5       59.7656       79677.7
       -1.815       326.023       61.0894       79271.7
       -1.805       325.546       62.4148       78867.1
       -1.795       325.069       63.7416       78463.7
       -1.785       324.591       65.0698       78061.7
       -1.775       324.114       66.3993       77661.1
       -1.765       323.636       67.7302       77261.9
       -1.755       323.158       69.0623         76864
       -1.745        322.68       70.3955       76467.6
       -1.735       322.202       71.7299       76072.6
       -1.725       321.724       73.0654         75679
       -1.715       321.246        74.402       75286.8
       -1.705       320.768       75.7396       74896.1
       -1.695        320.29       77.0782       74506.9
       -1.685       319.812       78.4177       74119.1
       -1.675       319.334       79.7581       73732.7
       -1.665       318.856       81.0994       73347.9
       -1.655       318.378       82.4416       72964.5
       -1.645       317.901       83.7845       72582.6
       -1.635       317.423       85.1283       72202.2
       -1.625       316.945       86.4727       71823.3
       -1.615       316.468        87.818         71446
       -1.605        315.99       89.1639       71070.1
       -1.595       315.513       90.5104       70695.7
       -1.585       315.036       91.8577       70322.8
       -1.575       314.558       93.2055       69951.5
       -1.565       314.082       94.5539       69581.6
       -1.555       313.605       95.9029       69213.3
       -1.545       313.128       97.2525       68846.5
       -1.535       312.652       98.6026       68481.2
       -1.525       312.175       99.9532       68117.5
       -1.515       311.699       101.304       67755.2
       -1.505       311.223       102.656       67394.5
       -1.495       310.748       104.008       67035.4
       -1.485       310.272        105.36       66677.7
       -1.475       309.797       106.713       66321.6
       -1.465       309.322       108.066         65967
       -1.455       308.847        109.42       65613.9
       -1.445       308.372       110.774       65262.4
       -1.435       307.898       112.128       64912.4
       -1.425       307.424       113.482       64563.9
       -1.415        306.95       114.837       64216.9
       -1.405       306.477       116.192       63871.4
       -1.395       306.003       117.548       63527.5
       -1.385        305.53       118.904       63185.1
       -1.375       305.057        120.26       62844.2
       -1.365       304.585       121.616       62504.8
       -1.355       304.113       122.972         62167
       -1.345       303.641       124.329       61830.6
       -1.335       303.169       125.686       61495.8
       -1.325       302.698       127.043       61162.5
       -1.315       302.227         128.4       60830.6
       -1.305       301.756       129.757       60500.3
       -1.295       301.285       131.114       60171.5
       -1.285       300.815       132.472       59844.2
       -1.275       300.345        133.83       59518.4
       -1.265       299.876       135.187         59194
       -1.255       299.407       136.545       58871.2
       -1.245       298.938       137.903       58549.9
       -1.235        298.47       139.261         58230
       -1.225       298.001       140.619       57911.6
       -1.215       297.534       141.977       57594.7
       -1.205       297.066       143.336       57279.3
       -1.195       296.599       144.694       56965.3
       -1.185       296.132       146.052       56652.9
       -1.175       295.666        147.41       56341.8
       -1.165         295.2       148.768       56032.2
       -1.155       294.734       150.127       55724.2
       -1.145       294.269       151.485       55417.6
       -1.135       293.804       152.843       55112.4
       -1.125        293.34       154.201       54808.6
       -1.115       292.876       155.559       54506.3
       -1.105       292.412       156.917       54205.5
       -1.095       291.949       158.275       53906.2
       -1.085       291.486       159.633       53608.1
       -1.075       291.023        160.99       53311.5
       -1.065       290.561       162.348       53016.4
       -1.055       290.099       163.706       52722.9
       -1.045       289.638       165.063       52430.7
       -1.035       289.177        166.42       52139.6
       -1.025       288.716       167.777       51849.9
       -1.015       288.256       169.134       51562.1
       -1.005       287.797       170.491       51276.1
       -0.995       287.338       171.848       50990.9
       -0.985       286.878       173.203       50706.2
       -0.975       286.418       174.558       50423.2
       -0.965       285.962       175.915       50143.1
       -0.955       285.507       177.273         49865
       -0.945        285.05       178.629       49586.4
       -0.935       284.589       179.981       49307.1
       -0.925        284.13       181.333       49030.2
       -0.915       283.678        182.69       48758.5
       -0.905        283.23       184.051       48489.3
       -0.895       282.774       185.407       48217.1
       -0.885       282.309       186.753       47941.1
       -0.875       281.849         188.1       47669.3
       -0.865       281.404        189.46       47407.3
       -0.855       280.965       190.829       47148.4
       -0.845       280.508       192.186       46880.7
       -0.835        280.03       193.523         46603
       -0.825       279.565       194.866       46334.7
       -0.815       279.135        196.24       46085.8
       -0.805        278.71       197.632       45840.1
       -0.795       278.244       198.996       45571.4
       -0.785        277.72       200.314       45274.1
       -0.775       277.239       201.652       45004.4
       -0.765       276.837       203.069         44776
       -0.755       276.441       204.531       44550.1
       -0.745       275.974       205.933       44283.5
       -0.735       275.325       207.211       43925.5
       -0.725       274.798       208.527       43640.4
       -0.715       274.444       210.013       43440.9
       -0.705        274.08       211.573       43236.2
       -0.695       273.669        213.04       43003.3
       -0.685       272.889        214.26       42578.9
       -0.675       272.296       215.491       42271.9
       -0.665       271.994       216.965         42102
       -0.655       271.666       218.508       41920.1
       -0.645       271.354       219.963       41745.3
       -0.635       270.624       221.134       41347.6
       -0.625       269.963       222.262       41017.9
       -0.615       269.689       223.653       40866.7
       -0.605       269.385       225.129       40699.4
       -0.595       269.101       226.581       40548.1
       -0.585       268.594       227.816       40264.5
       -0.575       267.811       228.924       39880.4
       -0.565       267.528        230.26       39731.2
       -0.555       267.261       231.727       39583.4
       -0.545       266.896       233.155       39396.2
       -0.535       266.505       234.419       39183.1
       -0.525       265.677       235.494       38772.6
       -0.515         265.3       236.726       38586.5
       -0.505       265.081       238.196       38465.8
       -0.495       264.745       239.656       38289.6
       -0.485       264.393        241.05         38114
       -0.475       263.867       242.245       37836.7
       -0.465       263.113       243.336         37481
       -0.455       262.827        244.65         37336
       -0.445       262.569       246.115       37198.6
       -0.435       262.239       247.579       37034.6
       -0.425       261.932       248.961       36875.7
       -0.415       261.196       250.113       36515.3
       -0.405       260.586       251.239       36237.7
       -0.395       260.279       252.584       36085.7
       -0.385        260.03       254.058       35960.1
       -0.375       259.694       255.424       35777.5
       -0.365       258.895       256.622         35410
       -0.355       258.579       257.962       35263.4
       -0.345        258.38       259.458       35161.7
       -0.335       258.061       260.885       35010.7
       -0.325        257.69        262.08       34824.5
       -0.315       256.757       263.014       34396.3
       -0.305       256.356       264.094       34213.5
       -0.295       256.188       265.482       34123.7
       -0.285       256.021       266.896       34034.9
       -0.275       255.698       268.183       33885.7
       -0.265       255.202       269.175       33649.8
       -0.255       254.236       269.998       33233.2
       -0.245       253.929       271.143       33094.8
       -0.235       253.775       272.649       33010.8
       -0.225       253.599       274.198       32915.5
       -0.215       253.309       275.613       32777.8
       -0.205       253.064       276.862       32670.6
       -0.195       252.715       277.796       32502.1
       -0.185       251.829        278.46         32139
       -0.175       251.579       279.301       32033.3
       -0.165       251.517        280.41       31991.6
       -0.155       251.489       281.499       31950.7
       -0.145       250.959       282.354         31701
       -0.135       250.633       283.168       31561.7
       -0.125       250.519        284.08       31503.6
       -0.115       250.325       284.923       31424.1
       -0.105       250.078       285.593       31322.7
       -0.095       249.441       286.093       31069.3
       -0.085       249.265       286.682       30990.4
       -0.075       249.256       287.391       30966.3
       -0.065       249.248       287.979       30945.7
       -0.055       249.197       288.415       30914.1
       -0.045       249.209       288.784       30911.1
       -0.035       249.049       289.027       30825.8
       -0.025       248.708       289.202       30689.8
       -0.015       248.647       289.492       30664.6
       -0.005         248.6       289.861       30648.8
        0.005       248.548       290.236       30635.9
        0.015       248.514        290.61       30628.2
        0.025       248.526       290.994       30636.5
        0.035       248.559       291.327       30642.2
        0.045       248.341       291.529       30540.3
        0.055       248.268       291.726       30502.6
        0.065       248.306       292.003       30505.4
        0.075       248.366       292.256         30513
        0.085       248.245       292.411       30453.6
        0.095       248.152       292.538       30424.1
        0.105       248.111       292.701       30420.7
        0.115       248.066        292.87       30419.4
        0.125       248.054       293.035       30426.9
        0.135       248.043        293.17       30423.8
        0.145       247.956        293.26       30386.2
        0.155       247.951       293.364       30379.4
        0.165       247.996       293.494       30389.8
        0.175       247.976       293.576       30368.7
        0.185       247.873       293.613       30321.9
        0.195       247.867        293.68       30315.9
        0.205       247.875       293.781       30318.4
        0.215       247.913       293.889         30333
        0.225       247.885       293.954         30319
        0.235       247.805       293.984       30289.3
        0.245       247.798       294.037       30287.3
        0.255       247.824       294.116       30298.7
        0.265       247.833       294.177       30300.7
        0.275       247.774       294.199       30275.8
        0.285       247.752       294.219         30267
        0.295       247.757       294.265       30269.2
        0.305         247.8       294.325         30285
        0.315       247.808       294.368       30286.4
        0.325       247.791       294.387       30278.2
        0.335        247.79       294.403       30276.3