/*--------------------------------*- C++ -*----------------------------------*\
  =========                 |
  \\      /  F ield         | OpenFOAM: The Open Source CFD Toolbox
   \\    /   O peration     | Website:  https://openfoam.org
    \\  /    A nd           | Version:  13
     \\/     M anipulation  |
\*---------------------------------------------------------------------------*/
FoamFile
{
    format      ascii;
    class       volScalarField;
    location    "4";
    object      T;
}
// * * * * * * * * * * * * * * * * * * * * * * * * * * * * * * * * * * * * * //

dimensions      [0 0 0 1 0 0 0];

internalField   nonuniform List<scalar> 
1000
(
1.37112e-55
1.77465e-55
2.69861e-55
4.4101e-55
7.40241e-55
1.25349e-54
2.12756e-54
3.61148e-54
6.12623e-54
1.03822e-53
1.75768e-53
2.97252e-53
5.0216e-53
8.47401e-53
1.42845e-52
2.40531e-52
4.04581e-52
6.7978e-52
1.14093e-51
1.91284e-51
3.20349e-51
5.35917e-51
8.95567e-51
1.49495e-50
2.49276e-50
4.15203e-50
6.90823e-50
1.14815e-49
1.90615e-49
3.16112e-49
5.2366e-49
8.66528e-49
1.43232e-48
2.36496e-48
3.90058e-48
6.42628e-48
1.05758e-47
1.73857e-47
2.8549e-47
4.6829e-47
7.67292e-47
1.25583e-46
2.05315e-46
3.35299e-46
5.46974e-46
8.91296e-46
1.45077e-45
2.35883e-45
3.83102e-45
6.21517e-45
1.00719e-44
1.63039e-44
2.63627e-44
4.25802e-44
6.86982e-44
1.10714e-43
1.78228e-43
2.86596e-43
4.60344e-43
7.38606e-43
1.18375e-42
1.89507e-42
3.03046e-42
4.8407e-42
7.72369e-42
1.231e-41
1.95978e-41
3.11655e-41
4.95057e-41
7.85511e-41
1.24499e-40
1.97103e-40
3.11699e-40
4.92372e-40
7.76901e-40
1.22448e-39
1.92776e-39
3.03157e-39
4.76206e-39
7.47199e-39
1.17109e-38
1.8334e-38
2.86706e-38
4.47847e-38
6.9877e-38
1.08906e-37
1.69543e-37
2.63644e-37
4.09514e-37
6.35377e-37
9.847e-37
1.52436e-36
2.35712e-36
3.6407e-36
5.61693e-36
8.6561e-36
1.33246e-35
2.04879e-35
3.14665e-35
4.82735e-35
7.39737e-35
1.13228e-34
1.73117e-34
2.64383e-34
4.03305e-34
6.14528e-34
9.35314e-34
1.42194e-33
2.15928e-33
3.27526e-33
4.96236e-33
7.50994e-33
1.13525e-32
1.71416e-32
2.58534e-32
3.89483e-32
5.86091e-32
8.80939e-32
1.32261e-31
1.98345e-31
2.9711e-31
4.44545e-31
6.64382e-31
9.918e-31
1.47888e-30
2.20265e-30
3.27689e-30
4.86946e-30
7.22773e-30
1.07158e-29
1.5869e-29
2.34735e-29
3.46823e-29
5.11846e-29
7.54521e-29
1.11098e-28
1.63395e-28
2.40035e-28
3.52217e-28
5.16234e-28
7.55759e-28
1.10515e-27
1.61419e-27
2.355e-27
3.43183e-27
4.99529e-27
7.26262e-27
1.05469e-26
1.52988e-26
2.21659e-26
3.20784e-26
4.63701e-26
6.69516e-26
9.65565e-26
1.39091e-25
2.00131e-25
2.87626e-25
4.12892e-25
5.92029e-25
8.47902e-25
1.21295e-24
1.73316e-24
2.47361e-24
3.52629e-24
5.02111e-24
7.14131e-24
1.0145e-23
1.43953e-23
2.04025e-23
2.88829e-23
4.08407e-23
5.76819e-23
8.1373e-23
1.14661e-22
1.61378e-22
2.26864e-22
3.18553e-22
4.46778e-22
6.25884e-22
8.75769e-22
1.22399e-21
1.70867e-21
2.38249e-21
3.31816e-21
4.61589e-21
6.41365e-21
8.90117e-21
1.2339e-20
1.70846e-20
2.36277e-20
3.26384e-20
4.50326e-20
6.20607e-20
8.54273e-20
1.17454e-19
1.61298e-19
2.21248e-19
3.03125e-19
4.14814e-19
5.66988e-19
7.74079e-19
1.05557e-18
1.43772e-18
1.95594e-18
2.6578e-18
3.60728e-18
4.89019e-18
6.62156e-18
8.95537e-18
1.20975e-17
1.63228e-17
2.1998e-17
2.96114e-17
3.98128e-17
5.34656e-17
7.17156e-17
9.60815e-17
1.28574e-16
1.71852e-16
2.29426e-16
3.05927e-16
4.07456e-16
5.42037e-16
7.20219e-16
9.55843e-16
1.26705e-15
1.6776e-15
2.21855e-15
2.93046e-15
3.86624e-15
5.0948e-15
6.70581e-15
8.81577e-15
1.15759e-14
1.51822e-14
1.98885e-14
2.60227e-14
3.40086e-14
4.43925e-14
5.78782e-14
7.53712e-14
9.80349e-14
1.27362e-13
1.65267e-13
2.14197e-13
2.77285e-13
3.58529e-13
4.63026e-13
5.9727e-13
7.69521e-13
9.90271e-13
1.27283e-12
1.63408e-12
2.09535e-12
2.68365e-12
3.43303e-12
4.38645e-12
5.59799e-12
7.13566e-12
9.08489e-12
1.15528e-11
1.46737e-11
1.86155e-11
2.35881e-11
2.98535e-11
3.7738e-11
4.76481e-11
6.00891e-11
7.56883e-11
9.52235e-11
1.19658e-10
1.50184e-10
1.88273e-10
2.3574e-10
2.94824e-10
3.68277e-10
4.59483e-10
5.72593e-10
7.12698e-10
8.86028e-10
1.1002e-09
1.36452e-09
1.69032e-09
2.09142e-09
2.58461e-09
3.19031e-09
3.93325e-09
4.84344e-09
5.95715e-09
7.31822e-09
8.97957e-09
1.10049e-08
1.34711e-08
1.64702e-08
2.01132e-08
2.45326e-08
2.98874e-08
3.63678e-08
4.42006e-08
5.36564e-08
6.50577e-08
7.87876e-08
9.53017e-08
1.1514e-07
1.38943e-07
1.67466e-07
2.01606e-07
2.42416e-07
2.91141e-07
3.49244e-07
4.18445e-07
5.00762e-07
5.9856e-07
7.14609e-07
8.52144e-07
1.01494e-06
1.20741e-06
1.43467e-06
1.70268e-06
2.01836e-06
2.38974e-06
2.82609e-06
3.33816e-06
3.93833e-06
4.64092e-06
5.46236e-06
6.42159e-06
7.54034e-06
8.84352e-06
1.03597e-05
1.21214e-05
1.41659e-05
1.65358e-05
1.92794e-05
2.24516e-05
2.61149e-05
3.03401e-05
3.52075e-05
4.08075e-05
4.72426e-05
5.46281e-05
6.30939e-05
7.2786e-05
8.38683e-05
9.65245e-05
0.00011096
0.000127405
0.000146116
0.000167379
0.000191511
0.000218866
0.000249836
0.000284855
0.000324404
0.000369013
0.000419267
0.00047581
0.00053935
0.000610664
0.000690605
0.000780105
0.000880181
0.000991946
0.00111661
0.00125548
0.00141
0.00158171
0.00177229
0.00198354
0.00221742
0.00247603
0.00276162
0.00307663
0.00342365
0.00380546
0.00422502
0.00468549
0.00519024
0.00574282
0.00634702
0.00700685
0.00772652
0.00851048
0.00936342
0.0102902
0.0112961
0.0123864
0.0135667
0.0148428
0.0162209
0.0177073
0.0193083
0.0210308
0.0228816
0.0248678
0.0269966
0.0292755
0.031712
0.0343138
0.0370885
0.0400441
0.0431882
0.0465289
0.050074
0.0538312
0.0578083
0.062013
0.0664526
0.0711345
0.0760657
0.0812531
0.086703
0.0924217
0.0984149
0.104688
0.111246
0.118093
0.125232
0.132668
0.140403
0.148438
0.156775
0.165414
0.174356
0.183599
0.193141
0.20298
0.213113
0.223534
0.23424
0.245223
0.256477
0.267994
0.279766
0.291783
0.304035
0.31651
0.329197
0.342084
0.355156
0.368401
0.381803
0.395347
0.409017
0.422797
0.436671
0.450621
0.46463
0.478681
0.492755
0.506835
0.520902
0.534939
0.548927
0.562849
0.576687
0.590424
0.604041
0.617524
0.630854
0.644016
0.656995
0.669775
0.682343
0.694684
0.706785
0.718633
0.730217
0.741525
0.752547
0.763274
0.773695
0.783803
0.793589
0.803048
0.812171
0.820955
0.829392
0.83748
0.845213
0.852589
0.859604
0.866256
0.872543
0.878463
0.884015
0.889198
0.894011
0.898454
0.902526
0.906227
0.909557
0.912516
0.915105
0.917324
0.919172
0.92065
0.921759
0.922498
0.922867
0.922867
0.922498
0.921759
0.92065
0.919172
0.917324
0.915105
0.912516
0.909557
0.906227
0.902526
0.898454
0.894011
0.889198
0.884015
0.878463
0.872543
0.866256
0.859604
0.852589
0.845213
0.83748
0.829392
0.820955
0.812171
0.803048
0.793589
0.783803
0.773695
0.763274
0.752547
0.741525
0.730217
0.718633
0.706785
0.694684
0.682343
0.669775
0.656995
0.644016
0.630854
0.617524
0.604041
0.590424
0.576687
0.562849
0.548927
0.534939
0.520902
0.506835
0.492755
0.478681
0.46463
0.450621
0.436671
0.422797
0.409017
0.395347
0.381803
0.368401
0.355156
0.342084
0.329197
0.31651
0.304035
0.291783
0.279766
0.267994
0.256477
0.245223
0.23424
0.223534
0.213113
0.20298
0.193141
0.183599
0.174356
0.165414
0.156775
0.148438
0.140403
0.132668
0.125232
0.118093
0.111246
0.104688
0.0984149
0.0924217
0.086703
0.0812531
0.0760657
0.0711345
0.0664526
0.062013
0.0578083
0.0538312
0.050074
0.0465289
0.0431882
0.0400441
0.0370885
0.0343138
0.031712
0.0292755
0.0269966
0.0248678
0.0228816
0.0210308
0.0193083
0.0177073
0.0162209
0.0148428
0.0135667
0.0123864
0.0112961
0.0102902
0.00936342
0.00851048
0.00772652
0.00700685
0.00634702
0.00574282
0.00519024
0.00468549
0.00422502
0.00380546
0.00342365
0.00307663
0.00276162
0.00247603
0.00221742
0.00198354
0.00177229
0.00158171
0.00141
0.00125548
0.00111661
0.000991946
0.000880181
0.000780105
0.000690605
0.000610664
0.00053935
0.00047581
0.000419267
0.000369013
0.000324404
0.000284855
0.000249836
0.000218866
0.000191511
0.000167379
0.000146116
0.000127405
0.00011096
9.65245e-05
8.38683e-05
7.2786e-05
6.30939e-05
5.46281e-05
4.72426e-05
4.08075e-05
3.52075e-05
3.03401e-05
2.61149e-05
2.24516e-05
1.92794e-05
1.65358e-05
1.41659e-05
1.21214e-05
1.03597e-05
8.84352e-06
7.54034e-06
6.42159e-06
5.46236e-06
4.64092e-06
3.93833e-06
3.33816e-06
2.82609e-06
2.38974e-06
2.01836e-06
1.70268e-06
1.43467e-06
1.20741e-06
1.01494e-06
8.52144e-07
7.14609e-07
5.9856e-07
5.00762e-07
4.18445e-07
3.49244e-07
2.91141e-07
2.42416e-07
2.01606e-07
1.67466e-07
1.38943e-07
1.1514e-07
9.53017e-08
7.87876e-08
6.50577e-08
5.36564e-08
4.42006e-08
3.63678e-08
2.98874e-08
2.45326e-08
2.01132e-08
1.64702e-08
1.34711e-08
1.10049e-08
8.97957e-09
7.31822e-09
5.95715e-09
4.84344e-09
3.93325e-09
3.19031e-09
2.58461e-09
2.09142e-09
1.69032e-09
1.36452e-09
1.1002e-09
8.86028e-10
7.12698e-10
5.72593e-10
4.59483e-10
3.68277e-10
2.94824e-10
2.3574e-10
1.88273e-10
1.50184e-10
1.19658e-10
9.52235e-11
7.56883e-11
6.00891e-11
4.76481e-11
3.7738e-11
2.98535e-11
2.35881e-11
1.86155e-11
1.46737e-11
1.15528e-11
9.08489e-12
7.13566e-12
5.59799e-12
4.38645e-12
3.43303e-12
2.68365e-12
2.09535e-12
1.63408e-12
1.27283e-12
9.90271e-13
7.69521e-13
5.9727e-13
4.63026e-13
3.58529e-13
2.77285e-13
2.14197e-13
1.65267e-13
1.27362e-13
9.80349e-14
7.53712e-14
5.78782e-14
4.43925e-14
3.40086e-14
2.60227e-14
1.98885e-14
1.51822e-14
1.15759e-14
8.81577e-15
6.70581e-15
5.0948e-15
3.86624e-15
2.93046e-15
2.21855e-15
1.6776e-15
1.26705e-15
9.55843e-16
7.20219e-16
5.42037e-16
4.07456e-16
3.05927e-16
2.29426e-16
1.71852e-16
1.28574e-16
9.60815e-17
7.17156e-17
5.34656e-17
3.98128e-17
2.96114e-17
2.1998e-17
1.63228e-17
1.20975e-17
8.95537e-18
6.62156e-18
4.89019e-18
3.60728e-18
2.6578e-18
1.95594e-18
1.43772e-18
1.05557e-18
7.74079e-19
5.66988e-19
4.14814e-19
3.03125e-19
2.21248e-19
1.61298e-19
1.17454e-19
8.54273e-20
6.20607e-20
4.50326e-20
3.26384e-20
2.36277e-20
1.70846e-20
1.2339e-20
8.90117e-21
6.41365e-21
4.61589e-21
3.31816e-21
2.38249e-21
1.70867e-21
1.22399e-21
8.75769e-22
6.25884e-22
4.46778e-22
3.18553e-22
2.26864e-22
1.61378e-22
1.14661e-22
8.1373e-23
5.76819e-23
4.08407e-23
2.88829e-23
2.04025e-23
1.43953e-23
1.0145e-23
7.14131e-24
5.02111e-24
3.52629e-24
2.47361e-24
1.73316e-24
1.21295e-24
8.47902e-25
5.92029e-25
4.12892e-25
2.87626e-25
2.00131e-25
1.39091e-25
9.65565e-26
6.69516e-26
4.63701e-26
3.20784e-26
2.21659e-26
1.52988e-26
1.05469e-26
7.26262e-27
4.99529e-27
3.43183e-27
2.355e-27
1.61419e-27
1.10515e-27
7.55759e-28
5.16234e-28
3.52217e-28
2.40035e-28
1.63395e-28
1.11098e-28
7.54521e-29
5.11846e-29
3.46823e-29
2.34735e-29
1.5869e-29
1.07158e-29
7.22773e-30
4.86946e-30
3.27689e-30
2.20265e-30
1.47888e-30
9.918e-31
6.64382e-31
4.44545e-31
2.9711e-31
1.98345e-31
1.32261e-31
8.80939e-32
5.86091e-32
3.89483e-32
2.58534e-32
1.71416e-32
1.13525e-32
7.50994e-33
4.96236e-33
3.27526e-33
2.15928e-33
1.42194e-33
9.35314e-34
6.14528e-34
4.03305e-34
2.64383e-34
1.73117e-34
1.13228e-34
7.39737e-35
4.82735e-35
3.14665e-35
2.04879e-35
1.33246e-35
8.6561e-36
5.61693e-36
3.6407e-36
2.35712e-36
1.52436e-36
9.847e-37
6.35377e-37
4.09514e-37
2.63644e-37
1.69543e-37
1.08906e-37
6.9877e-38
4.47847e-38
2.86706e-38
1.8334e-38
1.17109e-38
7.47199e-39
4.76206e-39
3.03157e-39
1.92776e-39
1.22448e-39
7.76901e-40
4.92372e-40
3.11699e-40
1.97103e-40
1.24499e-40
7.85511e-41
4.95057e-41
3.11655e-41
1.95978e-41
1.231e-41
7.72369e-42
4.8407e-42
3.03046e-42
1.89507e-42
1.18375e-42
7.38606e-43
4.60344e-43
2.86596e-43
1.78228e-43
1.10714e-43
6.86982e-44
4.25802e-44
2.63627e-44
1.63039e-44
1.00719e-44
6.21517e-45
3.83102e-45
2.35883e-45
1.45077e-45
8.91296e-46
5.46974e-46
3.35299e-46
2.05315e-46
1.25583e-46
7.67292e-47
4.6829e-47
2.8549e-47
1.73857e-47
1.05758e-47
6.42628e-48
3.90058e-48
2.36496e-48
1.43232e-48
8.66528e-49
5.2366e-49
3.16112e-49
1.90615e-49
1.14815e-49
6.90823e-50
4.15203e-50
2.49276e-50
1.49495e-50
8.95567e-51
5.35917e-51
3.20349e-51
1.91284e-51
1.14093e-51
6.7978e-52
4.04581e-52
2.40531e-52
1.42845e-52
8.47401e-53
5.0216e-53
2.97252e-53
1.75768e-53
1.03822e-53
6.12623e-54
3.61148e-54
2.12756e-54
1.25349e-54
7.40241e-55
4.4101e-55
2.69861e-55
1.77465e-55
1.37112e-55
)
;

boundaryField
{
    sides
    {
        type            zeroGradient;
    }
    empty
    {
        type            empty;
    }
}


// ************************************************************************* //
