/*--------------------------------*- C++ -*----------------------------------*\
  =========                 |
  \\      /  F ield         | OpenFOAM: The Open Source CFD Toolbox
   \\    /   O peration     | Website:  https://openfoam.org
    \\  /    A nd           | Version:  13
     \\/     M anipulation  |
\*---------------------------------------------------------------------------*/
FoamFile
{
    format      ascii;
    class       volScalarField;
    location    "1";
    object      T;
}
// * * * * * * * * * * * * * * * * * * * * * * * * * * * * * * * * * * * * * //

dimensions      [0 0 0 1 0 0 0];

internalField   nonuniform List<scalar> 
1000
(
2.04058e-176
7.78006e-176
3.53264e-175
1.61582e-174
7.37953e-174
3.36377e-173
1.53029e-172
6.94818e-172
3.14858e-171
1.42398e-170
6.42741e-170
2.89541e-169
1.30174e-168
5.84085e-168
2.61556e-167
1.16893e-166
5.2137e-166
2.32079e-165
1.03099e-164
4.57088e-164
2.02243e-163
8.93038e-163
3.93541e-162
1.73074e-161
7.59611e-161
3.32712e-160
1.45433e-159
6.34409e-159
2.76178e-158
1.19983e-157
5.20183e-157
2.25061e-156
9.71741e-156
4.187e-155
1.80035e-154
7.7252e-154
3.30796e-153
1.41353e-152
6.02762e-152
2.56494e-151
1.08918e-150
4.6154e-150
1.95167e-149
8.23542e-149
3.46776e-148
1.45711e-147
6.10963e-147
2.55631e-146
1.0673e-145
4.44666e-145
1.84864e-144
7.66899e-144
3.17462e-143
1.31133e-142
5.40496e-142
2.22298e-141
9.12299e-141
3.73591e-140
1.52655e-139
6.22413e-139
2.5322e-138
1.02793e-137
4.16371e-137
1.68283e-136
6.78646e-136
2.73079e-135
1.0964e-134
4.39229e-134
1.75568e-133
7.00218e-133
2.78645e-132
1.10637e-131
4.383e-131
1.73249e-130
6.83266e-130
2.68862e-129
1.05557e-128
4.13487e-128
1.61603e-127
6.30157e-127
2.45165e-126
9.51643e-126
3.68549e-125
1.42403e-124
5.48964e-124
2.11138e-123
8.1019e-123
3.10171e-122
1.18469e-121
4.51441e-121
1.71626e-120
6.50956e-120
2.46322e-119
9.29896e-119
3.50222e-118
1.31592e-117
4.93276e-117
1.84468e-116
6.88211e-116
2.56147e-115
9.51088e-115
3.52302e-114
1.30187e-113
4.79933e-113
1.76501e-112
6.47542e-112
2.36994e-111
8.65279e-111
3.15152e-110
1.14506e-109
4.15027e-109
1.50059e-108
5.41235e-108
1.94734e-107
6.98925e-107
2.50234e-106
8.93696e-106
3.18388e-105
1.13147e-104
4.01099e-104
1.41832e-103
5.00278e-103
1.76019e-102
6.17757e-102
2.16262e-101
7.55176e-101
2.63037e-100
9.13869e-100
3.16699e-99
1.09472e-98
3.77443e-98
1.29804e-97
4.45255e-97
1.5234e-96
5.19875e-96
1.76955e-95
6.00758e-95
2.03428e-94
6.87054e-94
2.3144e-93
7.7759e-93
2.6057e-92
8.70878e-92
2.903e-91
9.65139e-91
3.20025e-90
1.05834e-89
3.49071e-89
1.14827e-88
3.76716e-88
1.2326e-87
4.02219e-87
1.30899e-86
4.24852e-86
1.3752e-85
4.43931e-85
1.42918e-84
4.58854e-84
1.46919e-83
4.69128e-83
1.49388e-82
4.74398e-82
1.50236e-81
4.74468e-81
1.49429e-80
4.69308e-80
1.46985e-79
4.59065e-79
1.42976e-78
4.44049e-78
1.37525e-77
4.24723e-77
1.30799e-76
4.01673e-76
1.23001e-75
3.75586e-75
1.14359e-74
3.47208e-74
1.05115e-73
3.17314e-73
9.55135e-73
2.86672e-72
8.57923e-72
2.56006e-71
7.6171e-71
2.25976e-70
6.68441e-70
1.97148e-69
5.79755e-69
1.69987e-68
4.96943e-68
1.44847e-67
4.20945e-67
1.21968e-66
3.5235e-66
1.01485e-65
2.91425e-65
8.34345e-65
2.38153e-64
6.77727e-64
1.92282e-63
5.43879e-63
1.53371e-62
4.31182e-62
1.20851e-61
3.37679e-61
9.40642e-61
2.61219e-60
7.23176e-60
1.99589e-59
5.49136e-59
1.50616e-58
4.11818e-58
1.12248e-57
3.04995e-57
8.2611e-57
2.23056e-56
6.00364e-56
1.61079e-55
4.30808e-55
1.14853e-54
3.05222e-54
8.08532e-54
2.13493e-53
5.61916e-53
1.4742e-52
3.85512e-52
1.00487e-51
2.61076e-51
6.76098e-51
1.74514e-50
4.48983e-50
1.15133e-49
2.94266e-49
7.49626e-49
1.90332e-48
4.81654e-48
1.21483e-47
3.05382e-47
7.651e-47
1.91045e-46
4.75438e-46
1.1792e-45
2.91482e-45
7.18065e-45
1.76295e-44
4.31357e-44
1.05184e-43
2.55609e-43
6.19028e-43
1.494e-42
3.59327e-42
8.61247e-42
2.05712e-41
4.89642e-41
1.16141e-40
2.74519e-40
6.46604e-40
1.51767e-39
3.54966e-39
8.27298e-39
1.92132e-38
4.44626e-38
1.02529e-37
2.35583e-37
5.39375e-37
1.23049e-36
2.79709e-36
6.33529e-36
1.42974e-35
3.21496e-35
7.20304e-35
1.60795e-34
3.5764e-34
7.92554e-34
1.74992e-33
3.84954e-33
8.43719e-33
1.84239e-32
4.00824e-32
8.68787e-32
1.87609e-31
4.0362e-31
8.65098e-31
1.84726e-30
3.92966e-30
8.32807e-30
1.75829e-29
3.6982e-29
7.7489e-29
1.61746e-28
3.36333e-28
6.96693e-28
1.43763e-27
2.95515e-27
6.05115e-27
1.23429e-26
2.50791e-26
5.07597e-26
1.02337e-25
2.0552e-25
4.11125e-25
8.19198e-25
1.62591e-24
3.21433e-24
6.3295e-24
1.24144e-23
2.42527e-23
4.71916e-23
9.1461e-23
1.76551e-22
3.39441e-22
6.5e-22
1.23969e-21
2.35483e-21
4.45501e-21
8.39414e-21
1.57521e-20
2.94396e-20
5.47964e-20
1.01577e-19
1.87524e-19
3.44772e-19
6.31274e-19
1.1511e-18
2.09029e-18
3.78009e-18
6.80756e-18
1.22088e-17
2.18042e-17
3.87785e-17
6.86785e-17
1.21123e-16
2.12717e-16
3.72004e-16
6.47823e-16
1.12338e-15
1.93977e-15
3.33525e-15
5.71026e-15
9.73482e-15
1.6525e-14
2.79314e-14
4.70088e-14
7.87764e-14
1.31444e-13
2.18377e-13
3.61239e-13
5.94975e-13
9.75698e-13
1.5931e-12
2.58986e-12
4.19191e-12
6.75534e-12
1.08388e-11
1.73143e-11
2.75372e-11
4.36035e-11
6.87396e-11
1.07888e-10
1.68584e-10
2.62261e-10
4.06185e-10
6.26299e-10
9.61404e-10
1.46924e-09
2.23532e-09
3.38567e-09
5.10511e-09
7.66332e-09
1.14519e-08
1.70368e-08
2.52315e-08
3.71999e-08
5.45983e-08
7.9773e-08
1.1603e-07
1.68002e-07
2.42156e-07
3.4746e-07
4.96299e-07
7.05681e-07
9.98848e-07
1.40739e-06
1.97402e-06
2.75619e-06
3.83079e-06
5.30012e-06
7.29963e-06
1.00077e-05
1.36578e-05
1.85544e-05
2.50915e-05
3.37769e-05
4.52615e-05
6.03744e-05
8.01661e-05
0.00010596
0.000139416
0.000182598
0.000238065
0.000308968
0.000399162
0.000513339
0.000657176
0.000837493
0.00106244
0.00134171
0.0016867
0.00211082
0.00262966
0.00326127
0.00402638
0.00494866
0.00605495
0.00737543
0.00894382
0.0107975
0.0129775
0.0155287
0.0184995
0.0219419
0.0259109
0.0304646
0.035663
0.0415683
0.0482431
0.0557502
0.0641517
0.0735073
0.0838735
0.0953024
0.10784
0.121526
0.136391
0.152455
0.16973
0.188213
0.20789
0.228735
0.250706
0.273748
0.297793
0.322758
0.348551
0.375065
0.402183
0.429782
0.457728
0.485886
0.514114
0.542272
0.570218
0.597817
0.624935
0.651449
0.677242
0.702207
0.726252
0.749294
0.771265
0.79211
0.811787
0.83027
0.847545
0.863609
0.878474
0.89216
0.904698
0.916127
0.926493
0.935848
0.94425
0.951757
0.958432
0.964337
0.969535
0.974089
0.978058
0.9815
0.984471
0.987022
0.989202
0.991055
0.992623
0.993942
0.995048
0.995968
0.996731
0.99736
0.997876
0.998295
0.998633
0.998904
0.999117
0.999282
0.999406
0.999495
0.999552
0.999579
0.999579
0.999552
0.999495
0.999406
0.999282
0.999117
0.998904
0.998633
0.998295
0.997876
0.99736
0.996731
0.995968
0.995048
0.993942
0.992623
0.991055
0.989202
0.987022
0.984471
0.9815
0.978058
0.974089
0.969535
0.964337
0.958432
0.951757
0.94425
0.935848
0.926493
0.916127
0.904698
0.89216
0.878474
0.863609
0.847545
0.83027
0.811787
0.79211
0.771265
0.749294
0.726252
0.702207
0.677242
0.651449
0.624935
0.597817
0.570218
0.542272
0.514114
0.485886
0.457728
0.429782
0.402183
0.375065
0.348551
0.322758
0.297793
0.273748
0.250706
0.228735
0.20789
0.188213
0.16973
0.152455
0.136391
0.121526
0.10784
0.0953024
0.0838735
0.0735073
0.0641517
0.0557502
0.0482431
0.0415683
0.035663
0.0304646
0.0259109
0.0219419
0.0184995
0.0155287
0.0129775
0.0107975
0.00894382
0.00737543
0.00605495
0.00494866
0.00402638
0.00326127
0.00262966
0.00211082
0.0016867
0.00134171
0.00106244
0.000837493
0.000657176
0.000513339
0.000399162
0.000308968
0.000238065
0.000182598
0.000139416
0.00010596
8.01661e-05
6.03744e-05
4.52615e-05
3.37769e-05
2.50915e-05
1.85544e-05
1.36578e-05
1.00077e-05
7.29963e-06
5.30012e-06
3.83079e-06
2.75619e-06
1.97402e-06
1.40739e-06
9.98848e-07
7.05681e-07
4.96299e-07
3.4746e-07
2.42156e-07
1.68002e-07
1.1603e-07
7.9773e-08
5.45983e-08
3.71999e-08
2.52315e-08
1.70368e-08
1.14519e-08
7.66332e-09
5.10511e-09
3.38567e-09
2.23532e-09
1.46924e-09
9.61404e-10
6.26299e-10
4.06185e-10
2.62261e-10
1.68584e-10
1.07888e-10
6.87396e-11
4.36035e-11
2.75372e-11
1.73143e-11
1.08388e-11
6.75534e-12
4.19191e-12
2.58986e-12
1.5931e-12
9.75698e-13
5.94975e-13
3.61239e-13
2.18377e-13
1.31444e-13
7.87764e-14
4.70088e-14
2.79314e-14
1.6525e-14
9.73482e-15
5.71026e-15
3.33525e-15
1.93977e-15
1.12338e-15
6.47823e-16
3.72004e-16
2.12717e-16
1.21123e-16
6.86785e-17
3.87785e-17
2.18042e-17
1.22088e-17
6.80756e-18
3.78009e-18
2.09029e-18
1.1511e-18
6.31274e-19
3.44772e-19
1.87524e-19
1.01577e-19
5.47964e-20
2.94396e-20
1.57521e-20
8.39414e-21
4.45501e-21
2.35483e-21
1.23969e-21
6.5e-22
3.39441e-22
1.76551e-22
9.1461e-23
4.71916e-23
2.42527e-23
1.24144e-23
6.3295e-24
3.21433e-24
1.62591e-24
8.19198e-25
4.11125e-25
2.0552e-25
1.02337e-25
5.07597e-26
2.50791e-26
1.23429e-26
6.05115e-27
2.95515e-27
1.43763e-27
6.96693e-28
3.36333e-28
1.61746e-28
7.7489e-29
3.6982e-29
1.75829e-29
8.32807e-30
3.92966e-30
1.84726e-30
8.65098e-31
4.0362e-31
1.87609e-31
8.68787e-32
4.00824e-32
1.84239e-32
8.43719e-33
3.84954e-33
1.74992e-33
7.92554e-34
3.5764e-34
1.60795e-34
7.20304e-35
3.21496e-35
1.42974e-35
6.33529e-36
2.79709e-36
1.23049e-36
5.39375e-37
2.35583e-37
1.02529e-37
4.44626e-38
1.92132e-38
8.27298e-39
3.54966e-39
1.51767e-39
6.46604e-40
2.74519e-40
1.16141e-40
4.89642e-41
2.05712e-41
8.61247e-42
3.59327e-42
1.494e-42
6.19028e-43
2.55609e-43
1.05184e-43
4.31357e-44
1.76295e-44
7.18065e-45
2.91482e-45
1.1792e-45
4.75438e-46
1.91045e-46
7.651e-47
3.05382e-47
1.21483e-47
4.81654e-48
1.90332e-48
7.49626e-49
2.94266e-49
1.15133e-49
4.48983e-50
1.74514e-50
6.76098e-51
2.61076e-51
1.00487e-51
3.85512e-52
1.4742e-52
5.61916e-53
2.13493e-53
8.08532e-54
3.05222e-54
1.14853e-54
4.30808e-55
1.61079e-55
6.00364e-56
2.23056e-56
8.2611e-57
3.04995e-57
1.12248e-57
4.11818e-58
1.50616e-58
5.49136e-59
1.99589e-59
7.23176e-60
2.61219e-60
9.40642e-61
3.37679e-61
1.20851e-61
4.31182e-62
1.53371e-62
5.43879e-63
1.92282e-63
6.77727e-64
2.38153e-64
8.34345e-65
2.91425e-65
1.01485e-65
3.5235e-66
1.21968e-66
4.20945e-67
1.44847e-67
4.96943e-68
1.69987e-68
5.79755e-69
1.97148e-69
6.68441e-70
2.25976e-70
7.6171e-71
2.56006e-71
8.57923e-72
2.86672e-72
9.55135e-73
3.17314e-73
1.05115e-73
3.47208e-74
1.14359e-74
3.75586e-75
1.23001e-75
4.01673e-76
1.30799e-76
4.24723e-77
1.37525e-77
4.44049e-78
1.42976e-78
4.59065e-79
1.46985e-79
4.69308e-80
1.49429e-80
4.74468e-81
1.50236e-81
4.74398e-82
1.49388e-82
4.69128e-83
1.46919e-83
4.58854e-84
1.42918e-84
4.43931e-85
1.3752e-85
4.24852e-86
1.30899e-86
4.02219e-87
1.2326e-87
3.76716e-88
1.14827e-88
3.49071e-89
1.05834e-89
3.20025e-90
9.65139e-91
2.903e-91
8.70878e-92
2.6057e-92
7.7759e-93
2.3144e-93
6.87054e-94
2.03428e-94
6.00758e-95
1.76955e-95
5.19875e-96
1.5234e-96
4.45255e-97
1.29804e-97
3.77443e-98
1.09472e-98
3.16699e-99
9.13869e-100
2.63037e-100
7.55176e-101
2.16262e-101
6.17757e-102
1.76019e-102
5.00278e-103
1.41832e-103
4.01099e-104
1.13147e-104
3.18388e-105
8.93696e-106
2.50234e-106
6.98925e-107
1.94734e-107
5.41235e-108
1.50059e-108
4.15027e-109
1.14506e-109
3.15152e-110
8.65279e-111
2.36994e-111
6.47542e-112
1.76501e-112
4.79933e-113
1.30187e-113
3.52302e-114
9.51088e-115
2.56147e-115
6.88211e-116
1.84468e-116
4.93276e-117
1.31592e-117
3.50222e-118
9.29896e-119
2.46322e-119
6.50956e-120
1.71626e-120
4.51441e-121
1.18469e-121
3.10171e-122
8.1019e-123
2.11138e-123
5.48964e-124
1.42403e-124
3.68549e-125
9.51643e-126
2.45165e-126
6.30157e-127
1.61603e-127
4.13487e-128
1.05557e-128
2.68862e-129
6.83266e-130
1.73249e-130
4.383e-131
1.10637e-131
2.78645e-132
7.00218e-133
1.75568e-133
4.39229e-134
1.0964e-134
2.73079e-135
6.78646e-136
1.68283e-136
4.16371e-137
1.02793e-137
2.5322e-138
6.22413e-139
1.52655e-139
3.73591e-140
9.12299e-141
2.22298e-141
5.40496e-142
1.31133e-142
3.17462e-143
7.66899e-144
1.84864e-144
4.44666e-145
1.0673e-145
2.55631e-146
6.10963e-147
1.45711e-147
3.46776e-148
8.23542e-149
1.95167e-149
4.6154e-150
1.08918e-150
2.56494e-151
6.02762e-152
1.41353e-152
3.30796e-153
7.7252e-154
1.80035e-154
4.187e-155
9.71741e-156
2.25061e-156
5.20183e-157
1.19983e-157
2.76178e-158
6.34409e-159
1.45433e-159
3.32712e-160
7.59611e-161
1.73074e-161
3.93541e-162
8.93038e-163
2.02243e-163
4.57088e-164
1.03099e-164
2.32079e-165
5.2137e-166
1.16893e-166
2.61556e-167
5.84085e-168
1.30174e-168
2.89541e-169
6.42741e-170
1.42398e-170
3.14858e-171
6.94818e-172
1.53029e-172
3.36377e-173
7.37953e-174
1.61582e-174
3.53264e-175
7.78006e-176
2.04058e-176
)
;

boundaryField
{
    sides
    {
        type            zeroGradient;
    }
    empty
    {
        type            empty;
    }
}


// ************************************************************************* //
