/*--------------------------------*- C++ -*----------------------------------*\
  =========                 |
  \\      /  F ield         | OpenFOAM: The Open Source CFD Toolbox
   \\    /   O peration     | Website:  https://openfoam.org
    \\  /    A nd           | Version:  13
     \\/     M anipulation  |
\*---------------------------------------------------------------------------*/
FoamFile
{
    format      ascii;
    class       volScalarField;
    location    "0.275";
    object      T;
}
// * * * * * * * * * * * * * * * * * * * * * * * * * * * * * * * * * * * * * //

dimensions      [0 0 0 1 0 0 0];

internalField   nonuniform List<scalar> 
1000
(
0
0
0
0
0
0
0
0
0
0
0
0
0
0
0
0
0
0
0
0
0
0
0
0
0
0
0
0
0
0
0
0
0
0
0
0
0
2.07508e-322
3.05827e-321
4.11606e-320
5.49016e-319
7.30032e-318
9.68629e-317
1.2825e-315
1.69448e-314
2.23405e-313
2.9392e-312
3.85867e-311
5.05495e-310
6.60793e-309
8.61947e-308
1.12191e-306
1.45713e-305
1.88841e-304
2.44202e-303
3.15105e-302
4.05707e-301
5.21216e-300
6.6814e-299
8.54594e-298
1.09067e-296
1.38887e-295
1.76467e-294
2.23717e-293
2.82985e-292
3.57152e-291
4.49744e-290
5.65066e-289
7.08354e-288
8.85964e-287
1.10559e-285
1.37652e-284
1.70991e-283
2.11919e-282
2.6204e-281
3.23268e-280
3.97879e-279
4.88576e-278
5.98552e-277
7.31571e-276
8.92061e-275
1.08521e-273
1.31706e-272
1.59468e-271
1.92625e-270
2.32123e-269
2.79055e-268
3.34673e-267
4.00416e-266
4.77921e-265
5.69053e-264
6.75925e-263
8.0092e-262
9.46722e-261
1.11634e-259
1.31312e-258
1.54079e-257
1.80349e-256
2.10577e-255
2.45262e-254
2.84949e-253
3.30234e-252
3.81758e-251
4.40215e-250
5.06345e-249
5.80939e-248
6.64835e-247
7.58913e-246
8.64097e-245
9.81345e-244
1.11164e-242
1.256e-241
1.41545e-240
1.591e-239
1.78369e-238
1.9945e-237
2.2244e-236
2.47429e-235
2.74502e-234
3.03732e-233
3.35186e-232
3.68914e-231
4.04954e-230
4.43326e-229
4.84032e-228
5.27054e-227
5.72349e-226
6.19853e-225
6.69475e-224
7.21097e-223
7.74574e-222
8.29733e-221
8.86371e-220
9.44258e-219
1.00314e-217
1.06272e-216
1.1227e-215
1.18274e-214
1.24248e-213
1.30157e-212
1.3596e-211
1.41619e-210
1.47093e-209
1.52341e-208
1.57324e-207
1.62002e-206
1.66336e-205
1.70292e-204
1.73834e-203
1.76932e-202
1.79557e-201
1.81685e-200
1.83295e-199
1.84372e-198
1.84904e-197
1.84885e-196
1.84312e-195
1.83188e-194
1.81522e-193
1.79327e-192
1.76621e-191
1.73425e-190
1.69765e-189
1.65673e-188
1.61181e-187
1.56325e-186
1.51145e-185
1.45681e-184
1.39976e-183
1.34071e-182
1.28011e-181
1.21838e-180
1.15595e-179
1.09322e-178
1.03059e-177
9.6842e-177
9.07071e-176
8.46858e-175
7.88074e-174
7.30979e-173
6.75801e-172
6.22734e-171
5.71942e-170
5.23553e-169
4.77664e-168
4.34342e-167
3.93627e-166
3.55527e-165
3.20031e-164
2.87102e-163
2.56685e-162
2.28705e-161
2.03076e-160
1.79698e-159
1.58461e-158
1.39249e-157
1.21939e-156
1.06407e-155
9.25267e-155
8.01731e-154
6.92227e-153
5.95551e-152
5.10546e-151
4.36103e-150
3.71172e-149
3.14765e-148
2.6596e-147
2.23902e-146
1.87805e-145
1.56947e-144
1.30674e-143
1.08396e-142
8.95804e-142
7.37538e-141
6.0495e-140
4.94324e-139
4.02395e-138
3.26315e-137
2.63607e-136
2.1213e-135
1.70048e-134
1.35785e-133
1.08003e-132
8.55697e-132
6.75296e-131
5.30824e-130
4.15606e-129
3.24101e-128
2.51731e-127
1.94736e-126
1.50037e-125
1.15129e-124
8.7983e-124
6.69625e-123
5.07545e-122
3.83107e-121
2.87978e-120
2.15567e-119
1.60688e-118
1.19276e-117
8.81618e-117
6.48872e-116
4.75532e-115
3.47002e-114
2.52121e-113
1.82389e-112
1.3137e-111
9.42082e-111
6.72617e-110
4.78106e-109
3.38337e-108
2.38359e-107
1.67172e-106
1.16717e-105
8.11207e-105
5.61241e-104
3.86524e-103
2.64973e-102
1.80807e-101
1.22803e-100
8.30174e-100
5.58581e-99
3.74068e-98
2.49317e-97
1.65378e-96
1.09173e-95
7.17231e-95
4.68915e-94
3.05078e-93
1.97513e-92
1.27245e-91
8.15698e-91
5.20301e-90
3.30219e-89
2.08527e-88
1.31015e-87
8.18965e-87
5.09314e-86
3.15114e-85
1.93955e-84
1.1876e-83
7.23376e-83
4.38298e-82
2.64164e-81
1.58367e-80
9.44334e-80
5.60074e-79
3.30378e-78
1.93824e-77
1.1309e-76
6.56206e-76
3.78659e-75
2.17285e-74
1.23986e-73
7.03498e-73
3.96902e-72
2.22649e-71
1.24182e-70
6.88625e-70
3.79645e-69
2.08079e-68
1.13375e-67
6.14088e-67
3.30637e-66
1.76955e-65
9.41344e-65
4.97728e-64
2.61564e-63
1.36611e-62
7.09093e-62
3.65771e-61
1.87494e-60
9.55034e-60
4.83378e-59
2.43093e-58
1.21467e-57
6.0301e-57
2.97408e-56
1.45722e-55
7.09281e-55
3.42939e-54
1.64703e-53
7.85684e-53
3.72254e-52
1.75168e-51
8.18601e-51
3.79902e-50
1.75078e-49
8.01182e-49
3.64039e-48
1.64233e-47
7.35606e-47
3.271e-46
1.44392e-45
6.32721e-45
2.75208e-44
1.18814e-43
5.09104e-43
2.16498e-42
9.13666e-42
3.82631e-41
1.59003e-40
6.55604e-40
2.68201e-39
1.08851e-38
4.38267e-38
1.75044e-37
6.93473e-37
2.72497e-36
1.06197e-35
4.10447e-35
1.57313e-34
5.97868e-34
2.25295e-33
8.4173e-33
3.11773e-32
1.14477e-31
4.1666e-31
1.50313e-30
5.37443e-30
1.90439e-29
6.68703e-29
2.32666e-28
8.02089e-28
2.73947e-27
9.26894e-27
3.10656e-26
1.03129e-25
3.39074e-25
1.10405e-24
3.55977e-24
1.13648e-23
3.59227e-23
1.1241e-22
3.48203e-22
1.06761e-21
3.23968e-21
9.72897e-21
2.8911e-20
8.50062e-20
2.4728e-19
7.11597e-19
2.02556e-18
5.70271e-18
1.5878e-17
4.37167e-17
1.19012e-16
3.20318e-16
8.52267e-16
2.24143e-15
5.82623e-15
1.49663e-14
3.79891e-14
9.5274e-14
2.36055e-13
5.77734e-13
1.39659e-12
3.3342e-12
7.86037e-12
1.82968e-11
4.20476e-11
9.5387e-11
2.13585e-10
4.71992e-10
1.02928e-09
2.21471e-09
4.70147e-09
9.84546e-09
2.03364e-08
4.14285e-08
8.32265e-08
1.6486e-07
3.21965e-07
6.19864e-07
1.17634e-06
2.20025e-06
4.05572e-06
7.36677e-06
1.31843e-05
2.32472e-05
4.03805e-05
6.90919e-05
0.000116439
0.000193266
0.00031591
0.000508505
0.000805982
0.00125786
0.00193283
0.00292412
0.00435542
0.00638687
0.00922083
0.0131063
0.0183412
0.0252715
0.0342858
0.0458047
0.0602643
0.0780933
0.0996855
0.125368
0.155367
0.18978
0.228542
0.271416
0.317977
0.367626
0.419606
0.473038
0.526962
0.580394
0.632374
0.682023
0.728584
0.771458
0.81022
0.844633
0.874632
0.900315
0.921907
0.939736
0.954195
0.965714
0.974729
0.981659
0.986894
0.990779
0.993613
0.995645
0.997076
0.998067
0.998742
0.999194
0.999491
0.999684
0.999807
0.999884
0.999931
0.99996
0.999977
0.999987
0.999993
0.999996
0.999998
0.999999
0.999999
1
1
1
1
1
1
1
1
1
1
1
1
1
1
1
1
1
1
1
1
1
1
1
1
1
1
0.999999
0.999999
0.999998
0.999996
0.999993
0.999987
0.999977
0.99996
0.999931
0.999884
0.999807
0.999684
0.999491
0.999194
0.998742
0.998067
0.997076
0.995645
0.993613
0.990779
0.986894
0.981659
0.974729
0.965714
0.954195
0.939736
0.921907
0.900315
0.874632
0.844633
0.81022
0.771458
0.728584
0.682023
0.632374
0.580394
0.526962
0.473038
0.419606
0.367626
0.317977
0.271416
0.228542
0.18978
0.155367
0.125368
0.0996855
0.0780933
0.0602643
0.0458047
0.0342858
0.0252715
0.0183412
0.0131063
0.00922083
0.00638687
0.00435542
0.00292412
0.00193283
0.00125786
0.000805982
0.000508505
0.00031591
0.000193266
0.000116439
6.90919e-05
4.03805e-05
2.32472e-05
1.31843e-05
7.36677e-06
4.05572e-06
2.20025e-06
1.17634e-06
6.19864e-07
3.21965e-07
1.6486e-07
8.32265e-08
4.14285e-08
2.03364e-08
9.84546e-09
4.70147e-09
2.21471e-09
1.02928e-09
4.71992e-10
2.13585e-10
9.5387e-11
4.20476e-11
1.82968e-11
7.86037e-12
3.3342e-12
1.39659e-12
5.77734e-13
2.36055e-13
9.5274e-14
3.79891e-14
1.49663e-14
5.82623e-15
2.24143e-15
8.52267e-16
3.20318e-16
1.19012e-16
4.37167e-17
1.5878e-17
5.70271e-18
2.02556e-18
7.11597e-19
2.4728e-19
8.50062e-20
2.8911e-20
9.72897e-21
3.23968e-21
1.06761e-21
3.48203e-22
1.1241e-22
3.59227e-23
1.13648e-23
3.55977e-24
1.10405e-24
3.39074e-25
1.03129e-25
3.10656e-26
9.26894e-27
2.73947e-27
8.02089e-28
2.32666e-28
6.68703e-29
1.90439e-29
5.37443e-30
1.50313e-30
4.1666e-31
1.14477e-31
3.11773e-32
8.4173e-33
2.25295e-33
5.97868e-34
1.57313e-34
4.10447e-35
1.06197e-35
2.72497e-36
6.93473e-37
1.75044e-37
4.38267e-38
1.08851e-38
2.68201e-39
6.55604e-40
1.59003e-40
3.82631e-41
9.13666e-42
2.16498e-42
5.09104e-43
1.18814e-43
2.75208e-44
6.32721e-45
1.44392e-45
3.271e-46
7.35606e-47
1.64233e-47
3.64039e-48
8.01182e-49
1.75078e-49
3.79902e-50
8.18601e-51
1.75168e-51
3.72254e-52
7.85684e-53
1.64703e-53
3.42939e-54
7.09281e-55
1.45722e-55
2.97408e-56
6.0301e-57
1.21467e-57
2.43093e-58
4.83378e-59
9.55034e-60
1.87494e-60
3.65771e-61
7.09093e-62
1.36611e-62
2.61564e-63
4.97728e-64
9.41344e-65
1.76955e-65
3.30637e-66
6.14088e-67
1.13375e-67
2.08079e-68
3.79645e-69
6.88625e-70
1.24182e-70
2.22649e-71
3.96902e-72
7.03498e-73
1.23986e-73
2.17285e-74
3.78659e-75
6.56206e-76
1.1309e-76
1.93824e-77
3.30378e-78
5.60074e-79
9.44334e-80
1.58367e-80
2.64164e-81
4.38298e-82
7.23376e-83
1.1876e-83
1.93955e-84
3.15114e-85
5.09314e-86
8.18965e-87
1.31015e-87
2.08527e-88
3.30219e-89
5.20301e-90
8.15698e-91
1.27245e-91
1.97513e-92
3.05078e-93
4.68915e-94
7.17231e-95
1.09173e-95
1.65378e-96
2.49317e-97
3.74068e-98
5.58581e-99
8.30174e-100
1.22803e-100
1.80807e-101
2.64973e-102
3.86524e-103
5.61241e-104
8.11207e-105
1.16717e-105
1.67172e-106
2.38359e-107
3.38337e-108
4.78106e-109
6.72617e-110
9.42082e-111
1.3137e-111
1.82389e-112
2.52121e-113
3.47002e-114
4.75532e-115
6.48872e-116
8.81618e-117
1.19276e-117
1.60688e-118
2.15567e-119
2.87978e-120
3.83107e-121
5.07545e-122
6.69625e-123
8.7983e-124
1.15129e-124
1.50037e-125
1.94736e-126
2.51731e-127
3.24101e-128
4.15606e-129
5.30824e-130
6.75296e-131
8.55697e-132
1.08003e-132
1.35785e-133
1.70048e-134
2.1213e-135
2.63607e-136
3.26315e-137
4.02395e-138
4.94324e-139
6.0495e-140
7.37538e-141
8.95804e-142
1.08396e-142
1.30674e-143
1.56947e-144
1.87805e-145
2.23902e-146
2.6596e-147
3.14765e-148
3.71172e-149
4.36103e-150
5.10546e-151
5.95551e-152
6.92227e-153
8.01731e-154
9.25267e-155
1.06407e-155
1.21939e-156
1.39249e-157
1.58461e-158
1.79698e-159
2.03076e-160
2.28705e-161
2.56685e-162
2.87102e-163
3.20031e-164
3.55527e-165
3.93627e-166
4.34342e-167
4.77664e-168
5.23553e-169
5.71942e-170
6.22734e-171
6.75801e-172
7.30979e-173
7.88074e-174
8.46858e-175
9.07071e-176
9.6842e-177
1.03059e-177
1.09322e-178
1.15595e-179
1.21838e-180
1.28011e-181
1.34071e-182
1.39976e-183
1.45681e-184
1.51145e-185
1.56325e-186
1.61181e-187
1.65673e-188
1.69765e-189
1.73425e-190
1.76621e-191
1.79327e-192
1.81522e-193
1.83188e-194
1.84312e-195
1.84885e-196
1.84904e-197
1.84372e-198
1.83295e-199
1.81685e-200
1.79557e-201
1.76932e-202
1.73834e-203
1.70292e-204
1.66336e-205
1.62002e-206
1.57324e-207
1.52341e-208
1.47093e-209
1.41619e-210
1.3596e-211
1.30157e-212
1.24248e-213
1.18274e-214
1.1227e-215
1.06272e-216
1.00314e-217
9.44258e-219
8.86371e-220
8.29733e-221
7.74574e-222
7.21097e-223
6.69475e-224
6.19853e-225
5.72349e-226
5.27054e-227
4.84032e-228
4.43326e-229
4.04954e-230
3.68914e-231
3.35186e-232
3.03732e-233
2.74502e-234
2.47429e-235
2.2244e-236
1.9945e-237
1.78369e-238
1.591e-239
1.41545e-240
1.256e-241
1.11164e-242
9.81345e-244
8.64097e-245
7.58913e-246
6.64835e-247
5.80939e-248
5.06345e-249
4.40215e-250
3.81758e-251
3.30234e-252
2.84949e-253
2.45262e-254
2.10577e-255
1.80349e-256
1.54079e-257
1.31312e-258
1.11634e-259
9.46722e-261
8.0092e-262
6.75925e-263
5.69053e-264
4.77921e-265
4.00416e-266
3.34673e-267
2.79055e-268
2.32123e-269
1.92625e-270
1.59468e-271
1.31706e-272
1.08521e-273
8.92061e-275
7.31571e-276
5.98552e-277
4.88576e-278
3.97879e-279
3.23268e-280
2.6204e-281
2.11919e-282
1.70991e-283
1.37652e-284
1.10559e-285
8.85964e-287
7.08354e-288
5.65066e-289
4.49744e-290
3.57152e-291
2.82985e-292
2.23717e-293
1.76467e-294
1.38887e-295
1.09067e-296
8.54594e-298
6.6814e-299
5.21216e-300
4.05707e-301
3.15105e-302
2.44202e-303
1.88841e-304
1.45713e-305
1.12191e-306
8.61947e-308
6.60793e-309
5.05495e-310
3.85867e-311
2.9392e-312
2.23405e-313
1.69448e-314
1.2825e-315
9.68629e-317
7.30032e-318
5.49035e-319
4.11655e-320
3.05827e-321
2.07508e-322
0
0
0
0
0
0
0
0
0
0
0
0
0
0
0
0
0
0
0
0
0
0
0
0
0
0
0
0
0
0
0
0
0
0
0
0
0
)
;

boundaryField
{
    sides
    {
        type            zeroGradient;
    }
    empty
    {
        type            empty;
    }
}


// ************************************************************************* //
