/*--------------------------------*- C++ -*----------------------------------*\
  =========                 |
  \\      /  F ield         | OpenFOAM: The Open Source CFD Toolbox
   \\    /   O peration     | Website:  https://openfoam.org
    \\  /    A nd           | Version:  13
     \\/     M anipulation  |
\*---------------------------------------------------------------------------*/
FoamFile
{
    format      ascii;
    class       volScalarField;
    location    "2";
    object      T;
}
// * * * * * * * * * * * * * * * * * * * * * * * * * * * * * * * * * * * * * //

dimensions      [0 0 0 1 0 0 0];

internalField   nonuniform List<scalar> 
1000
(
5.78519e-103
1.15471e-102
2.87631e-102
7.43936e-102
1.93239e-101
5.0156e-101
1.29986e-100
3.36332e-100
8.68822e-100
2.24069e-99
5.76924e-99
1.483e-98
3.80585e-98
9.75091e-98
2.49415e-97
6.36916e-97
1.62377e-96
4.13282e-96
1.05014e-95
2.66397e-95
6.74665e-95
1.70578e-94
4.30562e-94
1.08498e-93
2.72951e-93
6.85518e-93
1.7188e-92
4.30233e-92
1.07511e-91
2.68207e-91
6.6797e-91
1.66078e-90
4.12223e-90
1.02145e-89
2.5268e-89
6.24001e-89
1.53838e-88
3.78619e-88
9.30257e-88
2.28173e-87
5.58706e-87
1.36572e-86
3.33269e-86
8.11868e-86
1.97438e-85
4.79326e-85
1.16167e-84
2.81054e-84
6.78806e-84
1.63664e-83
3.93921e-83
9.46484e-83
2.2702e-82
5.43579e-82
1.29929e-81
3.10023e-81
7.38458e-81
1.7559e-80
4.16787e-80
9.87576e-80
2.33596e-79
5.51568e-79
1.30008e-78
3.05899e-78
7.18491e-78
1.68461e-77
3.94286e-77
9.21202e-77
2.14848e-76
5.00192e-76
1.16244e-75
2.69672e-75
6.24494e-75
1.4436e-74
3.33113e-74
7.6729e-74
1.76422e-73
4.04918e-73
9.2769e-73
2.12158e-72
4.84324e-72
1.10365e-71
2.5104e-71
5.69997e-71
1.29187e-70
2.92265e-70
6.60008e-70
1.48776e-69
3.34758e-69
7.51861e-69
1.6856e-68
3.77206e-68
8.42579e-68
1.87866e-67
4.18112e-67
9.28841e-67
2.05965e-66
4.55876e-66
1.00717e-65
2.22104e-65
4.8889e-65
1.07415e-64
2.35566e-64
5.15655e-64
1.12668e-63
2.45717e-63
5.34888e-63
1.16221e-62
2.52054e-62
5.45626e-62
1.17892e-61
2.54251e-61
5.47302e-61
1.17592e-60
2.52181e-60
5.39798e-60
1.15327e-59
2.45932e-59
5.23455e-59
1.11205e-58
2.358e-58
4.99049e-58
1.05419e-57
2.22264e-57
4.6773e-57
9.82413e-57
2.05951e-56
4.3093e-56
8.99952e-56
1.87586e-55
3.90257e-55
8.10339e-55
1.67938e-54
3.47374e-54
7.17147e-54
1.47769e-53
3.03891e-53
6.23756e-53
1.27782e-52
2.61268e-52
5.33162e-52
1.0859e-51
2.20736e-51
4.47829e-51
9.06785e-51
1.83252e-50
3.69611e-50
7.44032e-50
1.49481e-49
2.9973e-49
5.99821e-49
1.198e-48
2.38803e-48
4.75079e-48
9.43266e-48
1.86915e-47
3.69654e-47
7.29603e-47
1.4372e-46
2.82542e-46
5.54353e-46
1.08549e-45
2.12129e-45
4.1372e-45
8.05278e-45
1.56429e-44
3.03261e-44
5.86742e-44
1.13294e-43
2.18319e-43
4.19858e-43
8.0582e-43
1.54347e-42
2.9504e-42
5.62842e-42
1.07155e-41
2.03591e-41
3.86031e-41
7.30472e-41
1.37944e-40
2.59966e-40
4.88928e-40
9.1767e-40
1.71886e-39
3.21297e-39
5.99353e-39
1.11575e-38
2.07282e-38
3.84293e-38
7.10999e-38
1.31275e-37
2.41879e-37
4.44751e-37
8.1609e-37
1.49438e-36
2.73075e-36
4.9797e-36
9.06196e-36
1.64565e-35
2.98229e-35
5.39331e-35
9.7332e-35
1.75287e-34
3.15016e-34
5.64948e-34
1.01105e-33
1.80562e-33
3.21786e-33
5.72262e-33
1.01557e-32
1.79848e-32
3.17824e-32
5.60468e-32
9.8627e-32
1.7319e-31
3.03478e-31
5.30653e-31
9.25917e-31
1.61216e-30
2.80106e-30
4.85635e-30
8.40178e-30
1.45046e-29
2.49867e-29
4.29522e-29
7.36766e-29
1.26108e-28
2.15389e-28
3.67089e-28
6.24287e-28
1.05941e-27
1.79392e-27
3.03115e-27
5.1106e-27
8.59802e-27
1.44339e-26
2.41784e-26
4.04139e-26
6.74046e-26
1.12177e-25
1.86283e-25
3.08672e-25
5.10358e-25
8.41983e-25
1.38606e-24
2.27674e-24
3.73157e-24
6.10267e-24
9.95851e-24
1.62149e-23
2.6344e-23
4.27065e-23
6.90794e-23
1.11493e-22
1.7955e-22
2.88513e-22
4.62579e-22
7.40024e-22
1.18125e-21
1.88139e-21
2.98985e-21
4.74085e-21
7.50064e-21
1.18406e-20
1.86501e-20
2.93104e-20
4.59614e-20
7.19109e-20
1.1226e-19
1.74858e-19
2.71752e-19
4.21393e-19
6.5197e-19
1.00645e-18
1.55018e-18
2.3823e-18
3.65286e-18
5.58844e-18
8.53042e-18
1.29918e-17
1.97419e-17
2.99314e-17
4.52774e-17
6.83368e-17
1.02907e-16
1.54614e-16
2.31776e-16
3.46658e-16
5.17306e-16
7.70206e-16
1.14414e-15
1.69574e-15
2.50757e-15
3.6996e-15
5.44585e-15
7.99806e-15
1.17196e-14
1.71334e-14
2.4991e-14
3.63687e-14
5.28053e-14
7.64947e-14
1.10557e-13
1.59422e-13
2.29355e-13
3.29209e-13
4.7145e-13
6.73597e-13
9.60204e-13
1.36561e-12
1.9377e-12
2.74313e-12
3.87437e-12
5.45951e-12
7.67542e-12
1.07658e-11
1.50656e-11
2.10338e-11
2.92985e-11
4.07161e-11
5.64521e-11
7.80883e-11
1.07766e-10
1.48379e-10
2.03823e-10
2.79334e-10
3.81931e-10
5.20997e-10
7.09046e-10
9.62727e-10
1.30413e-09
1.76248e-09
2.37639e-09
3.19667e-09
4.29007e-09
5.74404e-09
7.67286e-09
1.02255e-08
1.35955e-08
1.8034e-08
2.38657e-08
3.15095e-08
4.15044e-08
5.4542e-08
7.15076e-08
9.35314e-08
1.22052e-07
1.58898e-07
2.06384e-07
2.67434e-07
3.45733e-07
4.45912e-07
5.73773e-07
7.36571e-07
9.43349e-07
1.20535e-06
1.53652e-06
1.9541e-06
2.47935e-06
3.13844e-06
3.96345e-06
4.99363e-06
6.27688e-06
7.87147e-06
9.84809e-06
1.22923e-05
1.53073e-05
1.90174e-05
2.35715e-05
2.91481e-05
3.59601e-05
4.42606e-05
5.43502e-05
6.65845e-05
8.13829e-05
9.9239e-05
0.000120732
0.000146538
0.000177447
0.000214378
0.000258395
0.000310729
0.000372796
0.000446228
0.000532891
0.000634916
0.00075473
0.000895089
0.00105911
0.0012503
0.00147263
0.00173051
0.0020289
0.00237331
0.00276984
0.00322527
0.00374703
0.00434331
0.00502307
0.00579607
0.00667293
0.00766513
0.00878506
0.010046
0.0114623
0.0130489
0.0148222
0.0167989
0.0189971
0.0214355
0.0241336
0.0271116
0.0303903
0.0339912
0.0379362
0.0422472
0.0469465
0.0520564
0.0575989
0.0635956
0.0700676
0.0770351
0.0845174
0.0925325
0.101097
0.110225
0.119931
0.130224
0.141113
0.152604
0.1647
0.177401
0.190703
0.204601
0.219085
0.234142
0.249755
0.265905
0.282568
0.299718
0.317324
0.335354
0.353772
0.372538
0.391613
0.410952
0.43051
0.45024
0.470094
0.490023
0.509977
0.529905
0.549759
0.569489
0.589047
0.608386
0.62746
0.646226
0.664644
0.682673
0.700278
0.717427
0.734089
0.750237
0.765848
0.780902
0.795383
0.809278
0.822576
0.835271
0.84736
0.858842
0.869722
0.880003
0.889693
0.898804
0.907347
0.915336
0.922787
0.929718
0.936146
0.94209
0.947571
0.952607
0.95722
0.961429
0.965254
0.968715
0.971829
0.974616
0.977092
0.979272
0.981172
0.982805
0.984181
0.985312
0.986207
0.986872
0.987312
0.987531
0.987531
0.987312
0.986872
0.986207
0.985312
0.984181
0.982805
0.981172
0.979272
0.977092
0.974616
0.971829
0.968715
0.965254
0.961429
0.95722
0.952607
0.947571
0.94209
0.936146
0.929718
0.922787
0.915336
0.907347
0.898804
0.889693
0.880003
0.869722
0.858842
0.84736
0.835271
0.822576
0.809278
0.795383
0.780902
0.765848
0.750237
0.734089
0.717427
0.700278
0.682673
0.664644
0.646226
0.62746
0.608386
0.589047
0.569489
0.549759
0.529905
0.509977
0.490023
0.470094
0.45024
0.43051
0.410952
0.391613
0.372538
0.353772
0.335354
0.317324
0.299718
0.282568
0.265905
0.249755
0.234142
0.219085
0.204601
0.190703
0.177401
0.1647
0.152604
0.141113
0.130224
0.119931
0.110225
0.101097
0.0925325
0.0845174
0.0770351
0.0700676
0.0635956
0.0575989
0.0520564
0.0469465
0.0422472
0.0379362
0.0339912
0.0303903
0.0271116
0.0241336
0.0214355
0.0189971
0.0167989
0.0148222
0.0130489
0.0114623
0.010046
0.00878506
0.00766513
0.00667293
0.00579607
0.00502307
0.00434331
0.00374703
0.00322527
0.00276984
0.00237331
0.0020289
0.00173051
0.00147263
0.0012503
0.00105911
0.000895089
0.00075473
0.000634916
0.000532891
0.000446228
0.000372796
0.000310729
0.000258395
0.000214378
0.000177447
0.000146538
0.000120732
9.9239e-05
8.13829e-05
6.65845e-05
5.43502e-05
4.42606e-05
3.59601e-05
2.91481e-05
2.35715e-05
1.90174e-05
1.53073e-05
1.22923e-05
9.84809e-06
7.87147e-06
6.27688e-06
4.99363e-06
3.96345e-06
3.13844e-06
2.47935e-06
1.9541e-06
1.53652e-06
1.20535e-06
9.43349e-07
7.36571e-07
5.73773e-07
4.45912e-07
3.45733e-07
2.67434e-07
2.06384e-07
1.58898e-07
1.22052e-07
9.35314e-08
7.15076e-08
5.4542e-08
4.15044e-08
3.15095e-08
2.38657e-08
1.8034e-08
1.35955e-08
1.02255e-08
7.67286e-09
5.74404e-09
4.29007e-09
3.19667e-09
2.37639e-09
1.76248e-09
1.30413e-09
9.62727e-10
7.09046e-10
5.20997e-10
3.81931e-10
2.79334e-10
2.03823e-10
1.48379e-10
1.07766e-10
7.80883e-11
5.64521e-11
4.07161e-11
2.92985e-11
2.10338e-11
1.50656e-11
1.07658e-11
7.67542e-12
5.45951e-12
3.87437e-12
2.74313e-12
1.9377e-12
1.36561e-12
9.60204e-13
6.73597e-13
4.7145e-13
3.29209e-13
2.29355e-13
1.59422e-13
1.10557e-13
7.64947e-14
5.28053e-14
3.63687e-14
2.4991e-14
1.71334e-14
1.17196e-14
7.99806e-15
5.44585e-15
3.6996e-15
2.50757e-15
1.69574e-15
1.14414e-15
7.70206e-16
5.17306e-16
3.46658e-16
2.31776e-16
1.54614e-16
1.02907e-16
6.83368e-17
4.52774e-17
2.99314e-17
1.97419e-17
1.29918e-17
8.53042e-18
5.58844e-18
3.65286e-18
2.3823e-18
1.55018e-18
1.00645e-18
6.5197e-19
4.21393e-19
2.71752e-19
1.74858e-19
1.1226e-19
7.19109e-20
4.59614e-20
2.93104e-20
1.86501e-20
1.18406e-20
7.50064e-21
4.74085e-21
2.98985e-21
1.88139e-21
1.18125e-21
7.40024e-22
4.62579e-22
2.88513e-22
1.7955e-22
1.11493e-22
6.90794e-23
4.27065e-23
2.6344e-23
1.62149e-23
9.95851e-24
6.10267e-24
3.73157e-24
2.27674e-24
1.38606e-24
8.41983e-25
5.10358e-25
3.08672e-25
1.86283e-25
1.12177e-25
6.74046e-26
4.04139e-26
2.41784e-26
1.44339e-26
8.59802e-27
5.1106e-27
3.03115e-27
1.79392e-27
1.05941e-27
6.24287e-28
3.67089e-28
2.15389e-28
1.26108e-28
7.36766e-29
4.29522e-29
2.49867e-29
1.45046e-29
8.40178e-30
4.85635e-30
2.80106e-30
1.61216e-30
9.25917e-31
5.30653e-31
3.03478e-31
1.7319e-31
9.8627e-32
5.60468e-32
3.17824e-32
1.79848e-32
1.01557e-32
5.72262e-33
3.21786e-33
1.80562e-33
1.01105e-33
5.64948e-34
3.15016e-34
1.75287e-34
9.7332e-35
5.39331e-35
2.98229e-35
1.64565e-35
9.06196e-36
4.9797e-36
2.73075e-36
1.49438e-36
8.1609e-37
4.44751e-37
2.41879e-37
1.31275e-37
7.10999e-38
3.84293e-38
2.07282e-38
1.11575e-38
5.99353e-39
3.21297e-39
1.71886e-39
9.1767e-40
4.88928e-40
2.59966e-40
1.37944e-40
7.30472e-41
3.86031e-41
2.03591e-41
1.07155e-41
5.62842e-42
2.9504e-42
1.54347e-42
8.0582e-43
4.19858e-43
2.18319e-43
1.13294e-43
5.86742e-44
3.03261e-44
1.56429e-44
8.05278e-45
4.1372e-45
2.12129e-45
1.08549e-45
5.54353e-46
2.82542e-46
1.4372e-46
7.29603e-47
3.69654e-47
1.86915e-47
9.43266e-48
4.75079e-48
2.38803e-48
1.198e-48
5.99821e-49
2.9973e-49
1.49481e-49
7.44032e-50
3.69611e-50
1.83252e-50
9.06785e-51
4.47829e-51
2.20736e-51
1.0859e-51
5.33162e-52
2.61268e-52
1.27782e-52
6.23756e-53
3.03891e-53
1.47769e-53
7.17147e-54
3.47374e-54
1.67938e-54
8.10339e-55
3.90257e-55
1.87586e-55
8.99952e-56
4.3093e-56
2.05951e-56
9.82413e-57
4.6773e-57
2.22264e-57
1.05419e-57
4.99049e-58
2.358e-58
1.11205e-58
5.23455e-59
2.45932e-59
1.15327e-59
5.39798e-60
2.52181e-60
1.17592e-60
5.47302e-61
2.54251e-61
1.17892e-61
5.45626e-62
2.52054e-62
1.16221e-62
5.34888e-63
2.45717e-63
1.12668e-63
5.15655e-64
2.35566e-64
1.07415e-64
4.8889e-65
2.22104e-65
1.00717e-65
4.55876e-66
2.05965e-66
9.28841e-67
4.18112e-67
1.87866e-67
8.42579e-68
3.77206e-68
1.6856e-68
7.51861e-69
3.34758e-69
1.48776e-69
6.60008e-70
2.92265e-70
1.29187e-70
5.69997e-71
2.5104e-71
1.10365e-71
4.84324e-72
2.12158e-72
9.2769e-73
4.04918e-73
1.76422e-73
7.6729e-74
3.33113e-74
1.4436e-74
6.24494e-75
2.69672e-75
1.16244e-75
5.00192e-76
2.14848e-76
9.21202e-77
3.94286e-77
1.68461e-77
7.18491e-78
3.05899e-78
1.30008e-78
5.51568e-79
2.33596e-79
9.87576e-80
4.16787e-80
1.7559e-80
7.38458e-81
3.10023e-81
1.29929e-81
5.43579e-82
2.2702e-82
9.46484e-83
3.93921e-83
1.63664e-83
6.78806e-84
2.81054e-84
1.16167e-84
4.79326e-85
1.97438e-85
8.11868e-86
3.33269e-86
1.36572e-86
5.58706e-87
2.28173e-87
9.30257e-88
3.78619e-88
1.53838e-88
6.24001e-89
2.5268e-89
1.02145e-89
4.12223e-90
1.66078e-90
6.6797e-91
2.68207e-91
1.07511e-91
4.30233e-92
1.7188e-92
6.85518e-93
2.72951e-93
1.08498e-93
4.30562e-94
1.70578e-94
6.74665e-95
2.66397e-95
1.05014e-95
4.13282e-96
1.62377e-96
6.36916e-97
2.49415e-97
9.75091e-98
3.80585e-98
1.483e-98
5.76924e-99
2.24069e-99
8.68822e-100
3.36332e-100
1.29986e-100
5.0156e-101
1.93239e-101
7.43936e-102
2.87631e-102
1.15471e-102
5.78519e-103
)
;

boundaryField
{
    sides
    {
        type            zeroGradient;
    }
    empty
    {
        type            empty;
    }
}


// ************************************************************************* //
