/*--------------------------------*- C++ -*----------------------------------*\
  =========                 |
  \\      /  F ield         | OpenFOAM: The Open Source CFD Toolbox
   \\    /   O peration     | Website:  https://openfoam.org
    \\  /    A nd           | Version:  13
     \\/     M anipulation  |
\*---------------------------------------------------------------------------*/
FoamFile
{
    format      ascii;
    class       volScalarField;
    location    "66";
    object      p;
}
// * * * * * * * * * * * * * * * * * * * * * * * * * * * * * * * * * * * * * //

dimensions      [0 2 -2 0 0 0 0];

internalField   nonuniform List<scalar> 
918
(
0.557058
1.1841
0.000865592
0.556505
-0.00945756
1.15109
-0.509922
0.66372
0.537257
-0.109791
-0.0486844
0.539284
1.01189
0.778155
-1.12373
-0.0111091
0.651701
-0.381444
0.53637
-0.0580575
0.69179
0.543797
0.546822
0.5374
0.598245
0.751815
0.893181
0.0231348
0.0115283
0.00501272
-0.0144404
-0.0361364
-0.0309088
1.03473
1.08583
1.10853
0.505016
0.33324
-0.375401
-0.448143
-0.435944
-0.544688
0.660977
0.659635
-0.210635
0.667091
0.669415
0.524283
0.536627
0.537538
0.538558
0.537542
0.538923
0.403997
-0.109766
-0.141037
-0.0912459
-0.0843879
0.0526953
-0.0505248
-0.052609
-0.0469756
-0.0470419
0.454148
0.533524
0.529924
0.543639
0.553803
1.12365
1.09556
1.12171
1.03543
1.05189
0.989864
0.962511
0.798456
0.820494
0.763948
0.74974
-1.55546
-2.5067
-0.533961
-0.283278
-0.0153758
-0.00886845
-0.00293463
0.648602
0.649875
0.651174
0.653589
1.0801
-0.378903
-0.479255
0.536512
0.535323
0.543641
0.544342
0.540362
0.539452
-0.0496531
-0.0467223
-0.0486871
-0.0545944
-0.0527832
0.680219
0.680851
0.537929
0.534932
0.561306
0.58107
0.571343
0.277841
0.608949
0.624983
0.584469
0.744384
0.738603
0.747294
0.866803
0.831022
0.930042
0.95318
0.017295
-0.00112829
-0.0156317
-0.0193862
-0.0179934
0.500845
0.493382
0.520834
0.508453
0.510962
0.249973
0.116588
0.418172
0.443045
-0.294328
-0.360531
-0.428958
-0.459512
-0.567888
0.611942
0.657827
0.656165
-0.22105
-0.149169
-0.282242
-0.0761098
-0.138978
0.514542
0.52156
0.516556
0.532116
0.526581
0.528544
0.540898
0.537968
0.539528
0.466213
0.589875
0.330139
0.294722
-0.24292
-0.155854
-0.242873
-0.0734496
-0.0699048
0.0667708
0.0923563
0.0395376
0.0277577
-0.0642344
-0.0564587
-0.0601021
-0.0451738
-0.0451093
0.4469
0.435694
0.466843
0.474408
0.519947
0.521505
0.526018
0.523792
0.913252
0.93566
0.943231
0.916917
-3.49627
-6.27807
0.0411853
0.177556
-0.00647467
-0.0108934
0.00456319
-0.0104049
-0.0032409
-0.0044153
-0.0079509
-0.00893078
-0.00382222
-0.00240135
0.642939
0.644149
1.00225
1.00902
0.977944
0.930813
0.524734
0.526804
0.532299
0.528183
-0.0446619
-0.0451832
-0.0440763
0.67275
0.678088
0.675678
0.239369
0.14969
0.328883
0.358004
0.636784
0.625379
0.635061
0.645435
0.682325
0.960596
0.978825
0.977028
0.985357
1.02932
1.04567
1.01113
0.48025
0.490254
0.485189
0.523928
0.521708
0.522604
0.518652
0.519786
0.517853
-0.0338634
-0.413891
0.49036
0.507302
0.492626
0.495096
0.692126
0.770789
0.653344
0.655187
0.654599
-0.00705748
-0.0655439
0.249935
0.215822
0.386442
0.422858
0.401825
0.884609
0.844708
0.894918
0.868135
0.829343
0.855463
-0.365484
-1.86501
-0.984148
0.527346
0.341643
0.429118
0.00961022
-0.00721225
-0.00268607
1.00169
1.07404
0.64571
0.82067
0.823338
0.716408
0.744987
0.805349
0.732226
0.766326
0.799123
0.776634
0.567904
0.503431
0.519371
0.839972
0.895766
0.119643
0.0582316
0.0143187
0.111243
0.16857
0.14266
1.0341
0.949596
1.01985
0.534693
0.535414
-0.00450731
-0.0186361
0.53966
0.539716
-0.0165593
-0.00387243
0.411501
-0.831594
0.0993563
0.528243
0.518139
0.535274
-0.0940784
0.355434
-0.0487391
0.0481451
-0.00793281
0.530335
0.46529
0.424364
-0.00029779
-0.0197439
-0.0498731
-0.213169
0.532363
0.530667
0.534742
0.535684
0.536364
-0.0186365
-0.0137029
-0.0101165
-0.0466967
-0.040553
-0.0520549
0.499177
0.518474
-0.170118
0.534889
0.537024
0.536842
0.530106
0.535735
0.533988
-0.0111142
-0.0170643
-0.0184052
0.219786
0.351561
0.650518
0.737544
0.622371
0.398686
0.16371
0.554333
0.617103
0.523284
0.676457
0.653798
0.664112
0.16489
0.0146801
0.173596
0.115221
0.526104
0.524822
0.516393
0.513353
0.530142
0.528256
0.532815
0.529837
0.532787
0.534168
-0.0500986
-0.0782149
-0.086754
-0.154116
0.310245
0.571529
0.254074
0.283923
0.141703
-0.0433763
-0.0440797
-0.0473803
-0.0558479
0.000518833
-0.0233491
0.0430659
0.0433
0.0152251
-0.0103632
-0.00774994
-0.0185658
-0.0134064
0.523951
0.523825
0.527345
0.53626
0.474944
0.478732
0.443564
0.46432
0.449579
0.388297
0.423592
0.398818
-0.00818888
0.00160127
-0.00533772
-0.0174191
-0.0134105
-0.0332109
-0.0297548
-0.0254852
-0.0214232
-0.0280909
-0.0441099
-0.0462528
-0.171124
-0.287005
0.988585
0.90989
0.137129
0.521509
0.527967
0.524727
0.529654
0.532781
0.533581
0.53129
0.527838
0.518735
0.520179
0.517144
0.51815
-0.101685
-0.242911
-0.071157
-0.145395
0.144949
0.627879
0.363462
0.299003
0.294264
0.522854
0.916599
0.700107
0.672028
0.675726
-0.342974
0.0460825
-0.279174
0.335418
0.162935
0.651681
0.699306
0.719328
0.668692
0.622371
-0.101485
0.55584
-0.0726506
-0.0205869
0.180762
0.0571532
0.66429
0.641181
0.647593
0.656995
0.671986
0.645371
0.630491
0.627932
0.651643
0.654298
0.484528
0.250526
0.201372
0.162894
0.642296
0.518637
0.570157
0.490735
0.52136
0.523921
0.522568
0.504016
0.51161
0.507125
0.513728
0.517306
0.525861
0.526333
0.521601
0.523732
-0.0577286
-0.063784
-0.0279671
-0.135585
-0.128642
-0.190676
-0.0610223
0.0766736
0.0379227
0.237625
0.341816
0.0531891
-0.0571611
-0.0300033
0.0125462
0.180693
0.208658
0.0743193
0.161954
0.153121
0.134623
0.237154
0.240606
-0.0278048
-0.0306925
-0.0346208
-0.0362907
0.0189081
0.0899927
0.0995461
-0.00600682
-0.0120213
-0.0420237
-0.0426201
-0.0208912
-0.0275181
-0.0225906
0.00764671
-0.052708
-0.0200997
-0.0061462
-0.0031334
-0.00486814
-0.0103424
0.518201
0.520239
0.520439
0.527027
0.540637
0.555557
0.520383
0.497175
0.48795
0.490973
0.463824
0.474148
0.469877
0.483548
0.504539
0.513827
0.511821
0.514694
0.49669
0.498519
0.48505
0.488719
0.463732
0.444448
0.432533
-0.0425935
-0.00449047
-0.0120066
-0.0384079
-0.00942575
-0.0211775
-0.0100592
0.00839242
-0.00781838
-0.00897858
-0.0188186
-0.0257869
-0.025342
-0.0729663
0.0137249
-0.184071
-0.219872
-0.292734
0.890729
1.01485
0.810303
0.583389
0.603538
0.846619
0.931284
0.543431
0.735801
0.758945
0.586714
0.854303
0.526358
0.525955
0.523555
0.523035
0.524256
-0.0071225
0.0989365
0.0976934
0.160644
0.276667
0.388359
0.318862
0.194077
0.324278
0.326754
0.620662
0.632896
0.588318
0.612506
0.612717
0.425135
0.50071
0.552463
0.512961
0.5651
0.586539
0.54055
0.573409
0.523344
0.478616
0.474642
0.424582
0.444233
0.419965
0.403057
0.515191
0.493057
0.503464
0.494138
0.514443
0.542581
0.538998
0.561434
0.576249
0.497833
0.452755
0.462133
0.492361
0.453637
0.469128
0.485312
0.232166
0.134007
0.216959
-0.0684094
0.00293532
-0.00973078
-0.0582828
-0.00742443
0.276859
-0.414431
-0.390995
-1.01838
0.503213
0.953909
0.598129
0.572627
0.671766
0.655611
0.661537
0.678301
0.678765
0.630661
0.640446
0.645258
0.600557
0.621558
0.640216
0.636461
0.524684
0.383402
0.38223
0.330543
0.200717
0.24037
0.436973
0.360944
0.285948
0.286124
0.45676
0.343513
0.413293
0.447067
0.378486
0.333073
0.535542
0.601554
0.59521
0.568385
0.480148
0.492619
0.516883
0.550617
0.574993
0.606243
0.51312
0.519061
0.520291
0.517761
0.515044
0.51813
0.518406
0.52096
0.521568
0.524575
0.523634
-0.0505639
-0.0367938
-0.0505351
-0.0610617
-0.0198054
-0.0217401
0.0238478
0.00841134
-0.014556
-0.0090326
-0.0323872
-0.0371145
-0.0334656
-0.0250031
0.10102
0.113779
0.09795
0.0583485
0.251563
0.380846
0.455286
0.330653
0.224577
0.247675
0.266941
-0.0112576
0.0133759
0.000550614
0.0401643
0.0325536
-0.0369777
-0.0404081
-0.0370983
-0.0299746
-0.0208945
-0.036768
-0.0417469
-0.0326394
-0.0373559
-0.0400155
-0.0435176
0.499439
0.492877
0.494541
0.488356
0.487085
0.501538
0.505843
0.507798
0.513356
0.515807
0.505592
0.511287
0.515351
-0.011164
-0.0341684
-0.037763
-0.0280739
-0.0305007
-0.0281666
-0.0295768
0.123482
0.0543585
0.0583656
0.0107657
-0.12132
-0.0632896
0.4914
0.490131
0.479577
0.720911
0.570175
0.490782
0.587786
0.693531
0.276016
0.472863
0.307853
0.888455
0.784885
0.931251
0.542378
0.245301
0.408617
0.451825
0.265012
0.340485
0.325014
0.213985
0.244785
0.282591
0.381623
0.265381
0.242057
-0.00126841
0.189196
0.301453
0.283266
0.407962
0.468659
0.266136
0.185848
0.140966
0.605633
0.625109
0.638257
0.611096
0.632246
0.580326
0.572365
0.58797
0.595992
0.590395
-0.746514
-0.452915
-1.39959
-0.721523
-0.266562
0.533674
0.505043
0.76923
0.64623
0.683384
0.668411
0.627146
0.596821
0.620443
0.643676
0.341694
0.45245
0.427668
0.43322
0.335672
0.26611
0.563875
0.560662
0.593411
0.616684
0.589083
0.618568
0.510952
0.510681
0.510126
0.506359
0.504626
0.507001
0.0575203
0.0253795
0.064294
0.0460047
0.0226134
0.00914902
-0.00903214
-0.0189299
-0.0261875
-0.0259401
-0.011843
-0.00782731
0.171391
0.109077
0.0296102
0.0586512
-0.0021157
-0.0705719
-0.0895056
0.0156217
0.111705
0.101901
0.405381
0.655148
0.475153
0.642639
0.485105
0.540936
0.468105
0.459521
0.4845
0.379439
0.459881
0.248291
-0.259573
-0.16863
0.793693
0.804903
0.580897
0.40512
0.173381
0.352101
0.541986
0.472413
0.507995
0.576966
0.564397
0.0280621
0.0862108
0.371644
0.598435
0.240049
0.231135
0.224641
0.408386
0.326956
)
;

boundaryField
{
    wall-4
    {
        type            zeroGradient;
    }
    velocity-inlet-5
    {
        type            zeroGradient;
    }
    velocity-inlet-6
    {
        type            zeroGradient;
    }
    pressure-outlet-7
    {
        type            fixedValue;
        value           uniform 0;
    }
    wall-8
    {
        type            zeroGradient;
    }
    frontAndBackPlanes
    {
        type            empty;
    }
}


// ************************************************************************* //
