/*--------------------------------*- C++ -*----------------------------------*\
  =========                 |
  \\      /  F ield         | OpenFOAM: The Open Source CFD Toolbox
   \\    /   O peration     | Website:  https://openfoam.org
    \\  /    A nd           | Version:  13
     \\/     M anipulation  |
\*---------------------------------------------------------------------------*/
FoamFile
{
    format      ascii;
    class       surfaceScalarField;
    location    "66";
    object      phi;
}
// * * * * * * * * * * * * * * * * * * * * * * * * * * * * * * * * * * * * * //

dimensions      [0 3 -1 0 0 0 0];

internalField   nonuniform List<scalar> 
1300
(
3.75095
5.62643
-3.32841
3.75095
-7.72672
5.62643
-4.3868
4.3868
-0.405275
0.405275
1.87639
1.87456
-2.68198
2.68198
-2.1361
2.1361
-2.52408
2.52408
-5.24643
5.24643
-5.06834
5.06834
4.65565
-4.65565
-6.30687
6.30687
-0.945074
0.945074
-3.68128
3.68128
3.16962
-3.16962
-2.09159
2.09159
0.0146643
-0.0146643
-0.553475
4.30443
3.19748
3.19748
-2.01296
2.01296
-4.86818
4.86818
6.21804
-6.21804
5.31219
-5.31219
-1.98378
-2.44654
1.78796
-11.5142
-5.93876
-5.93876
-8.44039
8.44039
-2.81396
2.81247
2.94614
-2.94614
-1.77386
1.77386
-4.34649
-0.0403093
-4.34649
4.35836
0.0284427
4.35836
-0.482295
0.0770199
-0.482295
3.98692
-3.98692
0.321436
0.0838389
0.321436
3.06533
-3.06533
-1.87711
3.7535
1.87384
-1.8719
6.17632
-1.87906
3.75362
-6.01626
6.01626
-2.92587
0.243893
-2.92587
2.47549
0.206491
2.47549
-6.84972
6.84972
-2.16341
0.027307
-2.16341
2.10378
0.0323285
2.10378
2.8807
-2.8807
-2.63501
0.110936
-2.63501
2.39459
0.129494
2.39459
0.353528
5.2729
-5.97996
8.79243
-5.2729
0.0264702
5.20837
0.0380614
5.20837
-5.1058
0.037456
-5.1058
5.01277
0.0555686
5.01277
4.74133
-0.0856844
4.74133
-4.77353
0.117885
-4.77353
-3.38557
-4.05395
-6.45904
0.152173
-6.45904
-1.03615
0.0910739
-1.03615
0.829742
0.115331
0.829742
-3.68467
3.68467
-4.10251
0.421229
-4.10251
3.12399
0.0456305
3.12399
1.86849
1.88246
5.61944
-5.61944
2.44982
-2.06365
-0.0279347
-2.06365
-2.15119
-3.161
2.15119
-0.059599
-0.216525
0.231189
-0.216525
3.15943
0.0380489
3.15943
2.23594
0.158645
-2.23594
0.222976
3.27375
-3.27375
1.34104
0.671928
1.34104
-5.56502
5.56502
4.9556
0.0571752
-4.9556
0.0874239
6.15619
0.0618561
6.15619
-6.1995
-0.0185437
-6.1995
2.5312
-4.97774
-2.61518
6.12336
0.183511
-6.12336
0.184598
2.918
0.0281462
2.918
-2.91975
2.91975
-2.98466
0.0385137
-2.98466
-2.17282
0.398958
-2.17282
1.47511
0.298754
1.47511
-4.24591
-0.100583
-4.24591
-4.24919
0.146678
4.24919
0.109171
1.12833
-1.12833
-0.603519
0.121225
-0.603519
-4.11038
-0.135534
4.11038
-0.123455
-3.87722
-0.109705
-3.87722
-3.02449
0.0398395
3.02449
0.0408358
3.11287
0.0465577
-3.11287
0.047541
-1.87082
3.75328
-1.88014
3.75397
-5.63586
-0.380403
-5.63586
6.32714
-0.310883
6.32714
3.32122
0.36006
-3.32122
0.395351
2.32212
0.153366
2.32212
-6.81238
-0.0373329
-6.81238
6.83423
0.0154873
6.83423
2.2208
0.101325
-2.2208
0.0573854
2.07881
0.024965
2.07881
2.90043
-0.0197302
2.90043
-2.87504
-0.00566096
-2.87504
2.79553
-2.79553
2.72207
0.0734554
-2.72207
0.0870588
-11.1331
11.1145
-0.0352161
-11.0979
5.17315
5.17315
4.16828
0.57305
4.16828
-4.99097
0.21744
-4.99097
2.67812
-5.2933
3.06289
-6.44846
4.66826
-16.1824
4.3065
-8.36045
6.70003
-6.70003
6.5887
0.111326
-6.5887
0.129657
-1.15425
0.118099
-1.15425
-3.0821
-0.602571
-3.0821
4.3275
-0.642831
4.3275
-3.02815
3.02815
-3.07746
0.0493073
3.07746
0.0465291
2.06235
0.0164604
-2.06235
-0.00130254
0.264648
0.0567881
-0.264648
0.0481228
3.48533
-0.21158
3.48533
-3.07637
-0.197384
-3.07637
-1.25367
0.0994186
1.25367
0.0873711
-5.81485
0.249835
-5.81485
-11.1908
0.0929444
-11.1527
-6.10656
-6.10656
2.33383
11.1263
-2.89319
0.0181455
2.89319
0.0248076
2.97514
0.0530156
-2.97514
0.0553893
-2.86055
0.0650206
2.86055
0.0591982
-2.54778
0.374965
-2.54778
-1.07266
1.07266
-1.23879
0.166131
1.23879
0.236315
1.40001
-0.271684
1.40001
0.720088
0.109655
-0.720088
0.116568
-3.77905
-0.0981657
-3.77905
6.56213
-0.234991
6.56213
-2.96206
-0.114307
2.96206
-0.0616252
-0.033347
11.1479
-5.13981
0.0340085
5.13981
-11.2097
11.2437
-3.21847
0.670681
3.21847
0.949819
5.28441
0.280608
-5.28441
0.293433
6.78414
0.050091
-6.78414
0.0841118
-2.58945
-0.492651
-2.58945
-5.05348
-0.58238
5.05348
-0.725972
-11.4752
-0.202895
11.6781
-11.4196
6.01775
0.138442
-6.01775
11.3822
-1.02982
-0.0985064
1.02982
0.0428377
1.72752
-0.327508
1.72752
3.67939
-0.194064
-3.67939
-0.0996578
-6.716
-0.0963861
6.716
-0.153863
-2.14455
-0.444902
2.14455
-0.417026
-4.26711
4.30516
1.90921
-2.38676
-2.59098
-5.54776
1.85186
1.90142
4.30168
-10.1563
-6.02618
-9.97167
7.26206
-6.96863
-9.24495
9.15927
7.87235
-7.98205
-5.78487
5.83139
6.48285
-6.44201
1.87881
1.8747
8.01587
-7.77198
-15.603
15.2226
7.51058
-7.48327
15.7561
-15.7935
-17.8404
17.8905
-5.69939
5.81033
-6.73926
6.7336
-6.97382
6.9122
-2.83675
-3.6117
13.1149
-12.9628
8.55549
-8.58343
-8.61308
9.03431
3.38259
0.922574
3.42914
-1.88216
3.76097
-1.87146
3.78068
2.71015
-5.54691
2.58315
-5.17413
4.33916
4.21634
-4.27956
-1.26821
-5.9245
5.95265
-5.81411
5.87331
9.12285
-9.16316
-1.88516
3.75986
-1.86881
3.77024
-3.42502
-2.35985
3.37939
0.922294
8.07186
5.04308
-8.25537
-1.7163
-8.03267
7.83861
-8.22716
8.02977
-0.434862
5.81937
-5.38451
4.43331
-1.56221
7.38158
5.69985
5.91729
5.86623
-5.58562
1.1024
-6.48691
-6.39948
-2.3076
2.42882
2.20264
-2.1188
6.12657
1.74578
6.00311
-5.7522
-2.22985
-5.85037
3.82066
2.01074
3.86997
4.07835
2.4045
4.11819
3.03048
-3.03593
0.00545119
-3.05661
6.08709
0.723925
-5.41646
-4.49416
4.97458
3.04129
5.18108
-5.55621
-2.21577
-5.16086
-9.53639
-6.06661
-10.1188
10.0809
5.1417
9.77001
-11.9526
11.7988
4.78927
2.72131
4.8216
-4.92144
-2.56183
-4.86406
11.6433
-2.63533
-9.00794
-10.3128
-7.52765
10.2973
5.45884
10.9572
6.93328
11.0414
4.425
7.21827
-9.88383
2.35619
-3.86626
-1.83313
-3.7792
3.66899
2.14134
3.79848
-4.21723
-2.52203
-4.19909
-4.29531
-2.67851
4.31505
2.41856
-4.4162
-3.81096
4.5305
2.38169
4.03789
-10.0641
4.32256
-7.93426
-9.19476
-3.768
-9.0651
3.50831
2.60866
-6.11697
-2.0386
8.48094
-4.2646
7.21273
-5.17826
-3.40517
-5.17956
-6.87818
-1.7349
-6.73151
-8.8769
8.38424
-9.173
8.53017
12.5187
-5.64552
-6.87322
-3.96843
-2.47358
3.92089
-0.49174
-3.71053
3.71598
0.0504387
3.83111
4.75369
4.26195
-3.88442
-1.9297
-3.82903
3.82471
2.04861
3.88973
6.83237
2.29047
6.86082
-6.59799
-2.56517
-6.69857
9.0411
-8.64214
2.84071
-2.74129
5.39312
2.63666
-5.18154
-2.85113
6.21228
-3.21768
-2.9946
-12.1982
10.5309
1.66729
-4.81659
-0.383273
-0.397937
-5.48948
-3.75547
5.37159
0.545696
11.0766
7.3211
-5.51213
5.76196
6.16597
6.22314
-0.17634
5.80853
-5.13785
5.26096
-2.5838
-2.67717
5.45992
-5.59545
-1.23865
-5.5072
4.26854
0.40766
1.51451
-1.28332
-1.8081
-0.499501
-1.69153
1.30405
0.898585
1.36084
0.940525
1.4883
-2.96049
0.553482
2.40701
-2.01996
-1.56532
-3.80217
-1.1426
4.94477
5.73018
2.10843
-5.63052
-0.219845
2.54805
-2.43272
-0.764107
-3.03806
2.24651
-3.01061
-3.6739
-2.06193
5.73583
-3.3698
-0.459222
3.31679
0.553177
-3.8271
-2.0974
3.78859
0.329599
-3.12784
6.19071
-3.06287
-5.05754
2.52767
3.55942
4.53841
-4.78951
2.44754
2.34198
-1.23009
4.24639
0.934691
4.39975
-6.9361
4.72033
5.7999
3.23442
-6.15996
0.999099
-5.937
8.53888
-7.36717
-1.17171
4.14667
4.39221
7.06549
5.45325
-5.67398
12.7395
-1.19981
-6.16735
7.13682
-3.9024
4.84495
-8.74736
-10.2982
4.13085
-9.1362
10.911
-1.77475
-3.62229
-8.33035
12.7585
-1.20468
-11.5538
8.56534
-4.26427
-4.35327
8.61754
-6.8996
6.9151
-1.99341
-4.92169
-10.0995
-5.69393
10.1959
1.60284
-9.90717
12.2634
-2.6889
4.1095
0.712099
4.13446
3.29774
-5.48581
2.18807
3.60186
-5.59527
2.08131
-7.56712
-6.72936
12.0629
-5.33353
-10.4974
-9.51484
-0.982527
2.53591
9.72745
-9.46919
7.42725
2.04194
3.30068
0.589045
-3.37414
-0.405062
0.239711
4.52368
-4.76339
4.03819
4.19684
3.27813
1.24555
3.84521
2.10744
-3.87002
-0.329069
-4.16328
1.48477
-1.74472
-3.69361
5.17838
-4.06719
0.373579
-2.74821
-3.49879
6.247
-4.58134
3.0357
3.15502
5.0843
-4.91343
1.41464
-2.39267
-2.52076
2.65255
-4.39727
1.99154
3.18685
4.37323
0.562271
5.8733
6.1896
-8.48195
0.547693
11.2327
-9.51638
2.46438
8.57697
-9.89164
0.376799
-8.6883
0.994672
-5.25927
-5.1223
5.18773
-6.92263
-3.55963
6.21024
0.650572
-6.31942
-0.41209
-6.03322
-2.84368
-6.47812
-3.04304
-6.12996
-8.71702
-1.65171
-7.06531
6.73253
-6.67904
-3.43973
7.40501
1.12516
-7.40953
7.31103
-7.48744
7.15993
0.0953665
3.62061
4.35732
1.88373
-2.39052
4.27425
-5.11898
7.40945
-8.70607
3.58709
4.18804
-6.75321
-4.51803
5.02277
4.01832
5.32153
8.88612
-10.3564
1.47032
-10.6576
11.9894
-1.3318
-16.4185
5.7609
-7.53241
2.44527
0.395447
2.56336
0.545521
2.49826
-3.04378
-2.19577
-2.1084
-2.43397
-3.46601
5.89998
1.10049
-3.52478
2.4243
-3.56964
4.67013
-0.205291
-3.31949
5.27519
-2.77693
5.67064
-3.77493
1.89571
3.43535
5.75346
-2.31811
4.39481
-1.75816
1.92233
-4.24045
-1.54368
-2.96344
5.10478
-3.28356
3.65714
-0.341392
3.99853
-4.05249
0.834808
-0.774365
3.42247
3.64545
4.31393
-3.06838
2.92111
-4.67927
-1.31933
-4.117
-0.930153
-0.262412
-3.707
3.96941
5.98441
-6.24683
-5.23533
9.52884
-4.29351
7.69397
-5.38224
-2.31173
-4.25353
-4.38861
3.87856
1.92997
9.62394
0.209459
-5.59169
-4.92839
-3.97857
3.1134
2.14756
-1.7698
3.43709
2.16774
-0.653228
0.436093
0.924746
1.78563
-1.34954
0.31045
1.47518
-0.972869
1.74659
0.801457
-1.85625
0.164718
-1.30845
3.55495
1.09856
-1.99715
0.647609
0.980008
-3.5638
5.03693
-2.67225
-2.36468
6.01693
1.1389
-3.81115
4.3683
-3.96064
2.38149
-3.52409
-1.42966
-5.3903
-3.64452
-2.52634
4.95064
-3.37365
5.48207
1.27673
-5.26223
6.53896
-3.72439
1.66246
-3.06317
3.86463
-0.945738
-2.11743
2.90183
2.834
-3.06356
0.0254934
-0.161722
2.40755
-2.56927
-0.603063
-2.62303
-4.57338
4.90298
-2.10537
4.5529
2.16888
-1.9168
6.4697
1.80902
-3.72582
-3.24852
-3.70774
-1.38384
3.15457
-0.597017
-4.26704
-5.51871
4.16571
0.234036
-7.05612
7.86394
-0.807823
-4.01483
-0.705505
4.85217
-6.07321
0.477944
-3.9919
3.87204
4.80673
5.04077
-11.3365
-0.217275
-6.19484
1.12258
-7.31742
5.5148
-3.53947
7.67032
-10.3252
6.88543
-9.2
6.4986
-0.818821
6.24934
-4.06127
2.7586
-8.45253
-6.84968
5.5048
-2.78349
6.2169
-3.14514
9.36204
-5.83405
5.29092
4.07112
-1.01918
-4.16038
-5.28146
4.26228
0.00945965
4.14392
4.98022
-2.87278
4.65115
2.26815
-4.66082
-2.12912
-6.49465
1.83382
-3.33963
-1.92074
3.75457
3.16356
3.7526
1.2338
-3.34754
7.18805
-8.17058
-1.85452
-3.26777
5.2642
-1.00192
3.40024
-6.66801
-1.85903
4.79754
-0.784819
-4.01272
0.84798
-4.40761
1.67476
-6.08237
5.24786
-5.65995
2.2218
-9.7542
-5.18774
-5.1449
-2.25862
-5.22882
-7.57142
5.3128
-1.81052
5.5005
-8.50794
7.72312
-3.4815
8.7943
-5.42779
-1.05033
5.84482
1.31512
10.1094
0.2139
-4.73193
-1.91374
3.85843
-1.94469
1.19966
-3.4931
0.365325
2.48834
3.52859
-6.75688
0.0036778
-4.72825
-3.91714
7.93546
5.6117
11.5961
1.23967
9.11712
-1.18166
10.3568
4.13987
4.37618
-2.99181
4.46213
0.977603
4.5647
-0.921645
2.81735
1.64172
1.73279
0.699923
2.30327
1.34218
3.13808
0.0942945
-2.01411
4.6221
-8.60068
-0.969593
-8.02763
1.13164
5.70937
-4.57773
2.96339
-0.815828
1.0187
-0.0861576
-1.27748
1.36363
-2.76332
-1.9307
-0.455525
-1.6887
2.33631
1.86625
-1.88079
-0.882536
0.359089
-4.00361
3.165
-3.1395
-0.305502
6.23346
-2.82104
0.25177
-1.15859
-2.37126
-2.87076
2.70604
6.17597
0.293728
3.1131
5.1967
3.09931
0.226526
3.89168
-5.66643
-3.67544
-5.8837
-0.368908
4.48326
1.75416
7.97329
5.82528
4.82336
-1.84465
-10.0152
6.51892
-2.05679
5.18712
-1.17439
-4.90798
5.04567
2.36378
-5.69624
0.0362867
-4.87169
-6.92848
-0.51384
8.23696
-9.59558
8.54525
5.70157
1.36374
-4.40562
-0.739275
4.23949
0.136691
10.4935
-1.12843
-6.72826
7.85669
-4.58095
3.61135
0.755851
2.68124
2.11948
1.30366
-5.42461
-10.0023
-2.04552
-1.51829
-4.4102
0.534571
-2.40082
6.2244
-2.61305
3.91266
5.24365
6.26235
-2.13345
-4.11338
6.42696
-2.5143
3.74805
)
;

boundaryField
{
    wall-4
    {
        type            calculated;
        value           uniform 0;
    }
    velocity-inlet-5
    {
        type            calculated;
        value           uniform -3.75095;
    }
    velocity-inlet-6
    {
        type            calculated;
        value           uniform -5.62643;
    }
    pressure-outlet-7
    {
        type            calculated;
        value           nonuniform List<scalar> 8(3.32841 7.72672 4.43032 9.72623 7.43951 5.14639 5.74101 8.97476);
    }
    wall-8
    {
        type            calculated;
        value           uniform 0;
    }
    frontAndBackPlanes
    {
        type            empty;
    }
}


// ************************************************************************* //
