/*--------------------------------*- C++ -*----------------------------------*\
  =========                 |
  \\      /  F ield         | OpenFOAM: The Open Source CFD Toolbox
   \\    /   O peration     | Website:  https://openfoam.org
    \\  /    A nd           | Version:  13
     \\/     M anipulation  |
\*---------------------------------------------------------------------------*/
FoamFile
{
    format      ascii;
    class       volVectorField;
    location    "66";
    object      U;
}
// * * * * * * * * * * * * * * * * * * * * * * * * * * * * * * * * * * * * * //

dimensions      [0 1 -1 0 0 0 0];

internalField   nonuniform List<vector> 
918
(
(0.98516 -0.00050714 0)
(0.00501377 2.96625 0)
(0.00636695 0.887416 0)
(0.979704 0.00214575 0)
(-0.0146297 2.05957 3.30054e-20)
(-0.0070459 2.94879 -2.46394e-18)
(0.819427 1.16281 4.48642e-19)
(0.119578 0.0716095 -1.47773e-20)
(0.999909 -0.000276898 0)
(0.0656654 0.730977 0)
(0.0118828 0.512597 0)
(0.733226 -0.0065209 0)
(0.0110991 2.93036 0)
(0.00291136 2.79469 0)
(-0.01776 3.14957 7.80027e-19)
(-0.0187582 1.91702 9.39425e-21)
(0.281595 0.0490981 1.01806e-18)
(0.188858 1.1421 3.16594e-19)
(0.962726 0.00501696 0)
(0.00750523 0.481702 0)
(-0.0184558 0.0924026 -6.96339e-19)
(1.00197 -0.00497533 0)
(1.00023 -0.00978476 0)
(0.975738 -0.00643886 0)
(0.59844 0.0262197 0)
(0.0147113 2.64132 0)
(-0.0148189 2.90996 9.06416e-19)
(0.0096993 0.935879 0)
(-0.0163844 1.18081 0)
(0.0105368 0.918348 0)
(-0.0173144 2.59342 0)
(-0.00339722 2.11079 -2.63586e-20)
(-0.0102742 1.89496 0)
(-0.0206091 2.9876 -8.85492e-23)
(-0.0166869 3.0053 1.91495e-18)
(0.00210237 3.00018 0)
(0.87137 -0.00965355 0)
(0.402767 0.933356 1.80214e-19)
(0.80433 1.17717 -5.1197e-19)
(0.956083 1.02224 5.56418e-19)
(0.673102 1.26898 -1.03972e-19)
(0.674025 1.24342 5.98596e-19)
(0.158293 0.125993 1.44165e-20)
(0.14331 0.0542435 0)
(1.15914 0.56253 0)
(0.133261 0.106476 6.56128e-20)
(0.0950528 0.0621131 -6.80826e-20)
(0.919905 -0.00745741 0)
(1.00027 0.000161281 0)
(0.999909 0.000338572 0)
(1.00363 -0.00775973 0)
(1.00096 -0.000918724 0)
(1.00017 3.68622e-05 0)
(0.0732355 1.82635 -7.72238e-19)
(0.0316879 0.945705 0)
(0.0997313 0.811029 0)
(0.0117255 0.895841 0)
(0.0382989 0.651611 0)
(0.00682017 2.01422 0)
(-0.00310596 0.804236 0)
(0.0117047 0.522915 0)
(-0.00205299 0.79459 0)
(0.00752268 0.503454 0)
(0.841678 -0.0156897 0)
(0.840122 0.0311305 0)
(0.763904 -0.00744238 0)
(0.802321 0.0317084 0)
(0.702057 0.00693183 0)
(0.0146886 3.0004 9.13295e-19)
(0.0115026 3.00802 0)
(0.00611683 3.00277 0)
(0.0135435 2.99735 1.03617e-23)
(0.00797012 2.95848 -1.35738e-18)
(0.014489 2.98202 0)
(0.0108404 2.90361 0)
(0.0247661 2.9307 2.07376e-24)
(0.00461157 2.82471 0)
(0.030447 2.91631 0)
(-0.00522656 2.74576 0)
(0.305211 3.54251 0)
(-0.131586 3.62322 0)
(0.137844 3.23952 -7.25888e-19)
(-0.0134011 2.97753 0)
(-0.0226358 1.98401 0)
(-0.00794037 2.16681 -9.26547e-21)
(-0.0128631 1.92501 3.08382e-21)
(0.347501 0.143298 -3.53536e-19)
(0.311622 0.0281719 -3.43519e-19)
(0.302939 0.14923 -1.05831e-18)
(0.244156 0.0569709 -6.88234e-19)
(0.229211 0.983168 0)
(0.272195 1.29297 -3.67748e-19)
(0.365634 1.22714 6.13332e-19)
(0.987436 0.00857229 0)
(0.941859 0.00582636 0)
(1.0003 0.000580977 0)
(1.00286 0.00930942 0)
(1.00301 0.00847141 -2.74442e-18)
(0.991908 0.00969575 2.07248e-18)
(-0.00978841 0.787418 0)
(0.00845605 0.491253 0)
(-0.0445038 1.00573 0)
(-0.0242587 0.829514 0)
(0.0062903 0.482519 0)
(-0.0248592 0.111181 2.15348e-19)
(0.0673644 0.0755188 0)
(0.993553 -0.00837071 0)
(0.954465 -0.00653136 0)
(0.743714 0.0307875 0)
(0.680591 0.0254339 0)
(0.663021 0.0146926 0)
(0.970968 -0.00736168 0)
(0.593771 0.0701941 0)
(0.450375 -0.0101477 1.54189e-18)
(-0.037162 2.86249 6.68597e-19)
(0.0414472 2.90992 0)
(0.053532 2.886 0)
(-0.00408272 2.70028 0)
(-0.0134237 2.98508 8.58202e-19)
(-0.0178759 2.89498 0)
(-0.0154304 2.98807 -2.66122e-18)
(-0.0133261 2.92516 9.10997e-19)
(-0.0252021 1.34364 0)
(-0.00234623 1.37223 0)
(-0.00818186 2.13137 5.08286e-22)
(-0.00743838 2.09285 0)
(-0.0210464 1.9036 0)
(0.938616 -0.00738546 0)
(0.857524 -0.00997609 0)
(0.863281 0.00559317 0)
(0.949609 -0.00781176 0)
(0.884073 -0.00819216 0)
(0.514226 1.12633 -2.27564e-19)
(0.563406 1.17739 0)
(0.367364 0.878305 3.36271e-20)
(0.310002 0.736969 0)
(0.916862 1.05989 -1.53455e-19)
(1.03484 0.869038 3.11903e-19)
(0.358405 1.35418 0)
(0.525737 1.32491 0)
(0.548702 1.26366 0)
(0.120933 0.184747 -3.0224e-19)
(0.181998 0.128243 0)
(0.179274 0.0756128 1.91315e-19)
(1.00583 0.92368 0)
(1.07973 0.777604 0)
(1.10486 0.719126 -2.47798e-19)
(1.13856 0.622008 0)
(1.18921 0.405949 5.72219e-20)
(0.957767 -0.00869905 0)
(0.962518 -0.010032 0)
(0.901763 -0.00798548 0)
(0.984205 -0.00914549 0)
(0.974714 -0.00933114 0)
(0.937139 -0.00637334 0)
(1.00019 0.00234007 0)
(1.0009 0.0014153 0)
(0.999909 0.000855131 0)
(0.0355488 2.07347 4.2801e-19)
(0.118849 1.76918 0)
(0.018061 2.1874 6.57683e-19)
(0.0461621 1.88049 -5.48283e-19)
(0.106343 1.14801 -2.59256e-19)
(0.0494061 1.02701 0)
(0.143121 0.978073 0)
(0.00323254 0.852413 0)
(0.0155467 0.592111 0)
(-0.00115533 2.24242 -8.21727e-22)
(0.0159664 2.01869 0)
(-0.00208577 2.24485 -2.93119e-20)
(0.00837522 2.0235 4.54739e-20)
(-0.00117476 0.828815 0)
(-0.00352553 0.815255 0)
(0.00969808 0.549427 0)
(-0.006673 0.789385 0)
(0.0061806 0.493079 0)
(0.93846 0.00979258 0)
(0.850237 -0.0146257 0)
(0.927633 0.000429925 0)
(0.84259 -0.0128846 0)
(0.812069 -0.00254369 0)
(0.898261 0.0230208 0)
(0.872574 0.0282872 0)
(0.788349 -0.00646727 0)
(0.00578695 3.06493 -8.51222e-21)
(0.0166413 3.05766 0)
(0.0146799 2.96903 0)
(0.00872574 2.87624 0)
(0.920685 3.95498 0)
(1.2341 3.28845 9.26653e-19)
(0.0692558 3.06981 0)
(-0.0291749 2.90235 0)
(-0.00940638 1.39455 0)
(-0.0261705 1.69511 0)
(-0.0149778 1.53006 0)
(-0.0293203 2.55417 -1.19482e-20)
(-0.0136127 2.24643 0)
(-0.0193432 2.39274 0)
(0.000173765 1.95099 7.52889e-22)
(-0.00418454 2.23992 -7.2977e-21)
(-0.00624993 2.20179 -3.28796e-21)
(-0.00719505 1.93675 0)
(0.400064 0.124707 5.39925e-19)
(0.360314 0.0175285 -5.29784e-19)
(0.258869 1.5851 0)
(0.277448 0.756184 -3.15786e-19)
(0.177107 1.67243 -1.0487e-18)
(0.22599 1.21992 1.051e-18)
(0.902001 0.00636238 0)
(0.967388 0.0111362 0)
(0.974539 0.0108144 0)
(0.923291 0.00640934 0)
(-0.0093038 0.787084 0)
(-0.0083258 0.783842 0)
(0.00514885 0.486363 0)
(0.121082 0.0924005 6.07725e-19)
(0.10762 0.0811947 -7.18938e-19)
(0.0784808 0.0610894 0)
(1.09901 0.0862543 2.70711e-20)
(1.0811 0.0395029 0)
(1.01322 0.0400136 0)
(0.907284 -0.00548025 0)
(0.452635 0.105711 0)
(0.512721 0.0874315 -2.46344e-18)
(0.406215 0.0115148 9.20955e-19)
(0.00872671 2.98127 7.19533e-19)
(-0.032281 2.86564 4.74016e-20)
(0.00358894 3.0503 -1.80246e-20)
(0.0201884 3.04331 6.4053e-19)
(-0.0149956 2.99657 2.99194e-20)
(-0.0129307 2.94944 -1.20385e-22)
(-0.0172702 3.01194 -5.53709e-19)
(0.0148696 3.0238 4.01147e-19)
(0.00739306 3.03688 -6.35153e-19)
(0.934043 -0.00119322 0)
(0.939501 -0.00318482 0)
(0.846031 -0.0094618 0)
(0.956512 0.0119247 0)
(0.942617 0.0132767 0)
(0.881567 0.00583349 0)
(0.916336 0.0180324 0)
(0.925701 0.0152021 0)
(0.838528 0.00177431 0)
(0.716719 1.40354 4.01132e-20)
(0.750024 1.5122 0)
(0.181435 0.315326 7.05746e-20)
(0.228457 0.668797 5.68168e-19)
(0.262344 0.72049 -3.32009e-19)
(0.263045 0.521374 6.60613e-19)
(0.346003 0.810808 1.59075e-18)
(0.140462 0.22999 3.75643e-19)
(0.259466 0.151511 7.28413e-19)
(0.218515 0.145832 1.88844e-19)
(0.211966 0.0676599 3.57732e-19)
(1.17826 0.46397 6.32941e-20)
(1.19391 0.256881 5.86026e-20)
(0.0101939 2.23604 2.53162e-19)
(0.0404451 1.94862 0)
(0.970684 0.0293641 0)
(0.943358 0.0139326 0)
(0.869089 -0.017902 0)
(0.011326 3.07426 0)
(0.0197585 2.9442 1.17298e-18)
(0.0164141 2.95631 0)
(0.00641696 2.85048 -1.1634e-18)
(0.0064073 3.09183 2.84668e-19)
(0.00704005 3.08231 0)
(0.782835 1.81366 -1.58916e-19)
(1.24196 2.48925 4.03845e-19)
(0.764789 1.95298 -1.22958e-18)
(0.0195542 2.98073 -6.19082e-19)
(0.0350334 2.99921 0)
(-0.0347418 2.87644 0)
(-0.00429563 2.2241 -1.30996e-20)
(-0.003665 2.24506 1.09841e-20)
(0.00216969 1.98535 -7.25414e-21)
(0.278224 1.39432 1.02501e-18)
(0.238714 0.550498 -7.0283e-19)
(0.0638074 1.99812 7.62693e-19)
(0.135335 1.8843 -9.1046e-19)
(0.180243 1.51169 9.50467e-20)
(0.00586997 3.1181 -1.58471e-18)
(0.0127793 3.11885 1.73143e-18)
(-0.0093383 2.98045 7.9088e-19)
(-0.0040457 2.97716 -7.47263e-19)
(-0.0214176 2.88074 -8.05498e-19)
(0.00844195 3.09878 -2.11395e-18)
(0.00157744 3.10625 2.12587e-18)
(0.28202 0.695079 0)
(0.24833 0.684128 -1.18078e-18)
(0.0959181 0.225163 5.24236e-19)
(0.357697 0.937864 1.11269e-18)
(0.195585 0.275989 -1.71549e-18)
(1.18559 0.175009 6.29357e-20)
(1.19433 0.311513 0)
(1.17396 0.122723 -6.35298e-21)
(0.00136306 2.25436 -1.46952e-21)
(0.00483198 2.24582 0)
(0.0247193 1.98416 0)
(0.340089 1.30313 -3.68039e-19)
(0.37473 1.14978 -8.00036e-19)
(0.210224 0.377926 1.4264e-18)
(1.00588 -0.0108294 0)
(1.00767 -0.00763416 5.0628e-19)
(-0.0222791 1.32446 0)
(-0.0387592 1.32328 0)
(1.00221 0.0035139 1.81156e-21)
(1.00366 0.00946897 1.03372e-18)
(-0.0202838 2.53848 1.51458e-20)
(-0.0246657 2.58069 0)
(0.034225 3.17704 4.08282e-19)
(0.390661 3.48423 0)
(1.17471 0.663256 -5.74869e-20)
(1.01285 0.0131404 -2.13513e-21)
(1.02134 -0.0102875 0)
(1.0017 0.000130344 7.86229e-23)
(0.113549 1.36957 0)
(0.143903 2.56907 0)
(0.0248443 1.30906 0)
(-4.95754e-05 2.62075 2.7978e-20)
(-0.0211183 2.57809 3.74174e-21)
(0.998235 0.0288292 1.78695e-21)
(1.06311 0.00465734 0)
(1.09761 0.0251244 0)
(-0.0279852 1.73769 0)
(-0.0184065 2.58012 0)
(-0.00487601 1.31107 0)
(0.311824 1.48174 -1.68118e-19)
(1.0113 -0.00961622 0)
(1.0094 -0.0149151 0)
(1.00237 0.000753335 6.47016e-19)
(1.00547 -0.00480002 -7.60461e-19)
(1.00118 -0.00097036 0)
(-0.0136503 1.46225 0)
(-0.00714967 1.37372 0)
(-0.00633432 1.41939 0)
(-0.00869964 1.29872 0)
(-0.0183987 1.28564 0)
(-0.00949619 1.26838 0)
(1.03504 -0.00603272 0)
(1.01964 0.0155599 -8.22228e-22)
(0.821055 1.27337 2.60097e-19)
(1.00224 0.000320419 -6.44554e-19)
(1.00406 0.00526122 7.54591e-19)
(1.00118 0.00207528 0)
(1.01273 0.0103619 6.41456e-19)
(1.00798 0.00831365 -7.7722e-19)
(1.00856 0.0146965 0)
(-0.0236556 2.60812 0)
(-0.0258017 2.588 -2.00444e-20)
(-0.0232052 2.60177 1.41635e-20)
(1.23758 0.267794 5.80858e-19)
(1.1624 0.0870692 0)
(0.0405857 3.07835 -9.12031e-19)
(0.064763 2.85674 -6.6374e-20)
(0.138693 3.1924 1.39543e-18)
(0.133979 3.21994 -1.97661e-19)
(0.133419 3.23105 0)
(0.0187356 3.13725 2.35585e-19)
(0.0742014 3.16015 8.99531e-19)
(0.0671393 3.18515 -4.44122e-19)
(0.0216523 3.1299 0)
(0.586311 0.282058 0)
(0.518945 0.301508 0)
(1.14604 0.699303 1.30928e-19)
(1.13986 0.8207 -1.14978e-19)
(1.20257 0.586135 0)
(1.23036 0.520704 0)
(1.01604 0.0133762 -1.19568e-18)
(1.01498 0.0142803 1.50096e-18)
(1.02538 -0.00980382 0)
(1.02345 -0.0118494 0)
(1.00642 0.00263551 0)
(1.01041 0.00374498 0)
(1.00458 0.00186669 0)
(1.00978 0.00625214 0)
(1.00781 0.00596651 0)
(1.00451 0.00471869 0)
(0.102741 1.36806 0)
(0.0990849 1.33109 0)
(0.133092 1.40523 0)
(0.151195 1.41024 0)
(0.14563 2.59408 0)
(0.185327 2.66419 -4.23493e-19)
(0.101594 2.64944 0)
(0.0853273 2.65233 1.97953e-19)
(0.0388363 2.67523 -1.48276e-19)
(0.0141657 1.32113 0)
(0.0217389 1.24448 0)
(0.0180767 1.33112 0)
(0.0351318 1.26836 0)
(0.00416844 1.98398 3.5802e-21)
(-0.0200523 2.6058 -1.88809e-20)
(-0.00830553 2.66204 1.35359e-20)
(-0.01802 2.68125 0)
(-0.0229085 2.61168 -4.72483e-21)
(-0.0227992 2.60661 1.27846e-20)
(0.013043 1.98239 2.26294e-22)
(-0.00711559 2.39384 2.53309e-20)
(-0.0130345 2.41592 -1.53517e-20)
(1.01063 0.0393344 1.21199e-18)
(1.00518 0.0180527 -1.50757e-18)
(1.00421 0.0453498 -1.23353e-18)
(0.977103 0.0359564 1.55228e-18)
(1.06434 0.00847638 0)
(1.04945 -0.00822831 0)
(1.09457 0.0352961 0)
(1.07449 0.0130433 0)
(1.07232 0.000576916 0)
(1.14053 0.0834902 0)
(1.11205 0.044806 0)
(1.11588 0.0326617 0)
(-0.0251195 2.43106 1.49218e-21)
(-0.0129829 2.01323 0)
(-0.0152909 2.21586 0)
(-0.0203801 2.60072 -1.11052e-20)
(-0.0174731 2.61048 1.8796e-22)
(0.00333629 1.57384 -3.61188e-20)
(-0.00542217 1.5019 3.68007e-20)
(-0.0150611 1.39089 0)
(-0.018567 1.39748 0)
(-0.0233976 1.39197 0)
(-0.00312651 1.3122 0)
(0.00938343 1.23783 0)
(0.38647 1.49915 2.73358e-19)
(0.4297 1.50001 1.44908e-19)
(0.597513 2.44419 -2.40342e-19)
(0.398339 2.54125 7.0747e-19)
(0.349303 2.05289 7.16202e-20)
(1.02108 -0.0081044 0)
(1.01551 -0.00974265 0)
(1.01492 -0.0155018 0)
(1.00741 -0.00107287 0)
(1.00493 -0.00090816 0)
(1.00778 -0.00468495 0)
(1.00927 -0.00360791 0)
(1.01422 -0.00436834 0)
(1.02039 0.016357 1.17167e-18)
(1.01765 0.0155046 -1.49691e-18)
(1.02067 0.0184161 -1.18105e-18)
(1.01828 0.0165515 1.47673e-18)
(0.784455 1.32469 0)
(0.720831 1.37487 2.46292e-19)
(0.896458 1.22417 9.75731e-20)
(0.942369 1.16924 -1.29837e-19)
(1.15454 2.59973 2.78829e-19)
(0.768458 0.123332 5.99939e-19)
(1.16369 0.109316 0)
(1.21276 0.194892 -4.67445e-19)
(1.19991 0.155604 -1.98974e-20)
(1.00629 0.157372 0)
(0.129521 2.95855 5.30947e-19)
(0.105689 2.86476 -1.15558e-18)
(0.0135479 2.3737 7.72034e-19)
(0.0961707 -0.154304 -3.28674e-19)
(0.335796 3.41443 -2.15139e-19)
(0.1914 3.30903 0)
(0.234955 3.3497 2.80189e-19)
(0.240037 3.03114 -1.77504e-18)
(0.333166 3.18924 0)
(0.00604119 3.12093 4.60914e-20)
(0.0170048 3.12949 -5.4132e-19)
(0.0147974 3.12559 7.96722e-19)
(0.0343889 3.13973 0)
(0.0325437 3.1503 0)
(1.21041 2.59727 0)
(0.545978 0.805024 -5.28074e-19)
(1.06613 0.993655 -8.4556e-21)
(1.00076 1.07828 0)
(0.853862 0.973762 -1.09808e-19)
(1.09179 0.894691 2.79188e-20)
(0.312381 0.336306 -8.51764e-19)
(0.658106 0.324806 -1.73215e-20)
(0.558287 0.222578 4.07057e-19)
(0.544747 0.336645 2.98355e-20)
(0.436852 0.276413 -1.19908e-18)
(0.618394 0.325637 0)
(0.708205 0.423411 6.85152e-19)
(0.710436 0.426397 0)
(0.583519 0.339908 0)
(0.511752 0.247711 0)
(0.826365 0.624674 4.10656e-19)
(1.23877 0.290148 -4.88867e-19)
(1.23886 0.428977 0)
(1.24715 0.369486 0)
(0.686356 0.195578 6.20216e-19)
(0.873274 0.553273 -3.75944e-19)
(0.77069 0.525494 6.68984e-19)
(0.962689 0.446019 -7.36445e-19)
(1.01917 0.0149733 8.02548e-19)
(1.01757 0.0143551 -8.0829e-19)
(1.0159 0.0153689 0)
(1.03651 -0.00557475 0)
(1.02992 -0.0083593 -7.57246e-19)
(1.02797 -0.0119508 7.49715e-19)
(1.02486 0.0105547 0)
(1.02335 0.0143285 0)
(1.01141 0.00416585 0)
(1.01419 0.00915873 0)
(1.01515 0.00418112 0)
(1.01426 0.00289957 0)
(0.0709198 1.35163 0)
(0.0763738 1.29723 0)
(0.149552 1.38623 1.00103e-20)
(0.282143 1.48022 8.94235e-20)
(0.177603 1.4511 1.88112e-19)
(0.21058 1.45625 -3.06784e-19)
(0.17468 1.41115 0)
(0.136737 1.59896 -7.22774e-20)
(0.118514 1.57812 0)
(0.345731 2.00255 -1.04137e-19)
(0.341953 2.33848 6.15025e-19)
(0.193835 1.46382 6.30059e-20)
(0.269128 1.39645 2.33355e-20)
(0.202559 1.38945 -1.88561e-20)
(0.278442 1.33893 -1.03866e-19)
(0.243326 1.57901 0)
(0.267634 1.61616 1.12894e-19)
(0.0308938 2.25905 -2.86815e-20)
(0.04386 2.66435 0)
(0.0666493 2.39547 1.34979e-19)
(0.0633763 2.41626 0)
(0.0697165 2.66591 -2.1937e-19)
(0.0493302 2.69454 0)
(0.0270125 1.43734 3.25783e-20)
(0.0356353 1.489 0)
(0.0289706 1.40446 0)
(0.0239178 1.40948 -3.67609e-20)
(0.000640853 2.64834 -1.70904e-20)
(0.0299105 2.69367 1.66435e-19)
(0.0105368 2.71881 1.17184e-21)
(0.00369671 1.83655 -3.30721e-21)
(-0.00172099 1.69037 -3.47364e-21)
(0.0112768 1.30052 0)
(0.0203685 1.22103 0)
(0.0475632 1.59419 -2.61647e-20)
(0.0329778 1.47032 -3.37679e-20)
(0.0374542 1.53394 4.16627e-20)
(0.0413975 1.61773 0)
(-0.0293541 2.26944 9.71843e-20)
(-0.0303813 2.54763 -4.08979e-20)
(-0.016128 2.44524 4.0873e-21)
(-0.00300301 1.85252 4.00651e-21)
(-0.0251355 2.49719 2.21458e-21)
(-0.0202353 2.44087 1.23268e-22)
(1.01848 0.0212811 -8.01698e-19)
(1.01441 0.027958 8.05627e-19)
(1.0132 0.0167561 0)
(1.01103 0.0709714 1.12696e-18)
(0.991846 0.0596602 -1.26243e-18)
(0.950522 0.056695 1.41124e-18)
(1.01438 0.112275 -1.50398e-19)
(1.04296 -0.00556557 0)
(1.05136 -0.00118337 7.22202e-19)
(1.03923 -0.00975036 -7.2366e-19)
(1.07186 0.0428963 -4.29401e-20)
(1.06501 0.0241955 3.70311e-19)
(1.0634 0.0570499 0)
(1.05395 0.0502766 -1.3316e-19)
(1.03246 0.0430177 0)
(1.02594 0.039981 0)
(1.02787 0.0136741 0)
(1.0238 0.0163142 0)
(1.04039 0.0331172 2.74287e-19)
(1.03901 0.0277933 -6.06595e-19)
(1.05135 0.0346258 -2.90716e-19)
(1.04846 0.0347287 -3.20203e-19)
(1.07164 0.0653276 6.24789e-19)
(1.09712 0.0531175 0)
(1.10617 0.097278 0)
(-0.024787 2.27457 5.50608e-20)
(-0.023591 2.01805 1.08395e-21)
(-0.0195641 2.02555 0)
(-0.0269955 2.44377 -5.48103e-20)
(-0.0222271 2.40027 -2.50571e-21)
(-0.0324676 2.47162 5.86163e-21)
(-0.0203908 2.61925 -1.14413e-20)
(-0.0229631 2.5612 7.62633e-23)
(-0.021136 2.51288 -3.13981e-21)
(-0.0156509 2.61336 1.00539e-20)
(-0.0204728 2.61524 -1.07504e-20)
(-0.00561248 1.49559 -5.9649e-22)
(0.00392959 1.62228 -3.41756e-20)
(0.371402 1.44713 -1.15603e-19)
(0.371281 1.38085 3.69804e-20)
(0.66137 1.42559 -2.38267e-19)
(0.52877 1.49277 -1.42573e-19)
(0.58714 1.45817 0)
(0.593307 2.42124 2.07014e-19)
(0.661706 2.41666 3.3758e-19)
(0.411185 2.5107 8.7836e-20)
(0.402445 2.53516 -6.09825e-19)
(0.510072 2.47636 6.14379e-19)
(0.553219 2.45799 0)
(0.488042 2.5155 -5.59459e-19)
(0.248469 2.58785 1.14378e-18)
(0.354767 2.5599 -7.74425e-20)
(0.283995 2.64955 -1.58679e-18)
(0.948024 2.37459 7.26948e-19)
(0.838198 2.37968 0)
(1.01107 0.000527901 2.62479e-20)
(1.01536 -0.00536821 -2.12911e-20)
(1.01767 -0.00347416 -3.88863e-19)
(1.01504 -0.000835842 3.90974e-19)
(1.01246 0.00126442 0)
(0.647514 1.29063 0)
(0.67068 1.1842 0)
(0.784597 1.10267 0)
(0.66377 1.14782 0)
(1.1846 2.61329 5.97392e-20)
(1.07262 2.36053 0)
(0.834199 2.1651 3.83379e-21)
(0.823633 2.43068 0)
(0.921715 2.52444 -4.2192e-19)
(0.956938 2.48056 2.80659e-19)
(0.798116 0.184446 0)
(0.74058 0.156991 1.62823e-19)
(0.907638 0.152169 9.47849e-19)
(0.823027 0.156154 -3.55128e-19)
(0.779146 0.0905704 -1.09526e-18)
(1.08276 0.241513 -8.91838e-19)
(1.00025 0.303993 -1.76854e-20)
(0.9292 0.307637 8.59567e-19)
(1.00788 0.234515 7.21329e-19)
(0.948249 0.199318 -1.2538e-18)
(0.910818 0.203435 1.56787e-19)
(0.948796 0.270079 -3.32668e-19)
(0.926478 0.230851 0)
(0.995935 0.195489 6.18415e-19)
(1.04751 0.194579 0)
(1.04507 0.222849 0)
(1.10761 0.121482 2.89787e-19)
(1.07183 0.181364 -1.50145e-20)
(1.0762 0.241535 -1.57774e-19)
(1.10192 0.207522 0)
(1.02342 0.0465497 6.16627e-19)
(1.03926 0.0603156 7.71548e-19)
(1.03464 0.0465355 -6.12288e-19)
(1.04302 0.067945 -5.17402e-19)
(1.02042 0.0756414 -7.9377e-19)
(0.985638 0.160383 0)
(0.99068 0.106145 0)
(0.965287 0.0743666 -5.01402e-19)
(0.905531 0.0984081 1.9936e-19)
(1.03999 0.108031 7.1603e-19)
(1.06976 0.125097 -8.35862e-19)
(1.07646 0.157527 7.46414e-19)
(1.03108 0.151073 0)
(1.07533 0.112603 0)
(1.05441 0.0934772 -3.4262e-19)
(1.04332 0.0979945 -5.84628e-19)
(0.578905 1.05584 1.39868e-19)
(0.604492 1.3809 -4.13272e-20)
(1.15447 2.72896 -2.27418e-19)
(1.22024 3.07128 2.02434e-21)
(1.24628 2.71208 -1.2393e-19)
(1.27488 2.6953 -3.17187e-20)
(1.20228 2.33563 -1.10589e-20)
(1.2079 2.97517 -9.36369e-20)
(1.22797 2.9407 2.34604e-19)
(1.21043 3.22417 -1.42817e-19)
(1.37009 2.95507 1.97349e-19)
(1.3588 2.87317 0)
(0.563183 0.81375 -5.03162e-20)
(0.110677 1.22599 5.6953e-19)
(0.557341 0.359743 5.56661e-19)
(0.396209 0.106902 6.0442e-19)
(0.480616 0.316602 6.79701e-19)
(0.545043 0.434589 -1.09849e-18)
(0.547064 0.431005 8.99526e-19)
(0.46715 0.317183 -3.41685e-19)
(0.346736 0.245429 7.73071e-19)
(0.711059 0.269028 -3.58139e-19)
(0.670856 0.292482 0)
(0.611505 0.207814 6.73164e-21)
(0.742534 0.506986 3.64522e-19)
(0.719973 0.477778 -1.32576e-18)
(0.623137 0.445776 1.13542e-20)
(0.620824 0.43671 0)
(0.692831 0.717812 3.9671e-19)
(0.854779 0.778917 3.94857e-19)
(0.778409 0.861505 -4.6204e-19)
(0.900396 0.816201 -1.54365e-19)
(0.93147 0.861528 -3.72804e-20)
(0.938566 0.861268 3.81782e-20)
(0.867014 0.659215 -6.79741e-19)
(0.946993 0.712946 1.43337e-19)
(1.00635 0.728135 0)
(0.997372 0.704753 -1.93643e-19)
(1.02998 0.344425 2.12106e-19)
(1.1496 0.306386 2.87742e-19)
(1.07071 0.278816 3.64493e-19)
(1.01908 0.37684 -4.30667e-19)
(1.06746 0.4393 0)
(1.12341 0.421201 0)
(0.923681 0.380646 1.58042e-21)
(0.840389 0.316888 0)
(0.885234 0.312427 4.06633e-19)
(0.91068 0.31623 -7.98154e-21)
(0.956984 0.449415 2.05151e-18)
(0.917977 0.504849 5.27913e-19)
(0.922865 0.471518 -5.62661e-19)
(0.838886 0.458434 6.03626e-19)
(0.823197 0.45112 3.61747e-19)
(0.794924 0.433725 -3.55807e-19)
(1.02741 -0.000197391 6.47794e-19)
(1.02 9.99819e-05 0)
(1.01854 0.00102617 4.22407e-19)
(1.02174 -0.00151208 -9.56858e-19)
(1.02237 0.00453247 4.64856e-19)
(1.0203 0.0115615 -9.73423e-19)
(1.0212 0.010922 0)
(1.02044 0.0111295 -2.02886e-19)
(1.01593 0.00786203 5.09004e-19)
(1.01659 0.0106507 -2.53981e-19)
(1.01729 0.0100001 1.87038e-19)
(0.0290503 1.32532 0)
(0.0357533 1.37932 0)
(0.047689 1.32733 0)
(0.0519454 1.27438 0)
(0.075384 1.40078 -5.08443e-20)
(0.0824771 1.36746 2.26179e-20)
(0.118838 1.54498 -1.34033e-20)
(0.10335 1.38944 -6.12563e-21)
(0.0380437 1.47588 1.76334e-20)
(0.0421582 1.46956 -1.35248e-20)
(0.0669238 1.3868 -1.00224e-20)
(0.0589082 1.38824 4.61198e-20)
(0.0502393 1.364 6.8655e-21)
(0.0419247 1.38579 3.67804e-21)
(0.107729 2.36397 -1.49036e-19)
(0.0967568 2.4123 0)
(0.170802 2.03806 1.0825e-19)
(0.114214 1.70494 3.92749e-20)
(0.234168 2.03422 -8.99879e-20)
(0.200519 2.42545 0)
(0.262717 2.37541 -6.06284e-19)
(0.302721 2.37309 4.28485e-19)
(0.229652 1.99413 -2.49951e-19)
(0.155642 2.15336 1.70141e-19)
(0.141945 2.26063 0)
(0.0192319 1.87838 4.921e-21)
(0.000393315 2.38856 -3.32817e-20)
(0.00699954 2.14659 0)
(0.0117008 2.45196 -1.36284e-20)
(0.0285787 2.29496 9.09617e-21)
(0.0152043 1.41665 -7.02333e-21)
(0.0128156 1.3987 1.17256e-19)
(0.0127531 1.40502 -3.86076e-20)
(0.0210218 1.40946 -3.28128e-20)
(0.0252983 1.44103 0)
(0.00885248 1.38638 0)
(0.00157649 1.2973 -4.61891e-20)
(0.00512267 1.37819 1.31598e-20)
(0.00873408 1.37811 0)
(0.00714683 1.28919 -3.45971e-20)
(0.0177666 1.2122 7.02526e-20)
(1.04083 0.0121526 0)
(1.04705 0.00838024 -6.77558e-20)
(1.03874 0.0223373 -4.89096e-19)
(1.04859 0.021149 0)
(1.05251 0.0210054 0)
(1.03638 0.0123435 -6.85497e-21)
(1.031 0.0121688 7.86105e-19)
(1.03165 0.0171889 9.5302e-19)
(1.02546 0.021095 0)
(1.02215 0.0214918 0)
(1.03525 0.0260738 4.87642e-19)
(1.02552 0.0279102 0)
(1.02355 0.0279538 0)
(-0.0181287 2.02281 0)
(0.000872164 1.65283 -4.32088e-21)
(-0.00430616 1.76028 -3.05657e-20)
(-0.000926016 1.38686 0)
(-0.00646387 1.55383 -1.86168e-20)
(-0.00872171 1.4637 1.16927e-20)
(-0.00547047 1.40026 0)
(0.388564 1.64392 0)
(0.373875 1.3071 -7.2277e-20)
(0.300826 1.34055 0)
(0.425728 1.30583 7.47646e-21)
(0.476341 1.47021 0)
(0.45668 1.41452 2.47584e-20)
(1.03642 2.67539 -1.53684e-20)
(0.968438 2.40335 -9.13648e-19)
(0.921552 2.19162 1.02496e-18)
(0.852214 2.37161 2.42087e-19)
(0.847798 2.48489 0)
(0.91753 2.48108 0)
(0.931371 2.36812 0)
(0.910332 2.35727 -9.44585e-19)
(0.686797 2.44877 -3.94541e-19)
(0.799941 2.43826 -9.77378e-20)
(0.810269 2.41244 7.42582e-20)
(0.695571 2.38983 0)
(0.800813 2.38515 0)
(0.758981 2.39854 -3.6877e-19)
(0.767551 2.47459 0)
(0.630677 1.09366 0)
(0.480533 0.900744 -5.12154e-19)
(0.567107 0.944579 -3.24125e-20)
(0.519165 1.03441 0)
(0.519613 0.977693 7.67036e-19)
(0.799185 0.884374 -1.29987e-19)
(0.808213 1.02071 0)
(0.783317 0.98699 1.8569e-19)
(0.667442 1.03395 0)
(0.668765 0.935611 0)
(1.16347 2.75206 -2.29988e-19)
(1.14091 2.81539 -9.72434e-20)
(0.929007 2.32965 1.00627e-19)
(0.896817 2.30904 -8.336e-20)
(1.12906 2.72506 0)
(1.08289 2.69452 1.00291e-19)
(1.089 2.47846 -3.13895e-19)
(0.983506 2.23141 -3.03806e-20)
(0.49226 1.33077 0)
(0.507976 1.06075 -1.23282e-19)
(0.576097 1.16711 0)
(0.853486 0.249022 0)
(0.760427 0.198962 0)
(0.672142 0.155774 0)
(0.844679 0.251227 -6.4005e-19)
(0.733337 0.242146 3.73616e-19)
(0.922043 0.0899655 -4.11349e-19)
(0.927073 0.132456 0)
(0.913856 0.140684 1.77659e-19)
(0.850794 0.118138 7.10399e-19)
(0.815123 0.0798585 -4.45443e-19)
(1.15567 3.34918 -7.17929e-19)
(1.2047 3.26864 0)
(1.15325 3.37814 -1.48764e-18)
(0.641479 3.53963 1.26219e-18)
(0.863155 3.10826 7.16271e-20)
(0.521977 0.801247 6.05254e-19)
(0.42419 0.79858 0)
(0.308644 0.388124 -1.48935e-19)
(0.471874 0.650741 8.57029e-19)
(0.560849 0.362527 -1.96017e-19)
(0.515434 0.466362 2.31155e-19)
(0.674548 0.511753 4.92434e-19)
(0.713272 0.550233 0)
(0.663393 0.575644 0)
(0.628239 0.526468 0)
(1.00793 0.614719 8.8626e-20)
(0.922882 0.554332 -5.13944e-19)
(0.948199 0.585989 3.87305e-19)
(0.978909 0.525998 -3.97829e-19)
(1.08638 0.494774 0)
(1.09477 0.585599 -9.69318e-20)
(0.859191 0.411246 -8.30138e-19)
(0.858256 0.400267 -1.02957e-18)
(0.793485 0.39384 6.42478e-19)
(0.804057 0.375861 -6.52216e-19)
(0.846121 0.335949 -5.19351e-19)
(0.793329 0.33731 6.35376e-19)
(1.02667 0.00611508 -4.93355e-19)
(1.02637 0.00633433 1.00274e-18)
(1.02946 0.000259247 6.27745e-19)
(1.0337 0.00117516 -7.55996e-19)
(1.03382 0.00934174 0)
(1.03006 0.0100433 -1.23098e-18)
(0.0637556 1.64201 1.92992e-20)
(0.0510384 1.59104 0)
(0.0900846 1.69143 1.20002e-19)
(0.0984618 1.67275 -1.0565e-19)
(0.0932668 1.55 2.51083e-20)
(0.0932124 1.55003 0)
(0.0117009 1.68642 0)
(-0.00412185 1.49438 7.37661e-21)
(-0.00192331 1.44025 -6.63621e-21)
(-0.00730601 1.55064 5.37546e-21)
(0.00206199 1.88437 1.10782e-20)
(-0.00984862 1.93736 -1.79251e-21)
(0.496646 1.35761 -2.75641e-19)
(0.490147 1.35797 3.02842e-19)
(0.453016 1.30144 -3.14283e-20)
(0.436292 1.28422 7.75366e-21)
(0.639769 1.30813 0)
(0.55533 1.39849 1.04948e-19)
(0.57058 1.40593 -1.02165e-19)
(0.466667 1.29094 3.06406e-20)
(0.521224 1.24081 0)
(0.572862 1.20361 0)
(0.653689 2.40831 5.79583e-19)
(0.66938 2.44978 1.26027e-18)
(0.713834 2.46045 -8.68401e-19)
(0.610076 2.43429 -2.01905e-19)
(0.559876 2.52471 2.83769e-19)
(0.509171 2.49948 -7.57287e-19)
(0.978179 2.37486 -5.73608e-19)
(1.01236 2.38703 0)
(0.925735 2.1697 -6.59348e-19)
(1.05386 2.67354 0)
(1.05614 2.66015 0)
(0.598987 2.25749 -1.26922e-19)
(1.03676 3.15404 1.28574e-19)
(0.9078 3.02445 -3.18391e-20)
(0.26445 0.84963 0)
(0.29127 0.693309 -3.17304e-19)
(0.460961 0.653074 -3.19125e-19)
(0.378816 2.0019 0)
(0.462212 2.77891 -4.9861e-20)
(0.415842 2.54141 0)
(0.715611 0.668043 -8.38233e-19)
(0.800348 0.685407 1.12341e-18)
(0.820268 0.626535 -1.11e-18)
(0.692761 0.631146 -1.07479e-19)
(0.747913 0.589032 -4.40706e-19)
(1.00067 2.75307 -9.77847e-20)
(1.04146 2.81417 -1.65239e-19)
(0.631859 2.12144 6.97169e-19)
(0.584473 1.68995 -4.96676e-19)
(0.69374 1.88921 -4.07015e-19)
(0.986732 2.43692 -1.12872e-19)
(0.993665 2.42988 2.9633e-19)
(0.649642 1.82274 2.82795e-20)
(0.441123 1.3106 1.44396e-19)
)
;

boundaryField
{
    wall-4
    {
        type            noSlip;
    }
    velocity-inlet-5
    {
        type            fixedValue;
        value           uniform (1 0 0);
    }
    velocity-inlet-6
    {
        type            fixedValue;
        value           uniform (0 3 0);
    }
    pressure-outlet-7
    {
        type            zeroGradient;
    }
    wall-8
    {
        type            noSlip;
    }
    frontAndBackPlanes
    {
        type            empty;
    }
}


// ************************************************************************* //
