/*--------------------------------*- C++ -*----------------------------------*\
  =========                 |
  \\      /  F ield         | OpenFOAM: The Open Source CFD Toolbox
   \\    /   O peration     | Website:  https://openfoam.org
    \\  /    A nd           | Version:  13
     \\/     M anipulation  |
\*---------------------------------------------------------------------------*/
FoamFile
{
    format      ascii;
    class       volScalarField;
    location    "0.095";
    object      T;
}
// * * * * * * * * * * * * * * * * * * * * * * * * * * * * * * * * * * * * * //

dimensions      [0 0 0 1 0 0 0];

internalField   nonuniform List<scalar> 
1000
(
0
0
0
0
0
0
0
0
0
0
0
0
0
0
0
0
0
0
0
0
0
0
0
0
0
0
0
0
0
0
0
0
0
0
0
0
0
0
0
0
0
0
0
0
0
0
0
0
0
0
0
0
0
0
0
0
0
0
0
0
0
0
0
0
0
0
0
0
0
0
0
0
0
0
0
0
0
0
0
0
0
0
0
0
0
0
0
0
0
0
0
0
0
0
0
0
0
0
0
0
0
0
0
0
0
0
0
0
0
0
0
0
0
0
0
0
0
0
0
0
0
0
0
0
0
0
0
0
0
0
0
0
0
0
0
0
0
0
0
0
0
0
0
4.94066e-324
3.80431e-322
9.67381e-321
2.40852e-319
5.96657e-318
1.47427e-316
3.63364e-315
8.9334e-314
2.19077e-312
5.35893e-311
1.30754e-309
3.18217e-308
7.72467e-307
1.87033e-305
4.51684e-304
1.08799e-302
2.61386e-301
6.26331e-300
1.49687e-298
3.56795e-297
8.48207e-296
2.01108e-294
4.7555e-293
1.12149e-291
2.63771e-290
6.18701e-289
1.44728e-287
3.3763e-286
7.85482e-285
1.82237e-283
4.21631e-282
9.72799e-281
2.23821e-279
5.13525e-278
1.17489e-276
2.68045e-275
6.09791e-274
1.3833e-272
3.129e-271
7.05739e-270
1.58718e-268
3.55915e-267
7.95791e-266
1.7741e-264
3.94345e-263
8.73956e-262
1.93113e-260
4.25438e-259
9.34453e-258
2.0463e-256
4.46751e-255
9.72388e-254
2.11002e-252
4.56455e-251
9.84396e-250
2.11638e-248
4.53593e-247
9.6912e-246
2.06406e-244
4.38223e-243
9.27443e-242
1.95656e-240
4.1144e-239
8.62423e-238
1.80189e-236
3.7525e-235
7.7892e-234
1.61153e-232
3.32313e-231
6.82993e-230
1.39906e-228
2.85626e-227
5.81162e-226
1.17849e-224
2.38163e-223
4.79665e-222
9.62736e-221
1.92564e-219
3.83826e-218
7.62388e-217
1.50901e-215
2.9763e-214
5.84952e-213
1.14555e-211
2.23538e-210
4.34635e-209
8.42021e-208
1.62532e-206
3.12583e-205
5.98952e-204
1.14343e-202
2.17477e-201
4.12089e-200
7.7792e-199
1.46297e-197
2.74084e-196
5.1153e-195
9.51015e-194
1.76126e-192
3.24917e-191
5.97065e-190
1.09286e-188
1.99244e-187
3.61811e-186
6.54395e-185
1.17883e-183
2.11497e-182
3.77911e-181
6.72507e-180
1.19183e-178
2.10347e-177
3.69698e-176
6.4705e-175
1.12771e-173
1.95711e-172
3.38205e-171
5.81945e-170
9.97029e-169
1.70077e-167
2.8886e-166
4.88449e-165
8.22297e-164
1.37818e-162
2.29951e-161
3.81952e-160
6.31556e-159
1.03952e-157
1.70317e-156
2.77765e-155
4.50896e-154
7.2852e-153
1.17155e-151
1.87508e-150
2.98679e-149
4.73482e-148
7.46969e-147
1.1727e-145
1.83207e-144
2.84811e-143
4.40568e-142
6.78106e-141
1.03848e-139
1.58232e-138
2.39869e-137
3.61763e-136
5.42784e-135
8.10153e-134
1.2029e-132
1.77663e-131
2.61007e-130
3.81401e-129
5.54328e-128
8.01293e-127
1.15196e-125
1.64699e-124
2.34169e-123
3.31084e-122
4.65478e-121
6.50718e-120
9.04487e-119
1.24999e-117
1.71747e-116
2.34602e-115
3.18574e-114
4.3004e-113
5.77041e-112
7.69631e-111
1.02027e-109
1.34427e-108
1.76025e-107
2.29064e-106
2.96218e-105
3.80642e-104
4.86016e-103
6.16581e-102
7.77162e-101
9.73179e-100
1.21062e-98
1.49602e-97
1.83633e-96
2.23887e-95
2.71107e-94
3.26036e-93
3.89381e-92
4.61788e-91
5.43805e-90
6.3584e-89
7.38123e-88
8.50666e-87
9.73216e-86
1.10522e-84
1.24581e-83
1.39376e-82
1.54747e-81
1.70501e-80
1.8641e-79
2.02217e-78
2.17641e-77
2.32382e-76
2.46134e-75
2.5859e-74
2.69456e-73
2.78462e-72
2.8537e-71
2.89987e-70
2.92171e-69
2.91843e-68
2.88983e-67
2.8364e-66
2.75928e-65
2.66019e-64
2.54143e-63
2.40574e-62
2.25622e-61
2.09618e-60
1.92907e-59
1.75829e-58
1.58712e-57
1.41859e-56
1.2554e-55
1.09985e-54
9.53809e-54
8.18676e-53
6.95395e-52
5.84474e-51
4.86021e-50
3.99802e-49
3.25294e-48
2.6175e-47
2.08264e-46
1.63832e-45
1.27401e-44
9.79203e-44
7.43751e-43
5.58174e-42
4.13835e-41
3.0306e-40
2.19178e-39
1.56515e-38
1.10339e-37
7.67771e-37
5.27211e-36
3.57191e-35
2.38723e-34
1.57352e-33
1.0227e-32
6.5527e-32
4.13805e-31
2.57498e-30
1.57852e-29
9.53059e-29
5.66595e-28
3.31586e-27
1.90975e-26
1.08216e-25
6.0314e-25
3.30546e-24
1.78073e-23
9.42728e-23
4.90291e-22
2.50413e-21
1.25559e-20
6.17835e-20
2.98243e-19
1.41182e-18
6.55133e-18
2.97881e-17
1.3266e-16
5.78401e-16
2.46785e-15
1.02992e-14
4.20221e-14
1.67541e-13
6.52398e-13
2.4798e-12
9.19583e-12
3.32497e-11
1.17152e-10
4.01978e-10
1.34237e-09
4.35987e-09
1.37628e-08
4.21952e-08
1.25553e-07
3.62307e-07
1.01314e-06
2.74327e-06
7.18646e-06
1.81993e-05
4.45164e-05
0.000105086
0.000239202
0.000524579
0.00110745
0.00224886
0.00438926
0.00822834
0.0148066
0.0255623
0.0423236
0.0671913
0.10228
0.149321
0.20919
0.281467
0.36419
0.453909
0.546091
0.63581
0.718533
0.79081
0.850679
0.89772
0.932809
0.957676
0.974438
0.985193
0.991772
0.995611
0.997751
0.998893
0.999475
0.999761
0.999895
0.999955
0.999982
0.999993
0.999997
0.999999
1
1
1
1
1
1
1
1
1
1
1
1
1
1
1
1
1
1
1
1
1
1
1
1
1
1
1
1
1
1
1
1
1
1
1
1
1
1
1
1
1
1
1
1
1
1
1
1
1
1
1
1
1
1
1
1
0.999999
0.999997
0.999993
0.999982
0.999955
0.999895
0.999761
0.999475
0.998893
0.997751
0.995611
0.991772
0.985193
0.974438
0.957676
0.932809
0.89772
0.850679
0.79081
0.718533
0.63581
0.546091
0.453909
0.36419
0.281467
0.20919
0.149321
0.10228
0.0671913
0.0423236
0.0255623
0.0148066
0.00822834
0.00438926
0.00224886
0.00110745
0.000524579
0.000239202
0.000105086
4.45164e-05
1.81993e-05
7.18646e-06
2.74327e-06
1.01314e-06
3.62307e-07
1.25553e-07
4.21952e-08
1.37628e-08
4.35987e-09
1.34237e-09
4.01978e-10
1.17152e-10
3.32497e-11
9.19583e-12
2.4798e-12
6.52398e-13
1.67541e-13
4.20221e-14
1.02992e-14
2.46785e-15
5.78401e-16
1.3266e-16
2.97881e-17
6.55133e-18
1.41182e-18
2.98243e-19
6.17835e-20
1.25559e-20
2.50413e-21
4.90291e-22
9.42728e-23
1.78073e-23
3.30546e-24
6.0314e-25
1.08216e-25
1.90975e-26
3.31586e-27
5.66595e-28
9.53059e-29
1.57852e-29
2.57498e-30
4.13805e-31
6.5527e-32
1.0227e-32
1.57352e-33
2.38723e-34
3.57191e-35
5.27211e-36
7.67771e-37
1.10339e-37
1.56515e-38
2.19178e-39
3.0306e-40
4.13835e-41
5.58174e-42
7.43751e-43
9.79203e-44
1.27401e-44
1.63832e-45
2.08264e-46
2.6175e-47
3.25294e-48
3.99802e-49
4.86021e-50
5.84474e-51
6.95395e-52
8.18676e-53
9.53809e-54
1.09985e-54
1.2554e-55
1.41859e-56
1.58712e-57
1.75829e-58
1.92907e-59
2.09618e-60
2.25622e-61
2.40574e-62
2.54143e-63
2.66019e-64
2.75928e-65
2.8364e-66
2.88983e-67
2.91843e-68
2.92171e-69
2.89987e-70
2.8537e-71
2.78462e-72
2.69456e-73
2.5859e-74
2.46134e-75
2.32382e-76
2.17641e-77
2.02217e-78
1.8641e-79
1.70501e-80
1.54747e-81
1.39376e-82
1.24581e-83
1.10522e-84
9.73216e-86
8.50666e-87
7.38123e-88
6.3584e-89
5.43805e-90
4.61788e-91
3.89381e-92
3.26036e-93
2.71107e-94
2.23887e-95
1.83633e-96
1.49602e-97
1.21062e-98
9.73179e-100
7.77162e-101
6.16581e-102
4.86016e-103
3.80642e-104
2.96218e-105
2.29064e-106
1.76025e-107
1.34427e-108
1.02027e-109
7.69631e-111
5.77041e-112
4.3004e-113
3.18574e-114
2.34602e-115
1.71747e-116
1.24999e-117
9.04487e-119
6.50718e-120
4.65478e-121
3.31084e-122
2.34169e-123
1.64699e-124
1.15196e-125
8.01293e-127
5.54328e-128
3.81401e-129
2.61007e-130
1.77663e-131
1.2029e-132
8.10153e-134
5.42784e-135
3.61763e-136
2.39869e-137
1.58232e-138
1.03848e-139
6.78106e-141
4.40568e-142
2.84811e-143
1.83207e-144
1.1727e-145
7.46969e-147
4.73482e-148
2.98679e-149
1.87508e-150
1.17155e-151
7.2852e-153
4.50896e-154
2.77765e-155
1.70317e-156
1.03952e-157
6.31556e-159
3.81952e-160
2.29951e-161
1.37818e-162
8.22297e-164
4.88449e-165
2.8886e-166
1.70077e-167
9.97029e-169
5.81945e-170
3.38205e-171
1.95711e-172
1.12771e-173
6.4705e-175
3.69698e-176
2.10347e-177
1.19183e-178
6.72507e-180
3.77911e-181
2.11497e-182
1.17883e-183
6.54395e-185
3.61811e-186
1.99244e-187
1.09286e-188
5.97065e-190
3.24917e-191
1.76126e-192
9.51015e-194
5.1153e-195
2.74084e-196
1.46297e-197
7.7792e-199
4.12089e-200
2.17477e-201
1.14343e-202
5.98952e-204
3.12583e-205
1.62532e-206
8.42021e-208
4.34635e-209
2.23538e-210
1.14555e-211
5.84952e-213
2.9763e-214
1.50901e-215
7.62388e-217
3.83826e-218
1.92564e-219
9.62736e-221
4.79665e-222
2.38163e-223
1.17849e-224
5.81162e-226
2.85626e-227
1.39906e-228
6.82993e-230
3.32313e-231
1.61153e-232
7.7892e-234
3.7525e-235
1.80189e-236
8.62423e-238
4.1144e-239
1.95656e-240
9.27443e-242
4.38223e-243
2.06406e-244
9.6912e-246
4.53593e-247
2.11638e-248
9.84396e-250
4.56455e-251
2.11002e-252
9.72388e-254
4.46751e-255
2.0463e-256
9.34453e-258
4.25438e-259
1.93113e-260
8.73956e-262
3.94345e-263
1.7741e-264
7.95791e-266
3.55915e-267
1.58718e-268
7.05739e-270
3.129e-271
1.3833e-272
6.09791e-274
2.68045e-275
1.17489e-276
5.13525e-278
2.23821e-279
9.72799e-281
4.21631e-282
1.82237e-283
7.85482e-285
3.3763e-286
1.44728e-287
6.18701e-289
2.63771e-290
1.12149e-291
4.7555e-293
2.01108e-294
8.48207e-296
3.56795e-297
1.49687e-298
6.26331e-300
2.61386e-301
1.08799e-302
4.51684e-304
1.87033e-305
7.72467e-307
3.18217e-308
1.30754e-309
5.35893e-311
2.19077e-312
8.9334e-314
3.63364e-315
1.47427e-316
5.96657e-318
2.40842e-319
9.67381e-321
3.80431e-322
4.94066e-324
0
0
0
0
0
0
0
0
0
0
0
0
0
0
0
0
0
0
0
0
0
0
0
0
0
0
0
0
0
0
0
0
0
0
0
0
0
0
0
0
0
0
0
0
0
0
0
0
0
0
0
0
0
0
0
0
0
0
0
0
0
0
0
0
0
0
0
0
0
0
0
0
0
0
0
0
0
0
0
0
0
0
0
0
0
0
0
0
0
0
0
0
0
0
0
0
0
0
0
0
0
0
0
0
0
0
0
0
0
0
0
0
0
0
0
0
0
0
0
0
0
0
0
0
0
0
0
0
0
0
0
0
0
0
0
0
0
0
0
0
0
0
0
)
;

boundaryField
{
    sides
    {
        type            zeroGradient;
    }
    empty
    {
        type            empty;
    }
}


// ************************************************************************* //
