/*--------------------------------*- C++ -*----------------------------------*\
  =========                 |
  \\      /  F ield         | OpenFOAM: The Open Source CFD Toolbox
   \\    /   O peration     | Website:  https://openfoam.org
    \\  /    A nd           | Version:  13
     \\/     M anipulation  |
\*---------------------------------------------------------------------------*/
FoamFile
{
    format      ascii;
    class       volScalarField;
    location    "0.375";
    object      T;
}
// * * * * * * * * * * * * * * * * * * * * * * * * * * * * * * * * * * * * * //

dimensions      [0 0 0 1 0 0 0];

internalField   nonuniform List<scalar> 
1000
(
8.34193e-316
8.42289e-315
9.24409e-314
1.01329e-312
1.10854e-311
1.21036e-310
1.31892e-309
1.43438e-308
1.55685e-307
1.68642e-306
1.82313e-305
1.96698e-304
2.11794e-303
2.2759e-302
2.44073e-301
2.61221e-300
2.79009e-299
2.97403e-298
3.16366e-297
3.35853e-296
3.55811e-295
3.76184e-294
3.96907e-293
4.1791e-292
4.39117e-291
4.60446e-290
4.81809e-289
5.03116e-288
5.24271e-287
5.45173e-286
5.65722e-285
5.85813e-284
6.05341e-283
6.24199e-282
6.42283e-281
6.5949e-280
6.75717e-279
6.90867e-278
7.04848e-277
7.1757e-276
7.28952e-275
7.3892e-274
7.47406e-273
7.54353e-272
7.59711e-271
7.63443e-270
7.65518e-269
7.65919e-268
7.64639e-267
7.61683e-266
7.57064e-265
7.50809e-264
7.42956e-263
7.3355e-262
7.22648e-261
7.10318e-260
6.96634e-259
6.81678e-258
6.6554e-257
6.48317e-256
6.30108e-255
6.1102e-254
5.91161e-253
5.70642e-252
5.49573e-251
5.28067e-250
5.06234e-249
4.84184e-248
4.62022e-247
4.39851e-246
4.17769e-245
3.9587e-244
3.7424e-243
3.52962e-242
3.3211e-241
3.11753e-240
2.9195e-239
2.72757e-238
2.54219e-237
2.36375e-236
2.19257e-235
2.02892e-234
1.87295e-233
1.7248e-232
1.58453e-231
1.45213e-230
1.32755e-229
1.2107e-228
1.10142e-227
9.99555e-227
9.04872e-226
8.17135e-225
7.36077e-224
6.61413e-223
5.92841e-222
5.30051e-221
4.72723e-220
4.20536e-219
3.73167e-218
3.30296e-217
2.91609e-216
2.56799e-215
2.25567e-214
1.97626e-213
1.72702e-212
1.50533e-211
1.30871e-210
1.13483e-209
9.81493e-209
8.46663e-208
7.28447e-207
6.25094e-206
5.34995e-205
4.56675e-204
3.8879e-203
3.30117e-202
2.79553e-201
2.36102e-200
1.98871e-199
1.6706e-198
1.3996e-197
1.16939e-196
9.74399e-196
8.09713e-195
6.71024e-194
5.54569e-193
4.57066e-192
3.75668e-191
3.07913e-190
2.51679e-189
2.05143e-188
1.66745e-187
1.35155e-186
1.09242e-185
8.80488e-185
7.07665e-184
5.67153e-183
4.53247e-182
3.61185e-181
2.86998e-180
2.27394e-179
1.7965e-178
1.4152e-177
1.11159e-176
8.70582e-176
6.79835e-175
5.29326e-174
4.10927e-173
3.18071e-172
2.45469e-171
1.88876e-170
1.44898e-169
1.10828e-168
8.45145e-168
6.42546e-167
4.8704e-166
3.6805e-165
2.77285e-164
2.08267e-163
1.55949e-162
1.16415e-161
8.66351e-161
6.42739e-160
4.75363e-159
3.50478e-158
2.57595e-157
1.88734e-156
1.37846e-155
1.00361e-154
7.28373e-154
5.2694e-153
3.79997e-152
2.73153e-151
1.95719e-150
1.39783e-149
9.95107e-149
7.06108e-148
4.99405e-147
3.52055e-146
2.47366e-145
1.73234e-144
1.20917e-143
8.41198e-143
5.83253e-142
4.03052e-141
2.77589e-140
1.90537e-139
1.30341e-138
8.88603e-138
6.0374e-137
4.08793e-136
2.75844e-135
1.85491e-134
1.24301e-133
8.30075e-133
5.52385e-132
3.66305e-131
2.42055e-130
1.59386e-129
1.0458e-128
6.83748e-128
4.45443e-127
2.89154e-126
1.87025e-125
1.20531e-124
7.73967e-124
4.95178e-123
3.15652e-122
2.00475e-121
1.26856e-120
7.9974e-120
5.0231e-119
3.14321e-118
1.9595e-117
1.21697e-116
7.52966e-116
4.64109e-115
2.84977e-114
1.74315e-113
1.06217e-112
6.44722e-112
3.89824e-111
2.34788e-110
1.40859e-109
8.41759e-109
5.01048e-108
2.97066e-107
1.75428e-106
1.03184e-105
6.0448e-105
3.52699e-104
2.0496e-103
1.18624e-102
6.83758e-102
3.92513e-101
2.24398e-100
1.27758e-99
7.24359e-99
4.08987e-98
2.29957e-97
1.28753e-96
7.17848e-96
3.98534e-95
2.20316e-94
1.21274e-93
6.64691e-93
3.6274e-92
1.971e-91
1.06631e-90
5.74352e-90
3.08008e-89
1.64447e-88
8.74096e-88
4.62547e-87
2.43672e-86
1.2779e-85
6.67154e-85
3.4672e-84
1.7937e-83
9.23687e-83
4.73476e-82
2.41579e-81
1.22687e-80
6.20159e-80
3.1201e-79
1.56236e-78
7.78633e-78
3.86201e-77
1.90639e-76
9.36519e-76
4.57847e-75
2.22746e-74
1.07839e-73
5.19529e-73
2.49056e-72
1.18804e-71
5.63892e-71
2.66308e-70
1.25136e-69
5.85037e-69
2.72127e-68
1.25932e-67
5.79788e-67
2.65556e-66
1.21e-65
5.4846e-65
2.473e-64
1.1092e-63
4.94868e-63
2.1961e-62
9.69362e-62
4.25576e-61
1.85829e-60
8.07014e-60
3.48553e-59
1.49715e-58
6.39517e-58
2.71657e-57
1.14751e-56
4.82e-56
2.01315e-55
8.36051e-55
3.45225e-54
1.41733e-53
5.78525e-53
2.34771e-52
9.47162e-52
3.79879e-51
1.51458e-50
6.0028e-50
2.3649e-49
9.26089e-49
3.60463e-48
1.39451e-47
5.36188e-47
2.04897e-46
7.7814e-46
2.93677e-45
1.10143e-44
4.10485e-44
1.52013e-43
5.59356e-43
2.04505e-42
7.42864e-42
2.68095e-41
9.61224e-41
3.42373e-40
1.21143e-39
4.25792e-39
1.48657e-38
5.15514e-38
1.7756e-37
6.07412e-37
2.06364e-36
6.96272e-36
2.33292e-35
7.76206e-35
2.56443e-34
8.41248e-34
2.74003e-33
8.86062e-33
2.84467e-32
9.06647e-32
2.86855e-31
9.00917e-31
2.80856e-30
8.69036e-30
2.66887e-29
8.13448e-29
2.46051e-28
7.38566e-28
2.1999e-27
6.50193e-27
1.90672e-26
5.54768e-26
1.60138e-25
4.58581e-25
1.30271e-24
3.67089e-24
1.02603e-23
2.84441e-23
7.82066e-23
2.1325e-22
5.76641e-22
1.54621e-21
4.11104e-21
1.08376e-20
2.8326e-20
7.33983e-20
1.88542e-19
4.80092e-19
1.21175e-18
3.03142e-18
7.51618e-18
1.84689e-17
4.4973e-17
1.08518e-16
2.59457e-16
6.14634e-16
1.44254e-15
3.35406e-15
7.7254e-15
1.76258e-14
3.98319e-14
8.9153e-14
1.97623e-13
4.33821e-13
9.43029e-13
2.02981e-12
4.32585e-12
9.12744e-12
1.9066e-11
3.94252e-11
8.06986e-11
1.63497e-10
3.27851e-10
6.50638e-10
1.27783e-09
2.4834e-09
4.77572e-09
9.087e-09
1.71067e-08
3.18603e-08
5.87011e-08
1.06987e-07
1.92876e-07
3.43924e-07
6.06547e-07
1.05793e-06
1.82482e-06
3.11264e-06
5.25007e-06
8.75601e-06
1.44389e-05
2.35411e-05
3.79464e-05
6.04709e-05
9.52662e-05
0.000148366
0.000228411
0.000347598
0.000522882
0.000777479
0.00114268
0.00165999
0.00238358
0.00338295
0.00474575
0.00658052
0.00901924
0.0122192
0.016364
0.0216635
0.0283516
0.0366827
0.0469252
0.0593533
0.0742359
0.0918238
0.112335
0.135941
0.162749
0.19279
0.226008
0.262252
0.301271
0.34272
0.386162
0.431087
0.476926
0.523074
0.568913
0.613838
0.65728
0.698729
0.737748
0.773992
0.80721
0.837251
0.864059
0.887665
0.908176
0.925764
0.940647
0.953075
0.963317
0.971648
0.978337
0.983636
0.987781
0.990981
0.993419
0.995254
0.996617
0.997616
0.99834
0.998857
0.999223
0.999477
0.999652
0.999772
0.999852
0.999905
0.99994
0.999962
0.999976
0.999986
0.999991
0.999995
0.999997
0.999998
0.999999
0.999999
1
1
1
1
1
1
1
1
1
1
1
1
1
1
0.999999
0.999999
0.999998
0.999997
0.999995
0.999991
0.999986
0.999976
0.999962
0.99994
0.999905
0.999852
0.999772
0.999652
0.999477
0.999223
0.998857
0.99834
0.997616
0.996617
0.995254
0.993419
0.990981
0.987781
0.983636
0.978337
0.971648
0.963317
0.953075
0.940647
0.925764
0.908176
0.887665
0.864059
0.837251
0.80721
0.773992
0.737748
0.698729
0.65728
0.613838
0.568913
0.523074
0.476926
0.431087
0.386162
0.34272
0.301271
0.262252
0.226008
0.19279
0.162749
0.135941
0.112335
0.0918238
0.0742359
0.0593533
0.0469252
0.0366827
0.0283516
0.0216635
0.016364
0.0122192
0.00901924
0.00658052
0.00474575
0.00338295
0.00238358
0.00165999
0.00114268
0.000777479
0.000522882
0.000347598
0.000228411
0.000148366
9.52662e-05
6.04709e-05
3.79464e-05
2.35411e-05
1.44389e-05
8.75601e-06
5.25007e-06
3.11264e-06
1.82482e-06
1.05793e-06
6.06547e-07
3.43924e-07
1.92876e-07
1.06987e-07
5.87011e-08
3.18603e-08
1.71067e-08
9.087e-09
4.77572e-09
2.4834e-09
1.27783e-09
6.50638e-10
3.27851e-10
1.63497e-10
8.06986e-11
3.94252e-11
1.9066e-11
9.12744e-12
4.32585e-12
2.02981e-12
9.43029e-13
4.33821e-13
1.97623e-13
8.9153e-14
3.98319e-14
1.76258e-14
7.7254e-15
3.35406e-15
1.44254e-15
6.14634e-16
2.59457e-16
1.08518e-16
4.4973e-17
1.84689e-17
7.51618e-18
3.03142e-18
1.21175e-18
4.80092e-19
1.88542e-19
7.33983e-20
2.8326e-20
1.08376e-20
4.11104e-21
1.54621e-21
5.76641e-22
2.1325e-22
7.82066e-23
2.84441e-23
1.02603e-23
3.67089e-24
1.30271e-24
4.58581e-25
1.60138e-25
5.54768e-26
1.90672e-26
6.50193e-27
2.1999e-27
7.38566e-28
2.46051e-28
8.13448e-29
2.66887e-29
8.69036e-30
2.80856e-30
9.00917e-31
2.86855e-31
9.06647e-32
2.84467e-32
8.86062e-33
2.74003e-33
8.41248e-34
2.56443e-34
7.76206e-35
2.33292e-35
6.96272e-36
2.06364e-36
6.07412e-37
1.7756e-37
5.15514e-38
1.48657e-38
4.25792e-39
1.21143e-39
3.42373e-40
9.61224e-41
2.68095e-41
7.42864e-42
2.04505e-42
5.59356e-43
1.52013e-43
4.10485e-44
1.10143e-44
2.93677e-45
7.7814e-46
2.04897e-46
5.36188e-47
1.39451e-47
3.60463e-48
9.26089e-49
2.3649e-49
6.0028e-50
1.51458e-50
3.79879e-51
9.47162e-52
2.34771e-52
5.78525e-53
1.41733e-53
3.45225e-54
8.36051e-55
2.01315e-55
4.82e-56
1.14751e-56
2.71657e-57
6.39517e-58
1.49715e-58
3.48553e-59
8.07014e-60
1.85829e-60
4.25576e-61
9.69362e-62
2.1961e-62
4.94868e-63
1.1092e-63
2.473e-64
5.4846e-65
1.21e-65
2.65556e-66
5.79788e-67
1.25932e-67
2.72127e-68
5.85037e-69
1.25136e-69
2.66308e-70
5.63892e-71
1.18804e-71
2.49056e-72
5.19529e-73
1.07839e-73
2.22746e-74
4.57847e-75
9.36519e-76
1.90639e-76
3.86201e-77
7.78633e-78
1.56236e-78
3.1201e-79
6.20159e-80
1.22687e-80
2.41579e-81
4.73476e-82
9.23687e-83
1.7937e-83
3.4672e-84
6.67154e-85
1.2779e-85
2.43672e-86
4.62547e-87
8.74096e-88
1.64447e-88
3.08008e-89
5.74352e-90
1.06631e-90
1.971e-91
3.6274e-92
6.64691e-93
1.21274e-93
2.20316e-94
3.98534e-95
7.17848e-96
1.28753e-96
2.29957e-97
4.08987e-98
7.24359e-99
1.27758e-99
2.24398e-100
3.92513e-101
6.83758e-102
1.18624e-102
2.0496e-103
3.52699e-104
6.0448e-105
1.03184e-105
1.75428e-106
2.97066e-107
5.01048e-108
8.41759e-109
1.40859e-109
2.34788e-110
3.89824e-111
6.44722e-112
1.06217e-112
1.74315e-113
2.84977e-114
4.64109e-115
7.52966e-116
1.21697e-116
1.9595e-117
3.14321e-118
5.0231e-119
7.9974e-120
1.26856e-120
2.00475e-121
3.15652e-122
4.95178e-123
7.73967e-124
1.20531e-124
1.87025e-125
2.89154e-126
4.45443e-127
6.83748e-128
1.0458e-128
1.59386e-129
2.42055e-130
3.66305e-131
5.52385e-132
8.30075e-133
1.24301e-133
1.85491e-134
2.75844e-135
4.08793e-136
6.0374e-137
8.88603e-138
1.30341e-138
1.90537e-139
2.77589e-140
4.03052e-141
5.83253e-142
8.41198e-143
1.20917e-143
1.73234e-144
2.47366e-145
3.52055e-146
4.99405e-147
7.06108e-148
9.95107e-149
1.39783e-149
1.95719e-150
2.73153e-151
3.79997e-152
5.2694e-153
7.28373e-154
1.00361e-154
1.37846e-155
1.88734e-156
2.57595e-157
3.50478e-158
4.75363e-159
6.42739e-160
8.66351e-161
1.16415e-161
1.55949e-162
2.08267e-163
2.77285e-164
3.6805e-165
4.8704e-166
6.42546e-167
8.45145e-168
1.10828e-168
1.44898e-169
1.88876e-170
2.45469e-171
3.18071e-172
4.10927e-173
5.29326e-174
6.79835e-175
8.70582e-176
1.11159e-176
1.4152e-177
1.7965e-178
2.27394e-179
2.86998e-180
3.61185e-181
4.53247e-182
5.67153e-183
7.07665e-184
8.80488e-185
1.09242e-185
1.35155e-186
1.66745e-187
2.05143e-188
2.51679e-189
3.07913e-190
3.75668e-191
4.57066e-192
5.54569e-193
6.71024e-194
8.09713e-195
9.74399e-196
1.16939e-196
1.3996e-197
1.6706e-198
1.98871e-199
2.36102e-200
2.79553e-201
3.30117e-202
3.8879e-203
4.56675e-204
5.34995e-205
6.25094e-206
7.28447e-207
8.46663e-208
9.81493e-209
1.13483e-209
1.30871e-210
1.50533e-211
1.72702e-212
1.97626e-213
2.25567e-214
2.56799e-215
2.91609e-216
3.30296e-217
3.73167e-218
4.20536e-219
4.72723e-220
5.30051e-221
5.92841e-222
6.61413e-223
7.36077e-224
8.17135e-225
9.04872e-226
9.99555e-227
1.10142e-227
1.2107e-228
1.32755e-229
1.45213e-230
1.58453e-231
1.7248e-232
1.87295e-233
2.02892e-234
2.19257e-235
2.36375e-236
2.54219e-237
2.72757e-238
2.9195e-239
3.11753e-240
3.3211e-241
3.52962e-242
3.7424e-243
3.9587e-244
4.17769e-245
4.39851e-246
4.62022e-247
4.84184e-248
5.06234e-249
5.28067e-250
5.49573e-251
5.70642e-252
5.91161e-253
6.1102e-254
6.30108e-255
6.48317e-256
6.6554e-257
6.81678e-258
6.96634e-259
7.10318e-260
7.22648e-261
7.3355e-262
7.42956e-263
7.50809e-264
7.57064e-265
7.61683e-266
7.64639e-267
7.65919e-268
7.65518e-269
7.63443e-270
7.59711e-271
7.54353e-272
7.47406e-273
7.3892e-274
7.28952e-275
7.1757e-276
7.04848e-277
6.90867e-278
6.75717e-279
6.5949e-280
6.42283e-281
6.24199e-282
6.05341e-283
5.85813e-284
5.65722e-285
5.45173e-286
5.24271e-287
5.03116e-288
4.81809e-289
4.60446e-290
4.39117e-291
4.1791e-292
3.96907e-293
3.76184e-294
3.55811e-295
3.35853e-296
3.16366e-297
2.97403e-298
2.79009e-299
2.61221e-300
2.44073e-301
2.2759e-302
2.11794e-303
1.96698e-304
1.82313e-305
1.68642e-306
1.55685e-307
1.43438e-308
1.31892e-309
1.21036e-310
1.10854e-311
1.01329e-312
9.24409e-314
8.42289e-315
8.34193e-316
)
;

boundaryField
{
    sides
    {
        type            zeroGradient;
    }
    empty
    {
        type            empty;
    }
}


// ************************************************************************* //
