/*--------------------------------*- C++ -*----------------------------------*\
  =========                 |
  \\      /  F ield         | OpenFOAM: The Open Source CFD Toolbox
   \\    /   O peration     | Website:  https://openfoam.org
    \\  /    A nd           | Version:  13
     \\/     M anipulation  |
\*---------------------------------------------------------------------------*/
FoamFile
{
    format      ascii;
    class       volScalarField;
    location    "0.805";
    object      T;
}
// * * * * * * * * * * * * * * * * * * * * * * * * * * * * * * * * * * * * * //

dimensions      [0 0 0 1 0 0 0];

internalField   nonuniform List<scalar> 
1000
(
2.39108e-204
1.13445e-203
6.26403e-203
3.47059e-202
1.91939e-201
1.0594e-200
5.8357e-200
3.20815e-199
1.76014e-198
9.63753e-198
5.26636e-197
2.87196e-196
1.56304e-195
8.48945e-195
4.60159e-194
2.48916e-193
1.34373e-192
7.23909e-192
3.89194e-191
2.08813e-190
1.11804e-189
5.9739e-189
3.1854e-188
1.695e-187
9.00069e-187
4.76956e-186
2.52218e-185
1.33097e-184
7.0089e-184
3.68316e-183
1.93143e-182
1.0107e-181
5.27776e-181
2.75016e-180
1.43003e-179
7.4201e-179
3.84193e-178
1.985e-177
1.0234e-176
5.26498e-176
2.70281e-175
1.38452e-174
7.07696e-174
3.60956e-173
1.83704e-172
9.32914e-172
4.72735e-171
2.39026e-170
1.20594e-169
6.07086e-169
3.04946e-168
1.5284e-167
7.64354e-167
3.81408e-166
1.89899e-165
9.43388e-165
4.67617e-164
2.31271e-163
1.14125e-162
5.61907e-162
2.7604e-161
1.35301e-160
6.61684e-160
3.22861e-159
1.5718e-158
7.63464e-158
3.69991e-157
1.78896e-156
8.63011e-156
4.1537e-155
1.99459e-154
9.55591e-154
4.56757e-153
2.17818e-152
1.03631e-151
4.91902e-151
2.32945e-150
1.10055e-149
5.18741e-149
2.43932e-148
1.14437e-147
5.35594e-147
2.50079e-146
1.1649e-145
5.41338e-145
2.50964e-144
1.16069e-143
5.35527e-143
2.46492e-142
1.13182e-141
5.1845e-141
2.36911e-140
1.07996e-139
4.91108e-139
2.22786e-138
1.00818e-137
4.55116e-137
2.04947e-136
9.20647e-136
4.12546e-135
1.84407e-134
8.22256e-134
3.65727e-133
1.62265e-132
7.18136e-132
3.17031e-131
1.39607e-130
6.13224e-130
2.6868e-129
1.17423e-128
5.11884e-128
2.22579e-127
9.65365e-127
4.17627e-126
1.80208e-125
7.7561e-125
3.32962e-124
1.42569e-123
6.08883e-123
2.59367e-122
1.10196e-121
4.66966e-121
1.97365e-120
8.31985e-120
3.49801e-119
1.46684e-118
6.13473e-118
2.55894e-117
1.06456e-116
4.41699e-116
1.82777e-115
7.54322e-115
3.10475e-114
1.27446e-113
5.21745e-113
2.13017e-112
8.67347e-112
3.52202e-111
1.42629e-110
5.76017e-110
2.31992e-109
9.31793e-109
3.73223e-108
1.4908e-107
5.93837e-107
2.3589e-106
9.34421e-106
3.69116e-105
1.45402e-104
5.71157e-104
2.23728e-103
8.73897e-103
3.40385e-102
1.32206e-101
5.12028e-101
1.97742e-100
7.61485e-100
2.92401e-99
1.11956e-98
4.27429e-98
1.62714e-97
6.17626e-97
2.33757e-96
8.82138e-96
3.31925e-95
1.24529e-94
4.65825e-94
1.73738e-93
6.46077e-93
2.39544e-92
8.85517e-92
3.26372e-91
1.19931e-90
4.39386e-90
1.60493e-89
5.84465e-89
2.12201e-88
7.68101e-88
2.77185e-87
9.97233e-87
3.57681e-86
1.27898e-85
4.55928e-85
1.62028e-84
5.74035e-84
2.02741e-83
7.13828e-83
2.50548e-82
8.76657e-82
3.05778e-81
1.0632e-80
3.68515e-80
1.27327e-79
4.38537e-79
1.5056e-78
5.15263e-78
1.75775e-77
5.97708e-77
2.02592e-76
6.8447e-76
2.30504e-75
7.73735e-75
2.58876e-74
8.63317e-74
2.86963e-73
9.50722e-73
3.13942e-72
1.03326e-71
3.38945e-71
1.10816e-70
3.61101e-70
1.17274e-69
3.7959e-69
1.22452e-68
3.93689e-68
1.26144e-67
4.02817e-67
1.28194e-66
4.06577e-66
1.28508e-65
4.04783e-65
1.27063e-64
3.97477e-64
1.23908e-63
3.84923e-63
1.19161e-62
3.67596e-62
1.13001e-61
3.46152e-61
1.05661e-60
3.21384e-60
9.74067e-60
2.94174e-59
8.85252e-59
2.65443e-58
7.9307e-58
2.36093e-57
7.00299e-57
2.06969e-56
6.09459e-56
1.78812e-55
5.22703e-55
1.52236e-54
4.41749e-54
1.27711e-53
3.67846e-53
1.05557e-52
3.01777e-52
8.59524e-52
2.43891e-51
6.89441e-51
1.94158e-50
5.44709e-50
1.52237e-49
4.23856e-49
1.17558e-48
3.248e-48
8.93937e-48
2.45085e-47
6.69335e-47
1.82087e-46
4.93422e-46
1.33186e-45
3.58089e-45
9.58984e-45
2.55809e-44
6.79667e-44
1.79866e-43
4.74098e-43
1.24465e-42
3.25449e-42
8.47556e-42
2.19836e-41
5.67892e-41
1.46106e-40
3.74365e-40
9.55311e-40
2.42779e-39
6.14451e-39
1.5487e-38
3.8873e-38
9.71674e-38
2.41869e-37
5.99546e-37
1.47993e-36
3.63771e-36
8.90389e-36
2.17015e-35
5.26686e-35
1.2728e-34
3.06274e-34
7.33828e-34
1.75068e-33
4.15856e-33
9.83547e-33
2.3161e-32
5.43033e-32
1.26763e-31
2.94613e-31
6.81708e-31
1.57045e-30
3.60186e-30
8.22424e-30
1.86951e-29
4.23074e-29
9.53135e-29
2.13765e-28
4.77262e-28
1.06074e-27
2.34685e-27
5.16871e-27
1.13316e-26
2.47291e-26
5.37186e-26
1.16155e-25
2.49998e-25
5.35572e-25
1.14202e-24
2.42383e-24
5.12026e-24
1.07656e-23
2.25287e-23
4.69223e-23
9.72656e-23
2.00665e-22
4.12012e-22
8.41912e-22
1.71213e-21
3.46509e-21
6.97899e-21
1.39883e-20
2.79013e-20
5.53817e-20
1.09392e-19
2.15016e-19
4.20552e-19
8.18515e-19
1.5852e-18
3.05482e-18
5.85767e-18
1.11763e-17
2.12175e-17
4.00786e-17
7.53257e-17
1.40858e-16
2.62072e-16
4.85128e-16
8.93471e-16
1.63715e-15
2.9845e-15
5.41287e-15
9.76672e-15
1.75319e-14
3.13085e-14
5.56217e-14
9.8303e-14
1.72833e-13
3.02284e-13
5.2593e-13
9.10249e-13
1.56713e-12
2.68385e-12
4.57208e-12
7.74756e-12
1.30589e-11
2.18945e-11
3.65127e-11
6.05659e-11
9.99268e-11
1.63984e-10
2.67657e-10
4.34522e-10
7.01608e-10
1.12674e-09
1.79966e-09
2.85886e-09
4.51676e-09
7.09721e-09
1.1091e-08
1.72373e-08
2.6643e-08
4.0955e-08
6.26087e-08
9.51839e-08
1.4391e-07
2.16377e-07
3.23535e-07
4.81083e-07
7.1138e-07
1.04608e-06
1.52969e-06
2.22442e-06
3.21665e-06
4.62551e-06
6.61428e-06
9.40526e-06
1.32991e-05
1.86997e-05
2.61461e-05
3.63528e-05
5.02604e-05
6.90988e-05
9.4465e-05
0.000128418
0.000173595
0.000233347
0.000311907
0.000414575
0.000547947
0.000720167
0.000941214
0.00122322
0.00158084
0.0020316
0.00259634
0.00329957
0.00416997
0.00524073
0.00654997
0.00814107
0.0100629
0.0123701
0.015123
0.0183876
0.0222354
0.0267427
0.0319902
0.0380619
0.0450441
0.0530239
0.0620879
0.0723197
0.0837988
0.0965975
0.11078
0.126397
0.14349
0.162081
0.182176
0.203762
0.226808
0.251257
0.277037
0.304049
0.332177
0.361286
0.391223
0.42182
0.452897
0.484266
0.515734
0.547103
0.57818
0.608777
0.638714
0.667823
0.695951
0.722963
0.748743
0.773192
0.796238
0.817824
0.837919
0.85651
0.873603
0.88922
0.903402
0.916201
0.92768
0.937912
0.946976
0.954956
0.961938
0.96801
0.973257
0.977765
0.981612
0.984877
0.98763
0.989937
0.991859
0.99345
0.994759
0.99583
0.9967
0.997403
0.997968
0.998419
0.998776
0.999058
0.999278
0.99945
0.999582
0.999683
0.99976
0.999817
0.999858
0.999887
0.999905
0.999913
0.999913
0.999905
0.999887
0.999858
0.999817
0.99976
0.999683
0.999582
0.99945
0.999278
0.999058
0.998776
0.998419
0.997968
0.997403
0.9967
0.99583
0.994759
0.99345
0.991859
0.989937
0.98763
0.984877
0.981612
0.977765
0.973257
0.96801
0.961938
0.954956
0.946976
0.937912
0.92768
0.916201
0.903402
0.88922
0.873603
0.85651
0.837919
0.817824
0.796238
0.773192
0.748743
0.722963
0.695951
0.667823
0.638714
0.608777
0.57818
0.547103
0.515734
0.484266
0.452897
0.42182
0.391223
0.361286
0.332177
0.304049
0.277037
0.251257
0.226808
0.203762
0.182176
0.162081
0.14349
0.126397
0.11078
0.0965975
0.0837988
0.0723197
0.0620879
0.0530239
0.0450441
0.0380619
0.0319902
0.0267427
0.0222354
0.0183876
0.015123
0.0123701
0.0100629
0.00814107
0.00654997
0.00524073
0.00416997
0.00329957
0.00259634
0.0020316
0.00158084
0.00122322
0.000941214
0.000720167
0.000547947
0.000414575
0.000311907
0.000233347
0.000173595
0.000128418
9.4465e-05
6.90988e-05
5.02604e-05
3.63528e-05
2.61461e-05
1.86997e-05
1.32991e-05
9.40526e-06
6.61428e-06
4.62551e-06
3.21665e-06
2.22442e-06
1.52969e-06
1.04608e-06
7.1138e-07
4.81083e-07
3.23535e-07
2.16377e-07
1.4391e-07
9.51839e-08
6.26087e-08
4.0955e-08
2.6643e-08
1.72373e-08
1.1091e-08
7.09721e-09
4.51676e-09
2.85886e-09
1.79966e-09
1.12674e-09
7.01608e-10
4.34522e-10
2.67657e-10
1.63984e-10
9.99268e-11
6.05659e-11
3.65127e-11
2.18945e-11
1.30589e-11
7.74756e-12
4.57208e-12
2.68385e-12
1.56713e-12
9.10249e-13
5.2593e-13
3.02284e-13
1.72833e-13
9.8303e-14
5.56217e-14
3.13085e-14
1.75319e-14
9.76672e-15
5.41287e-15
2.9845e-15
1.63715e-15
8.93471e-16
4.85128e-16
2.62072e-16
1.40858e-16
7.53257e-17
4.00786e-17
2.12175e-17
1.11763e-17
5.85767e-18
3.05482e-18
1.5852e-18
8.18515e-19
4.20552e-19
2.15016e-19
1.09392e-19
5.53817e-20
2.79013e-20
1.39883e-20
6.97899e-21
3.46509e-21
1.71213e-21
8.41912e-22
4.12012e-22
2.00665e-22
9.72656e-23
4.69223e-23
2.25287e-23
1.07656e-23
5.12026e-24
2.42383e-24
1.14202e-24
5.35572e-25
2.49998e-25
1.16155e-25
5.37186e-26
2.47291e-26
1.13316e-26
5.16871e-27
2.34685e-27
1.06074e-27
4.77262e-28
2.13765e-28
9.53135e-29
4.23074e-29
1.86951e-29
8.22424e-30
3.60186e-30
1.57045e-30
6.81708e-31
2.94613e-31
1.26763e-31
5.43033e-32
2.3161e-32
9.83547e-33
4.15856e-33
1.75068e-33
7.33828e-34
3.06274e-34
1.2728e-34
5.26686e-35
2.17015e-35
8.90389e-36
3.63771e-36
1.47993e-36
5.99546e-37
2.41869e-37
9.71674e-38
3.8873e-38
1.5487e-38
6.14451e-39
2.42779e-39
9.55311e-40
3.74365e-40
1.46106e-40
5.67892e-41
2.19836e-41
8.47556e-42
3.25449e-42
1.24465e-42
4.74098e-43
1.79866e-43
6.79667e-44
2.55809e-44
9.58984e-45
3.58089e-45
1.33186e-45
4.93422e-46
1.82087e-46
6.69335e-47
2.45085e-47
8.93937e-48
3.248e-48
1.17558e-48
4.23856e-49
1.52237e-49
5.44709e-50
1.94158e-50
6.89441e-51
2.43891e-51
8.59524e-52
3.01777e-52
1.05557e-52
3.67846e-53
1.27711e-53
4.41749e-54
1.52236e-54
5.22703e-55
1.78812e-55
6.09459e-56
2.06969e-56
7.00299e-57
2.36093e-57
7.9307e-58
2.65443e-58
8.85252e-59
2.94174e-59
9.74067e-60
3.21384e-60
1.05661e-60
3.46152e-61
1.13001e-61
3.67596e-62
1.19161e-62
3.84923e-63
1.23908e-63
3.97477e-64
1.27063e-64
4.04783e-65
1.28508e-65
4.06577e-66
1.28194e-66
4.02817e-67
1.26144e-67
3.93689e-68
1.22452e-68
3.7959e-69
1.17274e-69
3.61101e-70
1.10816e-70
3.38945e-71
1.03326e-71
3.13942e-72
9.50722e-73
2.86963e-73
8.63317e-74
2.58876e-74
7.73735e-75
2.30504e-75
6.8447e-76
2.02592e-76
5.97708e-77
1.75775e-77
5.15263e-78
1.5056e-78
4.38537e-79
1.27327e-79
3.68515e-80
1.0632e-80
3.05778e-81
8.76657e-82
2.50548e-82
7.13828e-83
2.02741e-83
5.74035e-84
1.62028e-84
4.55928e-85
1.27898e-85
3.57681e-86
9.97233e-87
2.77185e-87
7.68101e-88
2.12201e-88
5.84465e-89
1.60493e-89
4.39386e-90
1.19931e-90
3.26372e-91
8.85517e-92
2.39544e-92
6.46077e-93
1.73738e-93
4.65825e-94
1.24529e-94
3.31925e-95
8.82138e-96
2.33757e-96
6.17626e-97
1.62714e-97
4.27429e-98
1.11956e-98
2.92401e-99
7.61485e-100
1.97742e-100
5.12028e-101
1.32206e-101
3.40385e-102
8.73897e-103
2.23728e-103
5.71157e-104
1.45402e-104
3.69116e-105
9.34421e-106
2.3589e-106
5.93837e-107
1.4908e-107
3.73223e-108
9.31793e-109
2.31992e-109
5.76017e-110
1.42629e-110
3.52202e-111
8.67347e-112
2.13017e-112
5.21745e-113
1.27446e-113
3.10475e-114
7.54322e-115
1.82777e-115
4.41699e-116
1.06456e-116
2.55894e-117
6.13473e-118
1.46684e-118
3.49801e-119
8.31985e-120
1.97365e-120
4.66966e-121
1.10196e-121
2.59367e-122
6.08883e-123
1.42569e-123
3.32962e-124
7.7561e-125
1.80208e-125
4.17627e-126
9.65365e-127
2.22579e-127
5.11884e-128
1.17423e-128
2.6868e-129
6.13224e-130
1.39607e-130
3.17031e-131
7.18136e-132
1.62265e-132
3.65727e-133
8.22256e-134
1.84407e-134
4.12546e-135
9.20647e-136
2.04947e-136
4.55116e-137
1.00818e-137
2.22786e-138
4.91108e-139
1.07996e-139
2.36911e-140
5.1845e-141
1.13182e-141
2.46492e-142
5.35527e-143
1.16069e-143
2.50964e-144
5.41338e-145
1.1649e-145
2.50079e-146
5.35594e-147
1.14437e-147
2.43932e-148
5.18741e-149
1.10055e-149
2.32945e-150
4.91902e-151
1.03631e-151
2.17818e-152
4.56757e-153
9.55591e-154
1.99459e-154
4.1537e-155
8.63011e-156
1.78896e-156
3.69991e-157
7.63464e-158
1.5718e-158
3.22861e-159
6.61684e-160
1.35301e-160
2.7604e-161
5.61907e-162
1.14125e-162
2.31271e-163
4.67617e-164
9.43388e-165
1.89899e-165
3.81408e-166
7.64354e-167
1.5284e-167
3.04946e-168
6.07086e-169
1.20594e-169
2.39026e-170
4.72735e-171
9.32914e-172
1.83704e-172
3.60956e-173
7.07696e-174
1.38452e-174
2.70281e-175
5.26498e-176
1.0234e-176
1.985e-177
3.84193e-178
7.4201e-179
1.43003e-179
2.75016e-180
5.27776e-181
1.0107e-181
1.93143e-182
3.68316e-183
7.0089e-184
1.33097e-184
2.52218e-185
4.76956e-186
9.00069e-187
1.695e-187
3.1854e-188
5.9739e-189
1.11804e-189
2.08813e-190
3.89194e-191
7.23909e-192
1.34373e-192
2.48916e-193
4.60159e-194
8.48945e-195
1.56304e-195
2.87196e-196
5.26636e-197
9.63753e-198
1.76014e-198
3.20815e-199
5.8357e-200
1.0594e-200
1.91939e-201
3.47059e-202
6.26403e-203
1.13445e-203
2.39108e-204
)
;

boundaryField
{
    sides
    {
        type            zeroGradient;
    }
    empty
    {
        type            empty;
    }
}


// ************************************************************************* //
