/*--------------------------------*- C++ -*----------------------------------*\
  =========                 |
  \\      /  F ield         | OpenFOAM: The Open Source CFD Toolbox
   \\    /   O peration     | Website:  https://openfoam.org
    \\  /    A nd           | Version:  13
     \\/     M anipulation  |
\*---------------------------------------------------------------------------*/
FoamFile
{
    format      ascii;
    class       volScalarField;
    location    "2.98";
    object      T;
}
// * * * * * * * * * * * * * * * * * * * * * * * * * * * * * * * * * * * * * //

dimensions      [0 0 0 1 0 0 0];

internalField   nonuniform List<scalar> 
1000
(
1.11014e-72
1.66866e-72
3.0634e-72
5.98611e-72
1.18816e-71
2.36532e-71
4.70757e-71
9.35927e-71
1.8584e-70
3.68527e-70
7.29832e-70
1.44344e-69
2.85101e-69
5.62367e-69
1.1078e-68
2.17934e-68
4.28161e-68
8.4006e-68
1.64601e-67
3.22087e-67
6.29407e-67
1.22831e-66
2.39388e-66
4.65923e-66
9.0561e-66
1.75786e-65
3.40756e-65
6.59656e-65
1.27528e-64
2.46211e-64
4.74705e-64
9.14013e-64
1.75749e-63
3.37479e-63
6.47161e-63
1.23933e-62
2.37015e-62
4.5266e-62
8.63335e-62
1.64435e-61
3.12766e-61
5.94091e-61
1.12692e-60
2.13472e-60
4.03828e-60
7.62883e-60
1.43921e-59
2.71142e-59
5.10123e-59
9.58422e-59
1.79822e-58
3.36924e-58
6.30412e-58
1.17793e-57
2.19794e-57
4.09558e-57
7.62105e-57
1.41617e-56
2.62794e-56
4.86985e-56
9.01188e-56
1.66538e-55
3.07333e-55
5.66375e-55
1.04231e-54
1.91551e-54
3.51535e-54
6.44243e-54
1.17903e-53
2.15475e-53
3.93244e-53
7.16674e-53
1.30429e-52
2.3704e-52
4.30189e-52
7.79633e-52
1.41095e-51
2.54992e-51
4.60183e-51
8.29326e-51
1.49248e-50
2.68215e-50
4.81333e-50
8.62575e-50
1.5436e-49
2.75843e-49
4.92238e-49
8.77151e-49
1.56085e-48
2.77352e-48
4.92139e-48
8.72024e-48
1.54296e-47
2.72623e-47
4.8101e-47
8.47479e-47
1.49103e-46
2.61954e-46
4.59563e-46
8.05093e-46
1.40841e-45
2.46031e-45
4.29171e-45
7.47567e-45
1.30032e-44
2.25853e-44
3.91724e-44
6.78441e-44
1.17333e-43
2.02631e-43
3.49435e-43
6.0173e-43
1.0347e-42
1.77664e-42
3.0462e-42
5.21544e-42
8.91655e-42
1.52221e-41
2.59493e-41
4.41722e-41
7.50833e-41
1.27441e-40
2.15995e-40
3.65551e-40
6.17764e-40
1.04248e-39
1.75662e-39
2.95569e-39
4.96601e-39
8.33149e-39
1.39574e-38
2.33482e-38
3.90003e-38
6.505e-38
1.08341e-37
1.80178e-37
2.9921e-37
4.9615e-37
8.21511e-37
1.35824e-36
2.24235e-36
3.6965e-36
6.08471e-36
1.00011e-35
1.64142e-35
2.69e-35
4.40193e-35
7.19272e-35
1.17355e-34
1.91192e-34
3.11025e-34
5.05217e-34
8.19443e-34
1.32714e-33
2.14619e-33
3.4656e-33
5.58783e-33
8.99628e-33
1.44623e-32
2.32148e-32
3.7209e-32
5.95503e-32
9.51639e-32
1.5185e-31
2.41939e-31
3.84903e-31
6.11431e-31
9.69828e-31
1.536e-30
2.42907e-30
3.83563e-30
6.04759e-30
9.52089e-30
1.49665e-29
2.34916e-29
3.68172e-29
5.76152e-29
9.00263e-29
1.40459e-28
2.18813e-28
3.40364e-28
5.2864e-28
8.19823e-28
1.26948e-27
1.96279e-27
3.03016e-27
4.6709e-27
7.18918e-27
1.10484e-26
1.69536e-26
2.59756e-26
3.97385e-26
6.07012e-26
9.25815e-26
1.40991e-25
2.14386e-25
3.25494e-25
4.93432e-25
7.46879e-25
1.12878e-24
1.70337e-24
2.56653e-24
3.86118e-24
5.80002e-24
8.69913e-24
1.30274e-23
1.94794e-23
2.90823e-23
4.33528e-23
6.45267e-23
9.58949e-23
1.42294e-22
2.10819e-22
3.11865e-22
4.60633e-22
6.79324e-22
1.0003e-21
1.47067e-21
2.1589e-21
3.16432e-21
4.63082e-21
6.76654e-21
9.87199e-21
1.43805e-20
2.09156e-20
3.03736e-20
4.40403e-20
6.37578e-20
9.21604e-20
1.3301e-19
1.91668e-19
2.75766e-19
3.96151e-19
5.68207e-19
8.13726e-19
1.16352e-18
1.66111e-18
2.3678e-18
3.36991e-18
4.78868e-18
6.79417e-18
9.62458e-18
1.36129e-17
1.92239e-17
2.71055e-17
3.81588e-17
5.36358e-17
7.52725e-17
1.05473e-16
1.47559e-16
2.06116e-16
2.87462e-16
4.00284e-16
5.56515e-16
7.72513e-16
1.07067e-15
1.48157e-15
2.04697e-15
2.82369e-15
3.88905e-15
5.34795e-15
7.3426e-15
1.00654e-14
1.37762e-14
1.88255e-14
2.5685e-14
3.49889e-14
4.7588e-14
6.46222e-14
8.76159e-14
1.18604e-13
1.603e-13
2.16312e-13
2.91438e-13
3.92036e-13
5.26527e-13
7.06042e-13
9.45268e-13
1.26355e-12
1.68635e-12
2.24706e-12
2.98949e-12
3.97093e-12
5.26625e-12
6.97307e-12
9.2185e-12
1.21677e-11
1.60351e-11
2.10982e-11
2.77162e-11
3.63524e-11
4.76042e-11
6.22399e-11
8.12467e-11
1.0589e-10
1.37789e-10
1.79014e-10
2.32204e-10
3.00721e-10
3.88839e-10
5.01981e-10
6.47017e-10
8.32636e-10
1.06981e-09
1.37235e-09
1.75767e-09
2.24761e-09
2.86955e-09
3.65778e-09
4.65513e-09
5.91503e-09
7.50398e-09
9.50467e-09
1.20197e-08
1.5176e-08
1.91309e-08
2.4078e-08
3.02564e-08
3.79598e-08
4.7549e-08
5.9466e-08
7.42517e-08
9.25665e-08
1.15216e-07
1.43179e-07
1.77647e-07
2.20063e-07
2.72175e-07
3.36092e-07
4.1436e-07
5.10046e-07
6.26833e-07
7.69139e-07
9.42256e-07
1.15251e-06
1.40744e-06
1.71604e-06
2.089e-06
2.53897e-06
3.081e-06
3.73281e-06
4.51536e-06
5.45333e-06
6.57573e-06
7.9166e-06
9.51582e-06
1.142e-05
1.36836e-05
1.637e-05
1.95529e-05
2.33179e-05
2.77639e-05
3.30055e-05
3.91749e-05
4.64242e-05
5.49284e-05
6.48883e-05
7.65337e-05
9.01271e-05
0.000105968
0.000124398
0.000145805
0.000170627
0.000199362
0.000232572
0.000270889
0.000315027
0.000365784
0.000424057
0.000490847
0.000567271
0.000654575
0.000754141
0.000867503
0.000996357
0.00114258
0.00130823
0.00149558
0.00170712
0.00194557
0.00221392
0.00251541
0.00285356
0.0032322
0.00365547
0.00412785
0.00465416
0.00523956
0.00588961
0.00661026
0.00740782
0.00828904
0.00926106
0.0103315
0.0115082
0.0127997
0.0142148
0.0157628
0.0174532
0.0192961
0.0213019
0.0234813
0.0258455
0.0284057
0.0311737
0.0341612
0.0373803
0.0408431
0.0445618
0.0485487
0.052816
0.0573757
0.0622398
0.0674197
0.0729269
0.0787722
0.0849659
0.0915178
0.0984371
0.105732
0.11341
0.121478
0.129942
0.138805
0.148071
0.157743
0.167821
0.178304
0.189191
0.200478
0.21216
0.224231
0.236683
0.249506
0.26269
0.276221
0.290085
0.304268
0.318751
0.333516
0.348544
0.363813
0.379302
0.394987
0.410844
0.426848
0.442973
0.459192
0.47548
0.491808
0.508149
0.524476
0.540761
0.556977
0.573096
0.589093
0.604941
0.620616
0.636092
0.651346
0.666357
0.681101
0.69556
0.709714
0.723545
0.737038
0.750178
0.76295
0.775344
0.787349
0.798955
0.810154
0.820942
0.831312
0.841261
0.850786
0.859887
0.868563
0.876815
0.884644
0.892054
0.899047
0.905629
0.911802
0.917572
0.922945
0.927926
0.932521
0.936735
0.940574
0.944043
0.947149
0.949896
0.952288
0.954331
0.956027
0.957379
0.958392
0.959065
0.959402
0.959402
0.959065
0.958392
0.957379
0.956027
0.954331
0.952288
0.949896
0.947149
0.944043
0.940574
0.936735
0.932521
0.927926
0.922945
0.917572
0.911802
0.905629
0.899047
0.892054
0.884644
0.876815
0.868563
0.859887
0.850786
0.841261
0.831312
0.820942
0.810154
0.798955
0.787349
0.775344
0.76295
0.750178
0.737038
0.723545
0.709714
0.69556
0.681101
0.666357
0.651346
0.636092
0.620616
0.604941
0.589093
0.573096
0.556977
0.540761
0.524476
0.508149
0.491808
0.47548
0.459192
0.442973
0.426848
0.410844
0.394987
0.379302
0.363813
0.348544
0.333516
0.318751
0.304268
0.290085
0.276221
0.26269
0.249506
0.236683
0.224231
0.21216
0.200478
0.189191
0.178304
0.167821
0.157743
0.148071
0.138805
0.129942
0.121478
0.11341
0.105732
0.0984371
0.0915178
0.0849659
0.0787722
0.0729269
0.0674197
0.0622398
0.0573757
0.052816
0.0485487
0.0445618
0.0408431
0.0373803
0.0341612
0.0311737
0.0284057
0.0258455
0.0234813
0.0213019
0.0192961
0.0174532
0.0157628
0.0142148
0.0127997
0.0115082
0.0103315
0.00926106
0.00828904
0.00740782
0.00661026
0.00588961
0.00523956
0.00465416
0.00412785
0.00365547
0.0032322
0.00285356
0.00251541
0.00221392
0.00194557
0.00170712
0.00149558
0.00130823
0.00114258
0.000996357
0.000867503
0.000754141
0.000654575
0.000567271
0.000490847
0.000424057
0.000365784
0.000315027
0.000270889
0.000232572
0.000199362
0.000170627
0.000145805
0.000124398
0.000105968
9.01271e-05
7.65337e-05
6.48883e-05
5.49284e-05
4.64242e-05
3.91749e-05
3.30055e-05
2.77639e-05
2.33179e-05
1.95529e-05
1.637e-05
1.36836e-05
1.142e-05
9.51582e-06
7.9166e-06
6.57573e-06
5.45333e-06
4.51536e-06
3.73281e-06
3.081e-06
2.53897e-06
2.089e-06
1.71604e-06
1.40744e-06
1.15251e-06
9.42256e-07
7.69139e-07
6.26833e-07
5.10046e-07
4.1436e-07
3.36092e-07
2.72175e-07
2.20063e-07
1.77647e-07
1.43179e-07
1.15216e-07
9.25665e-08
7.42517e-08
5.9466e-08
4.7549e-08
3.79598e-08
3.02564e-08
2.4078e-08
1.91309e-08
1.5176e-08
1.20197e-08
9.50467e-09
7.50398e-09
5.91503e-09
4.65513e-09
3.65778e-09
2.86955e-09
2.24761e-09
1.75767e-09
1.37235e-09
1.06981e-09
8.32636e-10
6.47017e-10
5.01981e-10
3.88839e-10
3.00721e-10
2.32204e-10
1.79014e-10
1.37789e-10
1.0589e-10
8.12467e-11
6.22399e-11
4.76042e-11
3.63524e-11
2.77162e-11
2.10982e-11
1.60351e-11
1.21677e-11
9.2185e-12
6.97307e-12
5.26625e-12
3.97093e-12
2.98949e-12
2.24706e-12
1.68635e-12
1.26355e-12
9.45268e-13
7.06042e-13
5.26527e-13
3.92036e-13
2.91438e-13
2.16312e-13
1.603e-13
1.18604e-13
8.76159e-14
6.46222e-14
4.7588e-14
3.49889e-14
2.5685e-14
1.88255e-14
1.37762e-14
1.00654e-14
7.3426e-15
5.34795e-15
3.88905e-15
2.82369e-15
2.04697e-15
1.48157e-15
1.07067e-15
7.72513e-16
5.56515e-16
4.00284e-16
2.87462e-16
2.06116e-16
1.47559e-16
1.05473e-16
7.52725e-17
5.36358e-17
3.81588e-17
2.71055e-17
1.92239e-17
1.36129e-17
9.62458e-18
6.79417e-18
4.78868e-18
3.36991e-18
2.3678e-18
1.66111e-18
1.16352e-18
8.13726e-19
5.68207e-19
3.96151e-19
2.75766e-19
1.91668e-19
1.3301e-19
9.21604e-20
6.37578e-20
4.40403e-20
3.03736e-20
2.09156e-20
1.43805e-20
9.87199e-21
6.76654e-21
4.63082e-21
3.16432e-21
2.1589e-21
1.47067e-21
1.0003e-21
6.79324e-22
4.60633e-22
3.11865e-22
2.10819e-22
1.42294e-22
9.58949e-23
6.45267e-23
4.33528e-23
2.90823e-23
1.94794e-23
1.30274e-23
8.69913e-24
5.80002e-24
3.86118e-24
2.56653e-24
1.70337e-24
1.12878e-24
7.46879e-25
4.93432e-25
3.25494e-25
2.14386e-25
1.40991e-25
9.25815e-26
6.07012e-26
3.97385e-26
2.59756e-26
1.69536e-26
1.10484e-26
7.18918e-27
4.6709e-27
3.03016e-27
1.96279e-27
1.26948e-27
8.19823e-28
5.2864e-28
3.40364e-28
2.18813e-28
1.40459e-28
9.00263e-29
5.76152e-29
3.68172e-29
2.34916e-29
1.49665e-29
9.52089e-30
6.04759e-30
3.83563e-30
2.42907e-30
1.536e-30
9.69828e-31
6.11431e-31
3.84903e-31
2.41939e-31
1.5185e-31
9.51639e-32
5.95503e-32
3.7209e-32
2.32148e-32
1.44623e-32
8.99628e-33
5.58783e-33
3.4656e-33
2.14619e-33
1.32714e-33
8.19443e-34
5.05217e-34
3.11025e-34
1.91192e-34
1.17355e-34
7.19272e-35
4.40193e-35
2.69e-35
1.64142e-35
1.00011e-35
6.08471e-36
3.6965e-36
2.24235e-36
1.35824e-36
8.21511e-37
4.9615e-37
2.9921e-37
1.80178e-37
1.08341e-37
6.505e-38
3.90003e-38
2.33482e-38
1.39574e-38
8.33149e-39
4.96601e-39
2.95569e-39
1.75662e-39
1.04248e-39
6.17764e-40
3.65551e-40
2.15995e-40
1.27441e-40
7.50833e-41
4.41722e-41
2.59493e-41
1.52221e-41
8.91655e-42
5.21544e-42
3.0462e-42
1.77664e-42
1.0347e-42
6.0173e-43
3.49435e-43
2.02631e-43
1.17333e-43
6.78441e-44
3.91724e-44
2.25853e-44
1.30032e-44
7.47567e-45
4.29171e-45
2.46031e-45
1.40841e-45
8.05093e-46
4.59563e-46
2.61954e-46
1.49103e-46
8.47479e-47
4.8101e-47
2.72623e-47
1.54296e-47
8.72024e-48
4.92139e-48
2.77352e-48
1.56085e-48
8.77151e-49
4.92238e-49
2.75843e-49
1.5436e-49
8.62575e-50
4.81333e-50
2.68215e-50
1.49248e-50
8.29326e-51
4.60183e-51
2.54992e-51
1.41095e-51
7.79633e-52
4.30189e-52
2.3704e-52
1.30429e-52
7.16674e-53
3.93244e-53
2.15475e-53
1.17903e-53
6.44243e-54
3.51535e-54
1.91551e-54
1.04231e-54
5.66375e-55
3.07333e-55
1.66538e-55
9.01188e-56
4.86985e-56
2.62794e-56
1.41617e-56
7.62105e-57
4.09558e-57
2.19794e-57
1.17793e-57
6.30412e-58
3.36924e-58
1.79822e-58
9.58422e-59
5.10123e-59
2.71142e-59
1.43921e-59
7.62883e-60
4.03828e-60
2.13472e-60
1.12692e-60
5.94091e-61
3.12766e-61
1.64435e-61
8.63335e-62
4.5266e-62
2.37015e-62
1.23933e-62
6.47161e-63
3.37479e-63
1.75749e-63
9.14013e-64
4.74705e-64
2.46211e-64
1.27528e-64
6.59656e-65
3.40756e-65
1.75786e-65
9.0561e-66
4.65923e-66
2.39388e-66
1.22831e-66
6.29407e-67
3.22087e-67
1.64601e-67
8.4006e-68
4.28161e-68
2.17934e-68
1.1078e-68
5.62367e-69
2.85101e-69
1.44344e-69
7.29832e-70
3.68527e-70
1.8584e-70
9.35927e-71
4.70757e-71
2.36532e-71
1.18816e-71
5.98611e-72
3.0634e-72
1.66866e-72
1.11014e-72
)
;

boundaryField
{
    sides
    {
        type            zeroGradient;
    }
    empty
    {
        type            empty;
    }
}


// ************************************************************************* //
