/*--------------------------------*- C++ -*----------------------------------*\
  =========                 |
  \\      /  F ield         | OpenFOAM: The Open Source CFD Toolbox
   \\    /   O peration     | Website:  https://openfoam.org
    \\  /    A nd           | Version:  13
     \\/     M anipulation  |
\*---------------------------------------------------------------------------*/
FoamFile
{
    format      ascii;
    class       volScalarField;
    location    "3.165";
    object      T;
}
// * * * * * * * * * * * * * * * * * * * * * * * * * * * * * * * * * * * * * //

dimensions      [0 0 0 1 0 0 0];

internalField   nonuniform List<scalar> 
1000
(
7.66889e-69
1.1133e-68
1.96063e-68
3.68596e-68
7.05458e-68
1.35551e-67
2.60487e-67
5.00125e-67
9.59091e-67
1.83695e-66
3.51386e-66
6.713e-66
1.28083e-65
2.44069e-65
4.6449e-65
8.82843e-65
1.67584e-64
3.17705e-64
6.01529e-64
1.13745e-63
2.14806e-63
4.05137e-63
7.63127e-63
1.4356e-62
2.69716e-62
5.0608e-62
9.48354e-62
1.77484e-61
3.31731e-61
6.19227e-61
1.15438e-60
2.14925e-60
3.99631e-60
7.42107e-60
1.37629e-59
2.54909e-59
4.71517e-59
8.71047e-59
1.60701e-58
2.96095e-58
5.44846e-58
1.00126e-57
1.83762e-57
3.36817e-57
6.16541e-57
1.1271e-56
2.05774e-56
3.75187e-56
6.8318e-56
1.24237e-55
2.25629e-55
4.0923e-55
7.41253e-55
1.34089e-54
2.4224e-54
4.37043e-54
7.8746e-54
1.41696e-53
2.54632e-53
4.56974e-53
8.19021e-53
1.46596e-52
2.62042e-52
4.67783e-52
8.33948e-52
1.48476e-51
2.63994e-51
4.68764e-51
8.31255e-51
1.47209e-50
2.60349e-50
4.59828e-50
8.11062e-50
1.42867e-49
2.5132e-49
4.41511e-49
7.74591e-49
1.35713e-48
2.37457e-48
4.14921e-48
7.24039e-48
1.26175e-47
2.19584e-47
3.8163e-47
6.62365e-47
1.14807e-46
1.98723e-46
3.43514e-46
5.92997e-46
1.02229e-45
1.75996e-45
3.02584e-45
5.19517e-45
8.90767e-45
1.52524e-44
2.60809e-44
4.45364e-44
7.59482e-44
1.29338e-43
2.19961e-43
3.7357e-43
6.33585e-43
1.07311e-42
1.81506e-42
3.0658e-42
5.17133e-42
8.71096e-42
1.46533e-41
2.46154e-41
4.12937e-41
6.91773e-41
1.1573e-40
1.93345e-40
3.22569e-40
5.3742e-40
8.94142e-40
1.48559e-39
2.46488e-39
4.08404e-39
6.75749e-39
1.11656e-38
1.84236e-38
3.03577e-38
4.99528e-38
8.20824e-38
1.34691e-37
2.2071e-37
3.61164e-37
5.90179e-37
9.63072e-37
1.56938e-36
2.55385e-36
4.15008e-36
6.73461e-36
1.09135e-35
1.76607e-35
2.85394e-35
4.60549e-35
7.42163e-35
1.1943e-34
1.91921e-34
3.0798e-34
4.9353e-34
7.89761e-34
1.26203e-33
2.01387e-33
3.2091e-33
5.10652e-33
8.11438e-33
1.28758e-32
2.04025e-32
3.22833e-32
5.10107e-32
8.04881e-32
1.2682e-31
1.99541e-31
3.13518e-31
4.91901e-31
7.70688e-31
1.20577e-30
1.8838e-30
2.93893e-30
4.57855e-30
7.1228e-30
1.10651e-29
1.7165e-29
2.65898e-29
4.11309e-29
6.35336e-29
9.79986e-29
1.50944e-28
2.32164e-28
3.56577e-28
5.4688e-28
8.3755e-28
1.28088e-27
1.95607e-27
2.98291e-27
4.54228e-27
6.90694e-27
1.04876e-26
1.59016e-26
2.4076e-26
3.64003e-26
5.49543e-26
8.28466e-26
1.24716e-25
1.87476e-25
2.81413e-25
4.21811e-25
6.31342e-25
9.43596e-25
1.40826e-24
2.0987e-24
3.12314e-24
4.64093e-24
6.88639e-24
1.02035e-23
1.50966e-23
2.2304e-23
3.29045e-23
4.84729e-23
7.13038e-23
1.04736e-22
1.53621e-22
2.24996e-22
3.29054e-22
4.8054e-22
7.00745e-22
1.02037e-21
1.48363e-21
2.15407e-21
3.12293e-21
4.52097e-21
6.53534e-21
9.43345e-21
1.35969e-20
1.95693e-20
2.81239e-20
4.03591e-20
5.78326e-20
8.27501e-20
1.1823e-19
1.68676e-19
2.40294e-19
3.41818e-19
4.85525e-19
6.88637e-19
9.75288e-19
1.37923e-18
1.94762e-18
2.74621e-18
3.86656e-18
5.43598e-18
7.63118e-18
1.06971e-17
1.49728e-17
2.09266e-17
2.9205e-17
4.0698e-17
5.66305e-17
7.8684e-17
1.09165e-16
1.5123e-16
2.09195e-16
2.8895e-16
3.98523e-16
5.48835e-16
7.54725e-16
1.03632e-15
1.42087e-15
1.94524e-15
2.6592e-15
3.62981e-15
4.94735e-15
6.73316e-15
9.15e-15
1.24159e-14
1.68226e-14
2.27595e-14
3.07459e-14
4.14732e-14
5.58602e-14
7.51263e-14
1.00887e-13
1.3528e-13
1.81129e-13
2.42156e-13
3.23263e-13
4.30893e-13
5.73506e-13
7.62183e-13
1.01143e-12
1.34017e-12
1.77313e-12
2.34247e-12
3.09001e-12
4.07003e-12
5.35289e-12
7.0296e-12
9.21775e-12
1.2069e-11
1.57786e-11
2.05977e-11
2.68484e-11
3.49439e-11
4.54124e-11
5.89289e-11
7.63543e-11
9.87847e-11
1.27613e-10
1.64609e-10
2.12013e-10
2.72659e-10
3.5013e-10
4.4894e-10
5.74775e-10
7.3478e-10
9.37922e-10
1.19544e-09
1.52137e-09
1.93328e-09
2.45304e-09
3.10787e-09
3.93162e-09
4.96626e-09
6.2638e-09
7.88851e-09
9.91978e-09
1.24554e-08
1.56158e-08
1.95488e-08
2.44358e-08
3.04987e-08
3.80089e-08
4.72977e-08
5.87683e-08
7.29116e-08
9.03233e-08
1.11725e-07
1.37992e-07
1.70179e-07
2.0956e-07
2.57668e-07
3.16346e-07
3.87806e-07
4.74697e-07
5.80188e-07
7.08063e-07
8.62829e-07
1.04985e-06
1.27551e-06
1.54735e-06
1.87432e-06
2.267e-06
2.73785e-06
3.30157e-06
3.97541e-06
4.77964e-06
5.738e-06
6.87825e-06
8.2328e-06
9.83944e-06
1.17421e-05
1.39918e-05
1.66478e-05
1.97784e-05
2.34628e-05
2.77922e-05
3.28716e-05
3.88216e-05
4.57806e-05
5.39069e-05
6.33815e-05
7.44111e-05
8.72306e-05
0.000102107
0.000119344
0.000139285
0.000162318
0.00018888
0.000219464
0.000254626
0.000294985
0.000341239
0.000394165
0.00045463
0.000523602
0.000602153
0.000691473
0.00079288
0.00090783
0.00103793
0.00118493
0.00135079
0.00153762
0.00174775
0.0019837
0.00224825
0.00254438
0.00287535
0.00324468
0.00365616
0.00411388
0.00462225
0.00518599
0.00581012
0.00650006
0.00726152
0.00810061
0.00902379
0.0100379
0.0111501
0.012368
0.0136995
0.015153
0.0167371
0.0184609
0.0203337
0.0223651
0.0245652
0.0269442
0.0295126
0.0322811
0.0352607
0.0384622
0.041897
0.045576
0.0495106
0.0537118
0.0581906
0.0629578
0.068024
0.0733995
0.0790942
0.0851174
0.0914782
0.0981847
0.105245
0.112665
0.120452
0.12861
0.137145
0.146058
0.155353
0.16503
0.175089
0.185529
0.196347
0.207539
0.219099
0.231021
0.243297
0.255918
0.268871
0.282147
0.295729
0.309605
0.323758
0.33817
0.352823
0.367698
0.382774
0.398029
0.413442
0.428988
0.444646
0.46039
0.476195
0.492037
0.507891
0.523731
0.539533
0.555271
0.570921
0.586457
0.601857
0.617097
0.632155
0.647008
0.661636
0.676018
0.690136
0.703972
0.71751
0.730732
0.743626
0.756178
0.768375
0.780209
0.791668
0.802745
0.813432
0.823725
0.833619
0.843109
0.852194
0.860871
0.869141
0.877004
0.884459
0.89151
0.898159
0.904408
0.91026
0.91572
0.92079
0.925476
0.929781
0.933709
0.937264
0.940452
0.943274
0.945735
0.947838
0.949586
0.950982
0.952026
0.952722
0.95307
0.95307
0.952722
0.952026
0.950982
0.949586
0.947838
0.945735
0.943274
0.940452
0.937264
0.933709
0.929781
0.925476
0.92079
0.91572
0.91026
0.904408
0.898159
0.89151
0.884459
0.877004
0.869141
0.860871
0.852194
0.843109
0.833619
0.823725
0.813432
0.802745
0.791668
0.780209
0.768375
0.756178
0.743626
0.730732
0.71751
0.703972
0.690136
0.676018
0.661636
0.647008
0.632155
0.617097
0.601857
0.586457
0.570921
0.555271
0.539533
0.523731
0.507891
0.492037
0.476195
0.46039
0.444646
0.428988
0.413442
0.398029
0.382774
0.367698
0.352823
0.33817
0.323758
0.309605
0.295729
0.282147
0.268871
0.255918
0.243297
0.231021
0.219099
0.207539
0.196347
0.185529
0.175089
0.16503
0.155353
0.146058
0.137145
0.12861
0.120452
0.112665
0.105245
0.0981847
0.0914782
0.0851174
0.0790942
0.0733995
0.068024
0.0629578
0.0581906
0.0537118
0.0495106
0.045576
0.041897
0.0384622
0.0352607
0.0322811
0.0295126
0.0269442
0.0245652
0.0223651
0.0203337
0.0184609
0.0167371
0.015153
0.0136995
0.012368
0.0111501
0.0100379
0.00902379
0.00810061
0.00726152
0.00650006
0.00581012
0.00518599
0.00462225
0.00411388
0.00365616
0.00324468
0.00287535
0.00254438
0.00224825
0.0019837
0.00174775
0.00153762
0.00135079
0.00118493
0.00103793
0.00090783
0.00079288
0.000691473
0.000602153
0.000523602
0.00045463
0.000394165
0.000341239
0.000294985
0.000254626
0.000219464
0.00018888
0.000162318
0.000139285
0.000119344
0.000102107
8.72306e-05
7.44111e-05
6.33815e-05
5.39069e-05
4.57806e-05
3.88216e-05
3.28716e-05
2.77922e-05
2.34628e-05
1.97784e-05
1.66478e-05
1.39918e-05
1.17421e-05
9.83944e-06
8.2328e-06
6.87825e-06
5.738e-06
4.77964e-06
3.97541e-06
3.30157e-06
2.73785e-06
2.267e-06
1.87432e-06
1.54735e-06
1.27551e-06
1.04985e-06
8.62829e-07
7.08063e-07
5.80188e-07
4.74697e-07
3.87806e-07
3.16346e-07
2.57668e-07
2.0956e-07
1.70179e-07
1.37992e-07
1.11725e-07
9.03233e-08
7.29116e-08
5.87683e-08
4.72977e-08
3.80089e-08
3.04987e-08
2.44358e-08
1.95488e-08
1.56158e-08
1.24554e-08
9.91978e-09
7.88851e-09
6.2638e-09
4.96626e-09
3.93162e-09
3.10787e-09
2.45304e-09
1.93328e-09
1.52137e-09
1.19544e-09
9.37922e-10
7.3478e-10
5.74775e-10
4.4894e-10
3.5013e-10
2.72659e-10
2.12013e-10
1.64609e-10
1.27613e-10
9.87847e-11
7.63543e-11
5.89289e-11
4.54124e-11
3.49439e-11
2.68484e-11
2.05977e-11
1.57786e-11
1.2069e-11
9.21775e-12
7.0296e-12
5.35289e-12
4.07003e-12
3.09001e-12
2.34247e-12
1.77313e-12
1.34017e-12
1.01143e-12
7.62183e-13
5.73506e-13
4.30893e-13
3.23263e-13
2.42156e-13
1.81129e-13
1.3528e-13
1.00887e-13
7.51263e-14
5.58602e-14
4.14732e-14
3.07459e-14
2.27595e-14
1.68226e-14
1.24159e-14
9.15e-15
6.73316e-15
4.94735e-15
3.62981e-15
2.6592e-15
1.94524e-15
1.42087e-15
1.03632e-15
7.54725e-16
5.48835e-16
3.98523e-16
2.8895e-16
2.09195e-16
1.5123e-16
1.09165e-16
7.8684e-17
5.66305e-17
4.0698e-17
2.9205e-17
2.09266e-17
1.49728e-17
1.06971e-17
7.63118e-18
5.43598e-18
3.86656e-18
2.74621e-18
1.94762e-18
1.37923e-18
9.75288e-19
6.88637e-19
4.85525e-19
3.41818e-19
2.40294e-19
1.68676e-19
1.1823e-19
8.27501e-20
5.78326e-20
4.03591e-20
2.81239e-20
1.95693e-20
1.35969e-20
9.43345e-21
6.53534e-21
4.52097e-21
3.12293e-21
2.15407e-21
1.48363e-21
1.02037e-21
7.00745e-22
4.8054e-22
3.29054e-22
2.24996e-22
1.53621e-22
1.04736e-22
7.13038e-23
4.84729e-23
3.29045e-23
2.2304e-23
1.50966e-23
1.02035e-23
6.88639e-24
4.64093e-24
3.12314e-24
2.0987e-24
1.40826e-24
9.43596e-25
6.31342e-25
4.21811e-25
2.81413e-25
1.87476e-25
1.24716e-25
8.28466e-26
5.49543e-26
3.64003e-26
2.4076e-26
1.59016e-26
1.04876e-26
6.90694e-27
4.54228e-27
2.98291e-27
1.95607e-27
1.28088e-27
8.3755e-28
5.4688e-28
3.56577e-28
2.32164e-28
1.50944e-28
9.79986e-29
6.35336e-29
4.11309e-29
2.65898e-29
1.7165e-29
1.10651e-29
7.1228e-30
4.57855e-30
2.93893e-30
1.8838e-30
1.20577e-30
7.70688e-31
4.91901e-31
3.13518e-31
1.99541e-31
1.2682e-31
8.04881e-32
5.10107e-32
3.22833e-32
2.04025e-32
1.28758e-32
8.11438e-33
5.10652e-33
3.2091e-33
2.01387e-33
1.26203e-33
7.89761e-34
4.9353e-34
3.0798e-34
1.91921e-34
1.1943e-34
7.42163e-35
4.60549e-35
2.85394e-35
1.76607e-35
1.09135e-35
6.73461e-36
4.15008e-36
2.55385e-36
1.56938e-36
9.63072e-37
5.90179e-37
3.61164e-37
2.2071e-37
1.34691e-37
8.20824e-38
4.99528e-38
3.03577e-38
1.84236e-38
1.11656e-38
6.75749e-39
4.08404e-39
2.46488e-39
1.48559e-39
8.94142e-40
5.3742e-40
3.22569e-40
1.93345e-40
1.1573e-40
6.91773e-41
4.12937e-41
2.46154e-41
1.46533e-41
8.71096e-42
5.17133e-42
3.0658e-42
1.81506e-42
1.07311e-42
6.33585e-43
3.7357e-43
2.19961e-43
1.29338e-43
7.59482e-44
4.45364e-44
2.60809e-44
1.52524e-44
8.90767e-45
5.19517e-45
3.02584e-45
1.75996e-45
1.02229e-45
5.92997e-46
3.43514e-46
1.98723e-46
1.14807e-46
6.62365e-47
3.8163e-47
2.19584e-47
1.26175e-47
7.24039e-48
4.14921e-48
2.37457e-48
1.35713e-48
7.74591e-49
4.41511e-49
2.5132e-49
1.42867e-49
8.11062e-50
4.59828e-50
2.60349e-50
1.47209e-50
8.31255e-51
4.68764e-51
2.63994e-51
1.48476e-51
8.33948e-52
4.67783e-52
2.62042e-52
1.46596e-52
8.19021e-53
4.56974e-53
2.54632e-53
1.41696e-53
7.8746e-54
4.37043e-54
2.4224e-54
1.34089e-54
7.41253e-55
4.0923e-55
2.25629e-55
1.24237e-55
6.8318e-56
3.75187e-56
2.05774e-56
1.1271e-56
6.16541e-57
3.36817e-57
1.83762e-57
1.00126e-57
5.44846e-58
2.96095e-58
1.60701e-58
8.71047e-59
4.71517e-59
2.54909e-59
1.37629e-59
7.42107e-60
3.99631e-60
2.14925e-60
1.15438e-60
6.19227e-61
3.31731e-61
1.77484e-61
9.48354e-62
5.0608e-62
2.69716e-62
1.4356e-62
7.63127e-63
4.05137e-63
2.14806e-63
1.13745e-63
6.01529e-64
3.17705e-64
1.67584e-64
8.82843e-65
4.6449e-65
2.44069e-65
1.28083e-65
6.713e-66
3.51386e-66
1.83695e-66
9.59091e-67
5.00125e-67
2.60487e-67
1.35551e-67
7.05458e-68
3.68596e-68
1.96063e-68
1.1133e-68
7.66889e-69
)
;

boundaryField
{
    sides
    {
        type            zeroGradient;
    }
    empty
    {
        type            empty;
    }
}


// ************************************************************************* //
