/*--------------------------------*- C++ -*----------------------------------*\
  =========                 |
  \\      /  F ield         | OpenFOAM: The Open Source CFD Toolbox
   \\    /   O peration     | Website:  https://openfoam.org
    \\  /    A nd           | Version:  13
     \\/     M anipulation  |
\*---------------------------------------------------------------------------*/
FoamFile
{
    format      ascii;
    class       volScalarField;
    location    "2.385";
    object      T;
}
// * * * * * * * * * * * * * * * * * * * * * * * * * * * * * * * * * * * * * //

dimensions      [0 0 0 1 0 0 0];

internalField   nonuniform List<scalar> 
1000
(
1.59086e-88
2.77119e-88
5.99921e-88
1.36408e-87
3.12776e-87
7.1744e-87
1.64375e-86
3.76065e-86
8.59091e-86
1.95957e-85
4.46302e-85
1.01494e-84
2.30458e-84
5.22501e-84
1.18283e-83
2.67363e-83
6.03418e-83
1.3598e-82
3.05963e-82
6.87387e-82
1.54195e-81
3.45363e-81
7.72356e-81
1.72462e-80
3.84507e-80
8.5595e-80
1.9025e-79
4.22215e-79
9.35563e-79
2.06987e-78
4.57239e-78
1.00849e-77
2.22091e-77
4.88333e-77
1.07208e-76
2.34999e-76
5.14317e-76
1.12388e-75
2.45207e-75
5.34156e-75
1.16179e-74
2.52294e-74
5.47027e-74
1.18422e-73
2.5596e-73
5.52374e-73
1.19018e-72
2.5604e-72
5.49948e-72
1.17937e-71
2.5252e-71
5.39826e-71
1.1522e-70
2.45534e-70
5.22409e-70
1.10974e-69
2.35364e-69
4.98393e-69
1.05369e-68
2.22413e-68
4.68724e-68
9.86237e-68
2.07182e-67
4.34538e-67
9.09933e-67
1.90237e-66
3.97085e-66
8.27514e-66
1.72175e-65
3.57655e-65
7.41754e-65
1.53587e-64
3.17505e-64
6.55305e-64
1.35031e-63
2.77793e-63
5.70564e-63
1.16999e-62
2.39529e-62
4.89581e-62
9.99046e-62
2.03535e-61
4.13984e-61
8.40657e-61
1.7043e-60
3.44953e-60
6.9705e-60
1.40623e-59
2.83228e-59
5.6951e-59
1.14328e-58
2.29134e-58
4.58469e-58
9.15829e-58
1.82642e-57
3.63639e-57
7.22804e-57
1.43434e-56
2.8416e-56
5.6202e-56
1.10974e-55
2.18759e-55
4.30515e-55
8.45837e-55
1.65905e-54
3.2487e-54
6.35084e-54
1.23944e-53
2.41487e-53
4.69715e-53
9.12104e-53
1.76817e-52
3.42196e-52
6.61139e-52
1.2752e-51
2.45546e-51
4.72012e-51
9.05813e-51
1.73536e-50
3.31897e-50
6.33697e-50
1.20788e-49
2.2984e-49
4.36606e-49
8.27969e-49
1.56747e-48
2.96239e-48
5.58912e-48
1.0527e-47
1.97933e-47
3.71527e-47
6.96174e-47
1.30227e-46
2.43184e-46
4.5334e-46
8.43655e-46
1.56732e-45
2.90671e-45
5.3814e-45
9.94577e-45
1.83497e-44
3.37963e-44
6.21379e-44
1.14049e-43
2.08963e-43
3.82202e-43
6.97849e-43
1.27196e-42
2.31435e-42
4.20364e-42
7.6219e-42
1.37957e-41
2.49265e-41
4.49592e-41
8.09496e-41
1.45495e-40
2.61048e-40
4.67549e-40
8.35929e-40
1.49192e-39
2.65802e-39
4.72719e-39
8.3923e-39
1.48727e-38
2.63106e-38
4.64624e-38
8.19036e-38
1.44123e-37
2.53157e-37
4.43891e-37
7.76943e-37
1.35746e-36
2.36751e-36
4.12174e-36
7.16298e-36
1.2426e-35
2.15174e-35
3.71937e-35
6.41759e-35
1.10534e-34
1.90036e-34
3.26135e-34
5.58699e-34
9.55377e-34
1.63076e-33
2.77856e-33
4.7257e-33
8.02282e-33
1.35957e-32
2.2998e-32
3.88322e-32
6.54494e-32
1.10111e-31
1.84912e-31
3.09964e-31
5.18641e-31
8.66224e-31
1.44412e-30
2.40315e-30
3.99178e-30
6.61847e-30
1.09535e-29
1.80949e-29
2.98374e-29
4.91099e-29
8.06826e-29
1.3231e-28
2.16574e-28
3.53852e-28
5.77079e-28
9.39397e-28
1.52638e-27
2.47555e-27
4.00755e-27
6.47564e-27
1.04444e-26
1.68142e-26
2.70189e-26
4.33362e-26
6.93789e-26
1.10866e-25
1.76831e-25
2.81522e-25
4.47359e-25
7.09562e-25
1.12335e-24
1.77511e-24
2.7998e-24
4.40773e-24
6.92612e-24
1.0863e-23
1.70059e-23
2.65724e-23
4.14427e-23
6.45133e-23
1.00238e-22
1.55453e-22
2.40629e-22
3.71774e-22
5.73311e-22
8.82433e-22
1.35567e-21
2.07875e-21
3.1815e-21
4.86002e-21
7.41007e-21
1.12767e-20
1.71285e-20
2.59676e-20
3.92934e-20
5.93446e-20
8.94576e-20
1.34594e-19
2.02119e-19
3.02944e-19
4.53198e-19
6.76682e-19
1.00844e-18
1.49999e-18
2.22687e-18
3.29968e-18
4.87995e-18
7.20323e-18
1.06122e-17
1.56046e-17
2.29016e-17
3.35462e-17
4.90441e-17
7.15641e-17
1.04224e-16
1.51497e-16
2.19788e-16
3.18248e-16
4.59929e-16
6.63402e-16
9.55046e-16
1.37225e-15
1.96789e-15
2.81664e-15
4.02364e-15
5.73675e-15
8.16342e-15
1.15941e-14
1.64345e-14
2.32507e-14
3.28301e-14
4.62662e-14
6.50746e-14
9.13513e-14
1.27989e-13
1.78972e-13
2.49778e-13
3.47916e-13
4.8367e-13
6.71085e-13
9.29304e-13
1.28437e-12
1.77164e-12
2.439e-12
3.3512e-12
4.59556e-12
6.28967e-12
8.59146e-12
1.17127e-11
1.59366e-11
2.16413e-11
2.93305e-11
3.9674e-11
5.35599e-11
7.21642e-11
9.70401e-11
1.30235e-10
1.74443e-10
2.33198e-10
3.1113e-10
4.14292e-10
5.50575e-10
7.30253e-10
9.66664e-10
1.2771e-09
1.6839e-09
2.21592e-09
2.9103e-09
3.81474e-09
4.99042e-09
6.5156e-09
8.49014e-09
1.10413e-08
1.43308e-08
1.85636e-08
2.39993e-08
3.09655e-08
3.98752e-08
5.12471e-08
6.57325e-08
8.41461e-08
1.07506e-07
1.37079e-07
1.74444e-07
2.21555e-07
2.80835e-07
3.55275e-07
4.4856e-07
5.65224e-07
7.10826e-07
8.92174e-07
1.11758e-06
1.39718e-06
1.74329e-06
2.17085e-06
2.69796e-06
3.34645e-06
4.14264e-06
5.11816e-06
6.31097e-06
7.76646e-06
9.53883e-06
1.16926e-05
1.43046e-05
1.74656e-05
2.12833e-05
2.58846e-05
3.14189e-05
3.80616e-05
4.60183e-05
5.55293e-05
6.68749e-05
8.03808e-05
9.64255e-05
0.000115447
0.00013795
0.000164517
0.000195819
0.000232621
0.000275802
0.000326362
0.00038544
0.000454326
0.000534485
0.000627567
0.000735431
0.000860166
0.00100411
0.00116988
0.00136039
0.00157887
0.00182892
0.00211449
0.00243996
0.00281014
0.00323028
0.00370613
0.00424398
0.00485063
0.00553344
0.0063004
0.00716008
0.00812167
0.00919501
0.0103906
0.0117196
0.0131938
0.0148257
0.0166283
0.0186154
0.0208012
0.0232007
0.0258292
0.0287026
0.0318371
0.0352494
0.0389561
0.0429745
0.0473216
0.0520143
0.0570697
0.0625043
0.0683345
0.0745758
0.0812434
0.0883514
0.095913
0.103941
0.112445
0.121435
0.130919
0.140904
0.151393
0.162389
0.173892
0.185901
0.198411
0.211417
0.224909
0.238876
0.253305
0.26818
0.283482
0.299191
0.315284
0.331735
0.348517
0.365602
0.382958
0.400551
0.41835
0.436316
0.454416
0.47261
0.490862
0.509133
0.527385
0.545579
0.563677
0.581643
0.59944
0.617032
0.634386
0.651468
0.668247
0.684695
0.700783
0.716486
0.731782
0.746649
0.761068
0.775024
0.788503
0.801492
0.813984
0.82597
0.837447
0.848412
0.858864
0.868805
0.878239
0.88717
0.895605
0.903552
0.911021
0.918021
0.924564
0.930661
0.936326
0.94157
0.946407
0.95085
0.954911
0.958604
0.961941
0.964933
0.967591
0.969927
0.971949
0.973665
0.975084
0.976212
0.977053
0.977611
0.97789
0.97789
0.977611
0.977053
0.976212
0.975084
0.973665
0.971949
0.969927
0.967591
0.964933
0.961941
0.958604
0.954911
0.95085
0.946407
0.94157
0.936326
0.930661
0.924564
0.918021
0.911021
0.903552
0.895605
0.88717
0.878239
0.868805
0.858864
0.848412
0.837447
0.82597
0.813984
0.801492
0.788503
0.775024
0.761068
0.746649
0.731782
0.716486
0.700783
0.684695
0.668247
0.651468
0.634386
0.617032
0.59944
0.581643
0.563677
0.545579
0.527385
0.509133
0.490862
0.47261
0.454416
0.436316
0.41835
0.400551
0.382958
0.365602
0.348517
0.331735
0.315284
0.299191
0.283482
0.26818
0.253305
0.238876
0.224909
0.211417
0.198411
0.185901
0.173892
0.162389
0.151393
0.140904
0.130919
0.121435
0.112445
0.103941
0.095913
0.0883514
0.0812434
0.0745758
0.0683345
0.0625043
0.0570697
0.0520143
0.0473216
0.0429745
0.0389561
0.0352494
0.0318371
0.0287026
0.0258292
0.0232007
0.0208012
0.0186154
0.0166283
0.0148257
0.0131938
0.0117196
0.0103906
0.00919501
0.00812167
0.00716008
0.0063004
0.00553344
0.00485063
0.00424398
0.00370613
0.00323028
0.00281014
0.00243996
0.00211449
0.00182892
0.00157887
0.00136039
0.00116988
0.00100411
0.000860166
0.000735431
0.000627567
0.000534485
0.000454326
0.00038544
0.000326362
0.000275802
0.000232621
0.000195819
0.000164517
0.00013795
0.000115447
9.64255e-05
8.03808e-05
6.68749e-05
5.55293e-05
4.60183e-05
3.80616e-05
3.14189e-05
2.58846e-05
2.12833e-05
1.74656e-05
1.43046e-05
1.16926e-05
9.53883e-06
7.76646e-06
6.31097e-06
5.11816e-06
4.14264e-06
3.34645e-06
2.69796e-06
2.17085e-06
1.74329e-06
1.39718e-06
1.11758e-06
8.92174e-07
7.10826e-07
5.65224e-07
4.4856e-07
3.55275e-07
2.80835e-07
2.21555e-07
1.74444e-07
1.37079e-07
1.07506e-07
8.41461e-08
6.57325e-08
5.12471e-08
3.98752e-08
3.09655e-08
2.39993e-08
1.85636e-08
1.43308e-08
1.10413e-08
8.49014e-09
6.5156e-09
4.99042e-09
3.81474e-09
2.9103e-09
2.21592e-09
1.6839e-09
1.2771e-09
9.66664e-10
7.30253e-10
5.50575e-10
4.14292e-10
3.1113e-10
2.33198e-10
1.74443e-10
1.30235e-10
9.70401e-11
7.21642e-11
5.35599e-11
3.9674e-11
2.93305e-11
2.16413e-11
1.59366e-11
1.17127e-11
8.59146e-12
6.28967e-12
4.59556e-12
3.3512e-12
2.439e-12
1.77164e-12
1.28437e-12
9.29304e-13
6.71085e-13
4.8367e-13
3.47916e-13
2.49778e-13
1.78972e-13
1.27989e-13
9.13513e-14
6.50746e-14
4.62662e-14
3.28301e-14
2.32507e-14
1.64345e-14
1.15941e-14
8.16342e-15
5.73675e-15
4.02364e-15
2.81664e-15
1.96789e-15
1.37225e-15
9.55046e-16
6.63402e-16
4.59929e-16
3.18248e-16
2.19788e-16
1.51497e-16
1.04224e-16
7.15641e-17
4.90441e-17
3.35462e-17
2.29016e-17
1.56046e-17
1.06122e-17
7.20323e-18
4.87995e-18
3.29968e-18
2.22687e-18
1.49999e-18
1.00844e-18
6.76682e-19
4.53198e-19
3.02944e-19
2.02119e-19
1.34594e-19
8.94576e-20
5.93446e-20
3.92934e-20
2.59676e-20
1.71285e-20
1.12767e-20
7.41007e-21
4.86002e-21
3.1815e-21
2.07875e-21
1.35567e-21
8.82433e-22
5.73311e-22
3.71774e-22
2.40629e-22
1.55453e-22
1.00238e-22
6.45133e-23
4.14427e-23
2.65724e-23
1.70059e-23
1.0863e-23
6.92612e-24
4.40773e-24
2.7998e-24
1.77511e-24
1.12335e-24
7.09562e-25
4.47359e-25
2.81522e-25
1.76831e-25
1.10866e-25
6.93789e-26
4.33362e-26
2.70189e-26
1.68142e-26
1.04444e-26
6.47564e-27
4.00755e-27
2.47555e-27
1.52638e-27
9.39397e-28
5.77079e-28
3.53852e-28
2.16574e-28
1.3231e-28
8.06826e-29
4.91099e-29
2.98374e-29
1.80949e-29
1.09535e-29
6.61847e-30
3.99178e-30
2.40315e-30
1.44412e-30
8.66224e-31
5.18641e-31
3.09964e-31
1.84912e-31
1.10111e-31
6.54494e-32
3.88322e-32
2.2998e-32
1.35957e-32
8.02282e-33
4.7257e-33
2.77856e-33
1.63076e-33
9.55377e-34
5.58699e-34
3.26135e-34
1.90036e-34
1.10534e-34
6.41759e-35
3.71937e-35
2.15174e-35
1.2426e-35
7.16298e-36
4.12174e-36
2.36751e-36
1.35746e-36
7.76943e-37
4.43891e-37
2.53157e-37
1.44123e-37
8.19036e-38
4.64624e-38
2.63106e-38
1.48727e-38
8.3923e-39
4.72719e-39
2.65802e-39
1.49192e-39
8.35929e-40
4.67549e-40
2.61048e-40
1.45495e-40
8.09496e-41
4.49592e-41
2.49265e-41
1.37957e-41
7.6219e-42
4.20364e-42
2.31435e-42
1.27196e-42
6.97849e-43
3.82202e-43
2.08963e-43
1.14049e-43
6.21379e-44
3.37963e-44
1.83497e-44
9.94577e-45
5.3814e-45
2.90671e-45
1.56732e-45
8.43655e-46
4.5334e-46
2.43184e-46
1.30227e-46
6.96174e-47
3.71527e-47
1.97933e-47
1.0527e-47
5.58912e-48
2.96239e-48
1.56747e-48
8.27969e-49
4.36606e-49
2.2984e-49
1.20788e-49
6.33697e-50
3.31897e-50
1.73536e-50
9.05813e-51
4.72012e-51
2.45546e-51
1.2752e-51
6.61139e-52
3.42196e-52
1.76817e-52
9.12104e-53
4.69715e-53
2.41487e-53
1.23944e-53
6.35084e-54
3.2487e-54
1.65905e-54
8.45837e-55
4.30515e-55
2.18759e-55
1.10974e-55
5.6202e-56
2.8416e-56
1.43434e-56
7.22804e-57
3.63639e-57
1.82642e-57
9.15829e-58
4.58469e-58
2.29134e-58
1.14328e-58
5.6951e-59
2.83228e-59
1.40623e-59
6.9705e-60
3.44953e-60
1.7043e-60
8.40657e-61
4.13984e-61
2.03535e-61
9.99046e-62
4.89581e-62
2.39529e-62
1.16999e-62
5.70564e-63
2.77793e-63
1.35031e-63
6.55305e-64
3.17505e-64
1.53587e-64
7.41754e-65
3.57655e-65
1.72175e-65
8.27514e-66
3.97085e-66
1.90237e-66
9.09933e-67
4.34538e-67
2.07182e-67
9.86237e-68
4.68724e-68
2.22413e-68
1.05369e-68
4.98393e-69
2.35364e-69
1.10974e-69
5.22409e-70
2.45534e-70
1.1522e-70
5.39826e-71
2.5252e-71
1.17937e-71
5.49948e-72
2.5604e-72
1.19018e-72
5.52374e-73
2.5596e-73
1.18422e-73
5.47027e-74
2.52294e-74
1.16179e-74
5.34156e-75
2.45207e-75
1.12388e-75
5.14317e-76
2.34999e-76
1.07208e-76
4.88333e-77
2.22091e-77
1.00849e-77
4.57239e-78
2.06987e-78
9.35563e-79
4.22215e-79
1.9025e-79
8.5595e-80
3.84507e-80
1.72462e-80
7.72356e-81
3.45363e-81
1.54195e-81
6.87387e-82
3.05963e-82
1.3598e-82
6.03418e-83
2.67363e-83
1.18283e-83
5.22501e-84
2.30458e-84
1.01494e-84
4.46302e-85
1.95957e-85
8.59091e-86
3.76065e-86
1.64375e-86
7.1744e-87
3.12776e-87
1.36408e-87
5.99921e-88
2.77119e-88
1.59086e-88
)
;

boundaryField
{
    sides
    {
        type            zeroGradient;
    }
    empty
    {
        type            empty;
    }
}


// ************************************************************************* //
