/*--------------------------------*- C++ -*----------------------------------*\
  =========                 |
  \\      /  F ield         | OpenFOAM: The Open Source CFD Toolbox
   \\    /   O peration     | Website:  https://openfoam.org
    \\  /    A nd           | Version:  13
     \\/     M anipulation  |
\*---------------------------------------------------------------------------*/
FoamFile
{
    format      ascii;
    class       volScalarField;
    location    "1";
    object      p;
}
// * * * * * * * * * * * * * * * * * * * * * * * * * * * * * * * * * * * * * //

dimensions      [1 -1 -2 0 0 0 0];

internalField   nonuniform List<scalar> 
5250
(
1
1.00001
1.00003
1.00006
1.00016
1.00038
1.00102
1.00235
1.00632
1.01456
1.03876
1.09334
1.24665
1.65901
2.9042
6.77257
12.7014
11.6893
11.325
11.4607
11.7643
11.9846
12.1136
12.2049
12.2732
1
1.00001
1.00003
1.00006
1.00016
1.00038
1.00102
1.00232
1.00621
1.01449
1.03784
1.09245
1.24175
1.64744
2.86394
6.6444
12.6928
11.6927
11.3212
11.4555
11.7566
11.9746
12.1035
12.1963
12.266
1
1.00001
1.00002
1.00006
1.00016
1.00037
1.00098
1.00226
1.00606
1.01395
1.03709
1.08896
1.23435
1.62225
2.7844
6.37091
12.6571
11.6901
11.3027
11.4291
11.7186
11.9293
12.0548
12.1468
12.2167
1
1.00001
1.00002
1.00006
1.00015
1.00036
1.00095
1.00218
1.00584
1.01344
1.03567
1.08539
1.22407
1.59141
2.68005
5.99586
12.5589
11.6686
11.2661
11.3787
11.6461
11.8468
11.9671
12.0566
12.1264
1
1.00001
1.00002
1.00005
1.00015
1.00034
1.00091
1.00208
1.00558
1.01282
1.03402
1.08126
1.2129
1.55959
2.58171
5.67897
12.2948
11.5998
11.2094
11.3041
11.5405
11.7305
11.8445
11.9297
11.9983
1
1.00001
1.00002
1.00005
1.00014
1.00032
1.00086
1.00196
1.00526
1.01207
1.0321
1.07646
1.2002
1.52387
2.47501
5.34303
11.8899
11.4646
11.132
11.2027
11.3954
11.5743
11.6799
11.7573
11.8238
1
1.00001
1.00002
1.00005
1.00013
1.00029
1.0008
1.00182
1.0049
1.01127
1.02977
1.07136
1.18568
1.485
2.35878
4.97969
11.3715
11.2835
11.045
11.076
11.2081
11.373
11.4623
11.5222
11.5759
1
1.00001
1.00002
1.00004
1.00012
1.00027
1.00073
1.00166
1.0045
1.01026
1.02739
1.06501
1.16989
1.44098
2.23169
4.58642
10.6924
11.1055
10.9511
10.92
10.9878
11.1226
11.1797
11.2049
11.2232
1
1.00001
1.00002
1.00004
1.00011
1.00024
1.00066
1.00149
1.00403
1.00925
1.02453
1.05855
1.1521
1.39336
2.09209
4.16863
9.83289
10.9834
10.8327
10.7127
10.7438
10.8157
10.8124
10.7671
10.6738
1
1
1.00001
1.00004
1.00009
1.00023
1.00053
1.00142
1.00326
1.00875
1.02028
1.05342
1.13054
1.34569
1.94247
3.72968
8.79025
10.8849
10.7106
10.4772
10.4625
10.4476
10.3625
10.1495
9.75526
1
1
1.00001
1.00003
1.00008
1.00018
1.00049
1.00111
1.00301
1.00685
1.01856
1.04329
1.11398
1.28873
1.79205
3.26787
7.57717
10.8078
10.5975
10.2459
10.154
10.0442
9.78069
9.16904
7.57249
1
1
1.00001
1.00002
1.00006
1.00016
1.00038
1.00098
1.0023
1.0061
1.01421
1.03741
1.09054
1.2373
1.63011
2.7935
6.20405
10.6647
10.4648
10.044
9.84297
9.63617
9.21168
8.37122
6.70355
1
1
1.00001
1.00002
1.00005
1.00012
1.00033
1.00075
1.00201
1.00457
1.01231
1.02851
1.07487
1.1848
1.49232
2.35986
4.87227
10.2614
10.1974
9.87996
9.54379
9.23937
8.72374
7.85525
6.49582
1
1
1.00001
1.00002
1.00004
1.00011
1.00024
1.00066
1.0015
1.00401
1.00935
1.02431
1.05892
1.15136
1.39262
2.08109
4.08948
9.22033
9.84462
9.65593
9.26701
8.88664
8.35079
7.5426
6.45362
1
1
1.00001
1.00001
1.00003
1.00008
1.00021
1.00049
1.00128
1.00303
1.00776
1.01895
1.04766
1.11959
1.31025
1.84261
3.39466
7.65417
9.54852
9.41424
9.06077
8.60429
8.07014
7.34198
6.43471
1
1
1
1.00001
1.00002
1.00006
1.00015
1.00039
1.00095
1.00238
1.00595
1.0145
1.0368
1.09107
1.23513
1.62562
2.75798
5.96686
9.31246
9.23469
8.92618
8.39814
7.85956
7.20493
6.42277
1
1
1
1.00001
1.00002
1.00005
1.00011
1.0003
1.00069
1.00184
1.00422
1.01128
1.02612
1.06856
1.16769
1.44408
2.2017
4.30788
8.77916
9.00918
8.78554
8.27717
7.70651
7.09746
6.40529
1
1
1
1.00001
1.00001
1.00003
1.00009
1.00021
1.00055
1.00128
1.00337
1.00796
1.02038
1.0498
1.12636
1.32527
1.87868
3.45534
7.50277
8.7032
8.56032
8.16946
7.59034
7.01322
6.39397
1
1
1
1
1.00001
1.00003
1.00006
1.00015
1.0004
1.00092
1.00248
1.00564
1.01518
1.03524
1.09257
1.23033
1.61924
2.7079
5.69588
8.37962
8.33526
8.08142
7.54233
6.96077
6.38291
1
1
1
1
1.00001
1.00002
1.00005
1.00011
1.00028
1.00065
1.0017
1.00405
1.01019
1.02505
1.06224
1.15653
1.40448
2.0825
3.89082
7.71026
8.13704
7.9665
7.5338
6.94343
6.38397
1
1
1
1
1.00001
1.00001
1.00003
1.00007
1.0002
1.00045
1.00118
1.00281
1.00707
1.01741
1.04308
1.10815
1.27618
1.73548
3.00643
6.26567
7.87113
7.79132
7.5079
6.95096
6.39148
1
1
1
1
1
1.00001
1.00002
1.00005
1.00013
1.00031
1.00078
1.00184
1.0048
1.01115
1.02926
1.0696
1.18069
1.46392
2.25089
4.31107
7.37836
7.59734
7.43407
7.00017
6.41636
1
1
1
1
1
1.00001
1.00001
1.00003
1.00009
1.0002
1.00052
1.00123
1.00312
1.00764
1.01878
1.04696
1.11644
1.29976
1.78864
3.11315
6.26512
7.37494
7.29267
7.0078
6.47244
1
1
1
1
1
1
1.00001
1.00002
1.00005
1.00013
1.00033
1.0008
1.00203
1.00478
1.01241
1.02929
1.07549
1.1865
1.48988
2.29922
4.39065
6.91642
7.10102
6.96453
6.59818
1
1
1
1
1
1
1.00001
1.00001
1.00003
1.00009
1.0002
1.00053
1.00121
1.00321
1.0074
1.01927
1.04592
1.11705
1.29553
1.77343
3.02183
5.89728
6.89499
6.84878
6.63184
1
1
1
1
1
1
1
1.00001
1.00002
1.00005
1.00012
1.00033
1.00074
1.00197
1.00447
1.0119
1.02755
1.07155
1.17489
1.45604
2.1897
4.04107
6.42608
6.70108
6.5922
1
1
1
1
1
1
1
1.00001
1.00001
1.00003
1.00008
1.0002
1.00045
1.00119
1.00273
1.00725
1.0166
1.04366
1.10377
1.27023
1.68998
2.79336
5.34931
6.46979
6.46014
1
1
1
1
1
1
1
1
1.00001
1.00002
1.00005
1.00011
1.00028
1.00066
1.00169
1.00405
1.00998
1.02466
1.06008
1.15072
1.37989
1.97278
3.40853
5.91799
6.32503
1
1
1
1
1
1
1
1
1
1.00001
1.00003
1.00006
1.00017
1.00038
1.00102
1.0023
1.0061
1.01401
1.03635
1.08694
1.22283
1.5673
2.46299
4.62721
6.00922
1
1
1
1
1
1
1
1
1
1.00001
1.00001
1.00004
1.00009
1.00023
1.00055
1.00135
1.00339
1.00799
1.02046
1.0484
1.123
1.30443
1.77405
2.89527
5.25421
1
1
1
1
1
1
1
1
1
1
1.00001
1.00002
1.00005
1.00013
1.00029
1.00078
1.00175
1.00467
1.01058
1.0279
1.06536
1.16813
1.41932
2.06823
3.6301
1
1
1
1
1
1
1
1
1
1
1
1.00001
1.00003
1.00007
1.00017
1.00041
1.001
1.00249
1.00594
1.01513
1.03588
1.09134
1.22492
1.57403
2.43046
1
1
1
1
1
1
1
1
1
1
1
1.00001
1.00002
1.00004
1.00009
1.00021
1.00056
1.00125
1.00333
1.00753
1.01985
1.04592
1.11785
1.28719
1.71844
1
1
1
1
1
1
1
1
1
1
1
1
1.00001
1.00002
1.00005
1.00012
1.00027
1.0007
1.00159
1.00418
1.00945
1.02497
1.05758
1.14856
1.36301
1
1
1
1
1
1
1
1
1
1
1
1
1
1.00001
1.00002
1.00006
1.00015
1.00034
1.00085
1.00208
1.00501
1.01262
1.02993
1.076
1.18497
1
1
1
1
1
1
1
1
1
1
1
1
1
1
1.00001
1.00003
1.00007
1.00017
1.00044
1.00101
1.00264
1.00607
1.01565
1.03696
1.09314
1
1
1
1
1
1
1
1
1
1
1
1
1
1
1.00001
1.00001
1.00004
1.00008
1.00022
1.0005
1.00131
1.00294
1.00776
1.01751
1.04582
1
1
1
1
1
1
1
1
1
1
1
1
1
1
1
1.00001
1.00002
1.00004
1.0001
1.00025
1.00059
1.00147
1.00357
1.00854
1.02129
1
1
1
1
1
1
1
1
1
1
1
1
1
1
1
1
1.00001
1.00002
1.00005
1.00012
1.00027
1.00071
1.00161
1.00421
1.00947
1
1
1
1
1
1
1
1
1
1
1
1
1
1
1
1
1
1.00001
1.00002
1.00005
1.00013
1.00031
1.00078
1.00188
1.00452
1
1
1
1
1
1
1
1
1
1
1
1
1
1
1
1
1
1
1.00001
1.00002
1.00006
1.00014
1.00036
1.00083
1.00214
1
1
1
1
1
1
1
1
1
1
1
1
1
1
1
1
1
1
1
1.00001
1.00003
1.00007
1.00015
1.00039
1.0009
1
1
1
1
1
1
1
1
1
1
1
1
1
1
1
1
1
1
1
1
1.00001
1.00003
1.00007
1.00016
1.00041
1
1
1
1
1
1
1
1
1
1
1
1
1
1
1
1
1
1
1
1
1.00001
1.00001
1.00003
1.00007
1.00018
1
1
1
1
1
1
1
1
1
1
1
1
1
1
1
1
1
1
1
1
1
1.00001
1.00001
1.00003
1.00007
1
1
1
1
1
1
1
1
1
1
1
1
1
1
1
1
1
1
1
1
1
1
1
1.00001
1.00003
1
1
1
1
1
1
1
1
1
1
1
1
1
1
1
1
1
1
1
1
1
1
1
1
1.00001
1
1
1
1
1
1
1
1
1
1
1
1
1
1
1
1
1
1
1
1
1
1
1
1
1
1
1
1
1
1
1
1
1
1
1
1
1
1
1
1
1
1
1
1
1
1
1
1
1
1
1
1
1
1
1
1
1
1
1
1
1
1
1
1
1
1
1
1
1
1
1
1
1
1
1
3.04943
1.54042
1.04011
0.920829
0.940781
1.00686
1.14638
1.26396
1.30104
1.29789
1.28788
1.26746
1.25346
1.24931
1.24827
1.24662
1.24324
1.23711
1.22925
1.22052
1.21155
1.20265
1.19379
1.18484
1.17564
1.16611
1.15621
1.14596
1.13541
1.12462
1.11369
1.1027
1.09168
1.0807
1.06981
1.05904
1.04844
1.03799
1.02772
1.01767
1.00789
0.998324
0.988992
0.979913
0.971098
0.962546
0.954256
0.946235
0.938481
0.930989
0.923756
0.916779
0.910079
0.90364
0.897487
0.891625
0.886057
0.880784
0.875816
0.871144
0.866782
0.862709
0.858938
0.855465
0.852262
0.849359
0.846735
0.844419
0.842382
0.840662
0.83929
0.838207
0.83745
0.836924
0.836795
0.83681
0.836901
0.837172
0.837773
0.838835
0.840006
0.841322
0.842792
0.844399
0.846211
0.847973
0.849891
0.851881
0.854137
0.856365
0.858308
0.861206
0.862937
0.866499
0.868179
0.871998
0.874025
0.878655
0.882664
0.891694
3.76922
2.35216
1.74324
1.4783
1.34739
1.25175
1.20478
1.2071
1.21723
1.23963
1.27094
1.28028
1.27845
1.27297
1.26167
1.25039
1.24127
1.23394
1.22735
1.22057
1.21311
1.20484
1.19584
1.1864
1.17666
1.16671
1.15654
1.14616
1.13557
1.12477
1.11384
1.10286
1.09184
1.08087
1.06996
1.05917
1.04857
1.03813
1.02782
1.01774
1.00804
0.998492
0.989154
0.980082
0.971281
0.962739
0.954448
0.946416
0.938657
0.931136
0.923874
0.91688
0.910161
0.903686
0.897509
0.891613
0.886052
0.880761
0.875759
0.871027
0.866678
0.862511
0.85874
0.855265
0.852144
0.849355
0.846799
0.844585
0.842569
0.840887
0.839552
0.838434
0.837581
0.837028
0.836899
0.836914
0.837003
0.837266
0.837841
0.838914
0.840077
0.841412
0.842819
0.844399
0.846153
0.847957
0.84987
0.851932
0.854104
0.856379
0.858592
0.861023
0.863456
0.866217
0.868487
0.871832
0.87408
0.878475
0.881948
0.889585
4.59422
3.27286
2.43932
1.90595
1.56172
1.344
1.21326
1.16816
1.17136
1.18335
1.20976
1.24018
1.25937
1.25923
1.25747
1.25272
1.24295
1.23301
1.22446
1.21669
1.20886
1.20077
1.19229
1.18342
1.17414
1.16447
1.15445
1.14413
1.13359
1.12287
1.11203
1.10121
1.09039
1.07951
1.0687
1.05805
1.04755
1.03717
1.02694
1.01692
1.0072
0.997755
0.988489
0.97946
0.970702
0.962206
0.953942
0.945941
0.938164
0.930634
0.923386
0.916383
0.909651
0.903185
0.897012
0.891133
0.885566
0.880289
0.875335
0.870674
0.866312
0.862317
0.858557
0.854989
0.85166
0.848662
0.846241
0.843861
0.841951
0.840166
0.838866
0.83778
0.837
0.836449
0.836333
0.836352
0.836451
0.836724
0.837346
0.83852
0.839573
0.841079
0.842395
0.844225
0.845825
0.847827
0.849771
0.851872
0.854011
0.856238
0.858554
0.860934
0.863449
0.866141
0.868513
0.871777
0.874153
0.878285
0.881427
0.887979
5.04344
3.8373
2.94864
2.33213
1.91816
1.63682
1.45436
1.33557
1.25999
1.22275
1.21917
1.22195
1.22966
1.2452
1.25402
1.25384
1.25205
1.24733
1.23745
1.22569
1.21476
1.20459
1.19508
1.18583
1.17644
1.16666
1.15646
1.14594
1.13519
1.12431
1.11339
1.1025
1.09162
1.08076
1.06996
1.05927
1.04874
1.03832
1.02803
1.018
1.00824
0.99868
0.989339
0.980307
0.971495
0.962953
0.954692
0.946612
0.938734
0.931238
0.923959
0.916906
0.91012
0.903601
0.897383
0.891447
0.885833
0.880522
0.875506
0.870772
0.866393
0.862215
0.858408
0.855004
0.851868
0.849022
0.846465
0.844177
0.842237
0.840494
0.8392
0.838086
0.837247
0.836807
0.836664
0.836678
0.836764
0.837008
0.837577
0.83878
0.839831
0.841363
0.842615
0.844497
0.845981
0.84811
0.849884
0.852073
0.854189
0.856452
0.858806
0.861233
0.863708
0.866398
0.868916
0.872035
0.874381
0.878383
0.881208
0.887001
5.31513
4.25925
3.40292
2.75626
2.28366
1.93929
1.68758
1.50296
1.37337
1.28214
1.22812
1.20575
1.20608
1.20855
1.21453
1.22475
1.22898
1.22868
1.22707
1.22286
1.2141
1.20332
1.19262
1.18219
1.17194
1.16175
1.15155
1.14129
1.13095
1.12052
1.11002
1.09946
1.08886
1.07823
1.06761
1.0571
1.04675
1.03648
1.02631
1.01632
1.00664
0.997163
0.987914
0.978916
0.970136
0.961581
0.953298
0.945255
0.937485
0.929949
0.922683
0.915672
0.908921
0.902451
0.896264
0.890366
0.884772
0.879478
0.874486
0.869817
0.865433
0.861382
0.857652
0.854128
0.850894
0.847989
0.84538
0.843101
0.841132
0.839434
0.838095
0.837059
0.836257
0.835796
0.835711
0.83574
0.835861
0.836171
0.836846
0.83799
0.839098
0.840684
0.84195
0.844021
0.845482
0.847768
0.849495
0.851903
0.85395
0.856434
0.858753
0.861215
0.863715
0.866528
0.868976
0.872284
0.874539
0.87864
0.881246
0.886676
5.49632
4.58168
3.78593
3.14119
2.63795
2.25142
1.95619
1.73206
1.56281
1.43582
1.34443
1.27795
1.23789
1.2162
1.21074
1.21156
1.21368
1.21836
1.22038
1.21984
1.21775
1.21283
1.20277
1.19053
1.17799
1.16588
1.15442
1.1435
1.13293
1.12249
1.11207
1.10161
1.09107
1.08047
1.06983
1.05931
1.04895
1.03859
1.02832
1.01827
1.00849
0.998912
0.989574
0.980444
0.971543
0.96292
0.954548
0.946435
0.9386
0.931031
0.923742
0.916682
0.909896
0.903402
0.897188
0.891259
0.885622
0.880279
0.875241
0.8705
0.866057
0.861925
0.858067
0.854551
0.851357
0.848469
0.845865
0.843576
0.841597
0.839892
0.838527
0.837495
0.836678
0.836201
0.836131
0.836156
0.836269
0.836584
0.837288
0.838414
0.839656
0.841178
0.842523
0.844626
0.846111
0.848539
0.85028
0.852831
0.854895
0.857492
0.859776
0.862484
0.86489
0.867916
0.870189
0.873716
0.875851
0.879958
0.882372
0.887486
5.61826
4.82175
4.0945
3.47287
2.96193
2.55148
2.2251
1.96705
1.7629
1.60167
1.47518
1.37734
1.30399
1.25185
1.22065
1.2046
1.19784
1.19751
1.19776
1.19832
1.19806
1.19685
1.19369
1.18695
1.17621
1.16433
1.15237
1.14074
1.12953
1.11868
1.1081
1.09771
1.08743
1.07715
1.06685
1.05666
1.04659
1.03642
1.02626
1.01634
1.00663
0.997111
0.987838
0.978762
0.969851
0.961248
0.952989
0.944892
0.937123
0.929589
0.92232
0.915269
0.908475
0.902046
0.89588
0.889978
0.884355
0.879016
0.873973
0.86923
0.864785
0.860645
0.856822
0.853297
0.850079
0.847192
0.844588
0.842293
0.840319
0.838618
0.837268
0.836261
0.835457
0.83504
0.835011
0.835055
0.83522
0.835614
0.836433
0.83775
0.839132
0.840816
0.842552
0.844653
0.846514
0.84923
0.851264
0.854225
0.856367
0.85936
0.861759
0.86498
0.867325
0.870853
0.872971
0.876817
0.878847
0.882971
0.885255
0.890312
5.70928
5.00686
4.34381
3.75479
3.25103
2.83093
2.48504
2.2027
1.97322
1.78686
1.63632
1.51528
1.41847
1.34333
1.28517
1.24192
1.21467
1.19846
1.19053
1.18725
1.18615
1.18567
1.18464
1.18229
1.17746
1.16867
1.15803
1.1464
1.13442
1.12254
1.11105
1.10001
1.08937
1.07898
1.06877
1.05869
1.04864
1.03859
1.02858
1.01867
1.0089
0.999349
0.990005
0.980842
0.97195
0.963374
0.954977
0.946817
0.939078
0.931569
0.924211
0.916987
0.910194
0.903718
0.897487
0.891517
0.885824
0.880414
0.875301
0.870486
0.865967
0.861756
0.857854
0.854256
0.850975
0.848022
0.845379
0.843017
0.840994
0.839263
0.837901
0.83689
0.836105
0.835774
0.835784
0.835882
0.836168
0.836781
0.83801
0.839627
0.84157
0.843854
0.846233
0.849005
0.851858
0.855058
0.857994
0.861555
0.864507
0.86872
0.871456
0.875719
0.878082
0.882256
0.884217
0.888162
0.889896
0.893532
0.895451
0.900212
5.7707
5.14615
4.54385
3.99227
3.50504
3.08573
2.73054
2.43262
2.18415
1.97769
1.8063
1.66443
1.54696
1.45038
1.37139
1.30885
1.25957
1.22254
1.19871
1.18383
1.17521
1.1707
1.16787
1.16572
1.16302
1.15838
1.15162
1.14289
1.13263
1.12148
1.11002
1.09866
1.08757
1.07681
1.06638
1.05621
1.04623
1.03639
1.02664
1.01699
1.00745
0.998069
0.988835
0.979754
0.970919
0.962372
0.954001
0.94583
0.938097
0.930666
0.923299
0.916051
0.909206
0.902714
0.896447
0.890433
0.88469
0.879231
0.87407
0.869213
0.864662
0.860427
0.856503
0.85289
0.849613
0.846641
0.843964
0.84166
0.8397
0.838042
0.83678
0.835883
0.835303
0.835346
0.835543
0.836017
0.836991
0.838712
0.841031
0.843935
0.847355
0.851377
0.855919
0.861021
0.866438
0.872407
0.878268
0.884621
0.890038
0.896205
0.900466
0.906758
0.909487
0.914338
0.915921
0.919332
0.92027
0.922444
0.923273
0.927178
5.82143
5.25599
4.70478
4.19022
3.72484
3.31406
2.95737
2.65115
2.38992
2.16824
1.98008
1.82097
1.68646
1.57333
1.47842
1.39971
1.33449
1.28243
1.24026
1.20783
1.18548
1.1705
1.16107
1.15533
1.15144
1.14811
1.14426
1.13905
1.13217
1.12365
1.11379
1.10298
1.09171
1.08041
1.06934
1.05863
1.04832
1.03834
1.02861
1.01906
1.00966
1.00039
0.991228
0.982179
0.973318
0.964693
0.956242
0.94797
0.940089
0.932569
0.925122
0.917838
0.910919
0.904366
0.898059
0.892012
0.886232
0.880729
0.875515
0.870601
0.865982
0.861674
0.857683
0.854003
0.850672
0.84768
0.845001
0.842745
0.840895
0.83941
0.838432
0.838222
0.83845
0.83911
0.840523
0.843166
0.846975
0.852098
0.858606
0.8666
0.875945
0.886604
0.89824
0.910789
0.923551
0.936719
0.949041
0.961364
0.971454
0.981571
0.987933
0.996389
0.999056
1.00333
1.00332
1.00327
1.00202
0.99976
0.994813
0.997994
5.85911
5.34047
4.83662
4.35815
3.91646
3.51802
3.16465
2.85501
2.58577
2.35304
2.15235
1.97982
1.83152
1.70443
1.59536
1.5023
1.42293
1.35619
1.30015
1.25451
1.21742
1.18864
1.16784
1.15339
1.14351
1.13679
1.13159
1.12696
1.12203
1.11601
1.10878
1.10015
1.09053
1.08019
1.06946
1.05859
1.04809
1.03789
1.02795
1.01827
1.00883
0.999596
0.990519
0.981578
0.9728
0.964205
0.955769
0.947483
0.939486
0.931868
0.924385
0.917073
0.910126
0.903546
0.89724
0.891205
0.885431
0.87992
0.874693
0.869754
0.865098
0.860742
0.856712
0.853017
0.849702
0.84679
0.844315
0.842408
0.841115
0.840909
0.841409
0.842867
0.845934
0.850941
0.858603
0.86903
0.882457
0.899038
0.918615
0.941025
0.965692
0.992035
1.01908
1.04669
1.07302
1.098
1.11991
1.13998
1.15543
1.16965
1.17782
1.1855
1.18636
1.18565
1.18203
1.17715
1.16704
1.15767
1.13966
1.14611
5.90404
5.42151
4.95455
4.5065
4.08684
3.70179
3.35429
3.04452
2.77075
2.53036
2.32011
2.13678
1.97713
1.83832
1.71765
1.61293
1.52212
1.44372
1.37625
1.31874
1.27006
1.22977
1.19683
1.17073
1.1509
1.1366
1.1263
1.11887
1.11299
1.10778
1.10246
1.09654
1.08971
1.08147
1.0722
1.06231
1.05184
1.04124
1.03077
1.02062
1.01078
1.00129
0.992101
0.983177
0.974493
0.966014
0.957704
0.949552
0.941605
0.933949
0.926521
0.919243
0.912267
0.905622
0.899237
0.893111
0.887241
0.881639
0.876346
0.871355
0.866656
0.862285
0.858312
0.854804
0.851857
0.849692
0.848361
0.848881
0.850456
0.853702
0.860316
0.871029
0.886685
0.907718
0.934755
0.967482
1.00613
1.05026
1.09788
1.14856
1.20185
1.2551
1.30422
1.34766
1.38256
1.41181
1.43267
1.44945
1.45819
1.46367
1.46526
1.46411
1.46068
1.45597
1.44689
1.43799
1.4202
1.40639
1.37808
1.3895
5.96405
5.5004
5.06099
4.63961
4.23997
3.86823
3.52788
3.22012
2.94436
2.69901
2.48178
2.29006
2.12129
1.97283
1.84242
1.72785
1.62725
1.53901
1.4617
1.39418
1.33546
1.28481
1.24158
1.20519
1.17533
1.15122
1.13246
1.11832
1.10776
1.09974
1.09321
1.08744
1.08156
1.07539
1.06838
1.06041
1.05153
1.04195
1.03197
1.02183
1.01179
1.00198
0.992468
0.983285
0.974438
0.965895
0.957618
0.949621
0.941883
0.934382
0.927076
0.91992
0.912918
0.906142
0.899625
0.893337
0.887259
0.881548
0.876182
0.871166
0.866564
0.862386
0.859058
0.856629
0.856037
0.857203
0.860613
0.86768
0.880305
0.900338
0.929424
0.967746
1.01627
1.07529
1.14374
1.22351
1.30769
1.38598
1.45224
1.50363
1.5386
1.5591
1.57023
1.57542
1.57529
1.57339
1.57023
1.56532
1.55996
1.55428
1.54876
1.54349
1.53722
1.53214
1.52522
1.52031
1.5121
1.50747
1.49931
1.50431
6.06226
5.59301
5.16477
4.76115
4.37855
4.01946
3.68701
3.38289
3.10715
2.85899
2.63683
2.43873
2.26261
2.10623
1.96758
1.84464
1.73565
1.63901
1.55333
1.47742
1.41029
1.3511
1.29918
1.25401
1.21518
1.18216
1.15475
1.13238
1.11463
1.10083
1.09021
1.08196
1.07522
1.06925
1.06348
1.0572
1.05016
1.04231
1.03375
1.02466
1.01523
1.00565
0.996114
0.986751
0.977665
0.968907
0.960493
0.952379
0.944526
0.936949
0.929546
0.922276
0.915154
0.908224
0.901559
0.895239
0.889178
0.883506
0.878466
0.873931
0.870339
0.868046
0.868912
0.871929
0.878329
0.891687
0.914254
0.950012
0.998642
1.06364
1.14288
1.24278
1.35573
1.45611
1.53775
1.58968
1.6167
1.62901
1.63264
1.63092
1.62745
1.62187
1.61519
1.60849
1.60082
1.59387
1.58631
1.57916
1.5718
1.5655
1.5584
1.55314
1.54642
1.54118
1.53468
1.52972
1.52297
1.51862
1.51109
1.51209
6.17616
5.69003
5.2619
4.87107
4.50351
4.157
3.83301
3.53362
3.25945
3.01025
2.78501
2.58228
2.40041
2.23758
2.09199
1.96191
1.84565
1.74173
1.64878
1.56563
1.49124
1.42475
1.36546
1.31276
1.2662
1.22541
1.19005
1.15984
1.13441
1.1135
1.0967
1.08336
1.07278
1.06429
1.05716
1.05095
1.04493
1.0386
1.03168
1.02405
1.01578
1.00703
0.997947
0.988731
0.979542
0.970505
0.961704
0.953195
0.944981
0.937043
0.929402
0.922125
0.915085
0.908444
0.902124
0.896205
0.890632
0.885905
0.882271
0.880761
0.882542
0.887995
0.89924
0.920645
0.958538
1.01358
1.08966
1.18724
1.3161
1.45146
1.56193
1.63383
1.6687
1.68289
1.68593
1.68331
1.67712
1.66876
1.65923
1.64915
1.63902
1.62945
1.61991
1.61118
1.60228
1.59417
1.58573
1.57831
1.57025
1.56416
1.55644
1.55131
1.54422
1.53957
1.53309
1.52888
1.52213
1.51844
1.51099
1.51219
6.30012
5.80716
5.36867
4.97962
4.61962
4.28329
3.96821
3.67421
3.4026
3.15359
2.9266
2.72061
2.53431
2.36626
2.21489
2.07869
1.95615
1.84587
1.74654
1.65702
1.57629
1.50346
1.43779
1.37867
1.32559
1.27816
1.23602
1.19892
1.16658
1.13881
1.11527
1.09571
1.0798
1.06697
1.05661
1.04814
1.04098
1.03454
1.02827
1.02179
1.01487
1.00741
0.999485
0.991177
0.98261
0.973923
0.965247
0.956703
0.948375
0.940325
0.932608
0.925229
0.91837
0.911903
0.905965
0.900977
0.897468
0.89788
0.901337
0.909188
0.927173
0.961934
1.01847
1.09941
1.20817
1.35736
1.51404
1.63745
1.70378
1.73223
1.74265
1.74047
1.73411
1.72337
1.71027
1.69683
1.6838
1.6715
1.65964
1.64814
1.63666
1.62568
1.61457
1.60429
1.59391
1.58452
1.57487
1.56668
1.55796
1.55128
1.54328
1.53789
1.53104
1.52653
1.52056
1.51693
1.5109
1.5079
1.5019
1.50229
6.30689
5.95365
5.49223
5.09024
4.73349
4.40333
4.09409
3.80533
3.53715
3.28943
3.06183
2.85376
2.6642
2.492
2.33587
2.19444
2.06644
1.95055
1.84557
1.7504
1.66404
1.5856
1.51434
1.44961
1.39089
1.33773
1.28979
1.24675
1.20838
1.17447
1.14477
1.11913
1.09725
1.07887
1.0637
1.05128
1.04107
1.0325
1.02508
1.01834
1.01187
1.00533
0.998502
0.991275
0.983683
0.975771
0.96763
0.959381
0.951145
0.943041
0.935217
0.927822
0.921236
0.915842
0.91239
0.913956
0.919537
0.931516
0.957458
1.00744
1.08582
1.19603
1.35583
1.53596
1.68627
1.76069
1.79344
1.80464
1.80051
1.78992
1.77518
1.75805
1.74105
1.72511
1.7098
1.69465
1.67924
1.66415
1.64896
1.63442
1.61998
1.60643
1.59309
1.58092
1.56894
1.55832
1.54771
1.53877
1.5296
1.52231
1.5145
1.50867
1.50223
1.49782
1.49245
1.48925
1.48424
1.48193
1.47786
1.47726
6.26055
6.05055
5.62568
5.20872
4.84529
4.5177
4.21399
3.93028
3.66571
3.41947
3.19178
2.98242
2.79055
2.6151
2.45501
2.30911
2.17629
2.05541
1.94535
1.84509
1.75366
1.67018
1.59391
1.52419
1.46047
1.40231
1.3493
1.30114
1.25757
1.21834
1.18328
1.15218
1.12481
1.10104
1.08058
1.06321
1.04863
1.03653
1.02641
1.0178
1.01023
1.00332
0.996722
0.990187
0.983475
0.97652
0.96931
0.961886
0.954385
0.947066
0.94023
0.93502
0.932057
0.934274
0.941462
0.95906
0.992732
1.0595
1.16282
1.31298
1.51647
1.70607
1.80957
1.85339
1.87078
1.86646
1.85512
1.83676
1.81533
1.79511
1.77569
1.75655
1.73691
1.71722
1.69728
1.6777
1.65827
1.63969
1.62154
1.60453
1.58806
1.57291
1.55826
1.54509
1.53232
1.52112
1.51016
1.50083
1.49163
1.48405
1.47647
1.47047
1.46437
1.45991
1.45506
1.45183
1.44801
1.44518
1.44397
1.44119
6.12865
6.02786
5.77069
5.34462
4.96541
4.63356
4.33213
4.0515
3.78899
3.5447
3.31776
3.10763
2.91387
2.73571
2.57225
2.42249
2.28545
2.16013
2.04552
1.94066
1.84461
1.75655
1.67571
1.60146
1.53324
1.47058
1.41309
1.36042
1.3123
1.26847
1.22871
1.19282
1.16066
1.13195
1.10657
1.08435
1.06505
1.04844
1.03429
1.02237
1.01225
1.00356
0.995875
0.988867
0.982268
0.975852
0.969504
0.963297
0.957697
0.952905
0.952487
0.955138
0.963941
0.985799
1.02866
1.11174
1.2363
1.44163
1.66804
1.8435
1.90735
1.93894
1.94039
1.93067
1.90931
1.88459
1.86016
1.83676
1.81325
1.78915
1.76434
1.73938
1.71455
1.69039
1.66684
1.64438
1.62274
1.60249
1.58311
1.56527
1.54821
1.53272
1.51787
1.50462
1.49189
1.4807
1.46994
1.46062
1.4517
1.44408
1.43681
1.43073
1.42498
1.42025
1.41601
1.41221
1.40949
1.40613
1.40497
1.40233
5.94282
5.92905
5.80006
5.50667
5.11126
4.76194
4.45317
4.17194
3.90956
3.6656
3.43927
3.22889
3.03382
2.8536
2.6874
2.53437
2.39367
2.26443
2.14574
2.03672
1.93647
1.84422
1.75921
1.68081
1.60848
1.54173
1.48017
1.42345
1.37127
1.32336
1.27948
1.23942
1.20296
1.16999
1.14025
1.11356
1.08981
1.06883
1.05044
1.03443
1.02062
1.00882
0.998762
0.990093
0.982542
0.975891
0.970831
0.967293
0.968509
0.9729
0.984678
1.00917
1.06142
1.16231
1.30761
1.55926
1.81018
1.94883
2.00231
2.02103
2.01231
1.99292
1.96782
1.93841
1.91055
1.88289
1.85404
1.82427
1.79406
1.76405
1.73453
1.706
1.6785
1.65249
1.62768
1.60454
1.58256
1.5623
1.54305
1.5255
1.50877
1.49367
1.47923
1.46634
1.454
1.4431
1.43268
1.42357
1.41491
1.4074
1.40037
1.39425
1.38874
1.38384
1.37975
1.37585
1.37306
1.36983
1.3685
1.36565
5.47974
5.80417
5.76054
5.60343
5.27528
4.90518
4.58086
4.2929
4.03049
3.78686
3.55975
3.34882
3.15204
2.96941
2.80063
2.64475
2.50087
2.36817
2.24582
2.13303
2.02895
1.93285
1.844
1.76179
1.68566
1.61516
1.54987
1.48944
1.43356
1.38196
1.33438
1.29061
1.25041
1.21359
1.18
1.14943
1.12169
1.09665
1.07422
1.05424
1.03661
1.02114
1.00775
0.996427
0.987482
0.981281
0.982572
0.987552
0.999874
1.02705
1.08513
1.19925
1.36287
1.64589
1.92373
2.03896
2.09316
2.09804
2.08578
2.05936
2.02915
1.99763
1.96581
1.93275
1.89811
1.86271
1.82729
1.79256
1.75882
1.72647
1.69555
1.6664
1.6388
1.61308
1.58874
1.56625
1.54492
1.52537
1.50676
1.48982
1.47364
1.459
1.445
1.43243
1.42043
1.40972
1.39954
1.39053
1.38204
1.37456
1.36762
1.36152
1.35602
1.35111
1.34698
1.34303
1.34023
1.33687
1.33549
1.33252
4.39738
5.50894
5.65768
5.58715
5.40589
5.0522
4.71467
4.41603
4.14861
3.90349
3.67592
3.46413
3.26731
3.08415
2.9129
2.75389
2.60695
2.47116
2.34556
2.22937
2.1218
2.02216
1.92976
1.84403
1.76439
1.69041
1.62167
1.5578
1.49852
1.44353
1.39258
1.34542
1.30185
1.26164
1.22459
1.19055
1.15931
1.13074
1.10468
1.08105
1.05983
1.04098
1.02457
1.01178
1.00627
1.00917
1.02033
1.04744
1.10632
1.22097
1.39813
1.69843
2.00142
2.11914
2.179
2.17547
2.15764
2.12794
2.0931
2.05863
2.02193
1.98302
1.94293
1.90265
1.86295
1.82441
1.78737
1.7521
1.71859
1.68697
1.65711
1.62914
1.60273
1.57814
1.5548
1.53321
1.51261
1.49367
1.47553
1.45896
1.44305
1.42858
1.41474
1.4022
1.39025
1.37949
1.36931
1.36021
1.35168
1.3441
1.33713
1.33093
1.32541
1.32042
1.31628
1.31228
1.30947
1.30611
1.3047
1.30165
2.71414
4.78113
5.45452
5.4956
5.40796
5.19954
4.86025
4.54661
4.27006
4.02098
3.79206
3.57914
3.38088
3.19571
3.02342
2.86317
2.71293
2.57359
2.44475
2.32542
2.21472
2.11189
2.01624
1.92726
1.84437
1.76716
1.6952
1.62815
1.56569
1.50755
1.45347
1.4032
1.35652
1.31322
1.27309
1.23591
1.20157
1.16988
1.14074
1.11405
1.09012
1.06932
1.0525
1.05266
1.06016
1.08102
1.13642
1.24622
1.4274
1.73796
2.06571
2.19715
2.26622
2.25905
2.23586
2.19994
2.15921
2.11882
2.07562
2.03061
1.98552
1.94134
1.8986
1.85763
1.81857
1.78149
1.74637
1.71316
1.6817
1.65199
1.62384
1.59733
1.57211
1.54847
1.52586
1.50478
1.48453
1.46579
1.44775
1.43113
1.41517
1.40053
1.38652
1.37374
1.36159
1.35057
1.34019
1.33083
1.32212
1.31432
1.30721
1.30083
1.29522
1.29013
1.28594
1.28192
1.2791
1.27579
1.27436
1.27124
1.90841
3.18609
4.93937
5.36007
5.35061
5.25333
5.03074
4.70315
4.40635
4.1458
3.91117
3.69579
3.49494
3.30763
3.13345
2.9703
2.81884
2.67754
2.54503
2.4221
2.30806
2.20213
2.10344
2.01139
1.92546
1.84522
1.77024
1.70021
1.63477
1.57368
1.51666
1.46348
1.41391
1.36774
1.32478
1.28484
1.24771
1.21346
1.18203
1.15334
1.1305
1.11554
1.12009
1.13942
1.18508
1.28502
1.46665
1.7854
2.14536
2.29824
2.37238
2.36396
2.33494
2.28587
2.23478
2.1847
2.13317
2.08141
2.03105
1.98286
1.93716
1.89402
1.85327
1.81475
1.77826
1.74372
1.71092
1.67975
1.65003
1.62176
1.59477
1.56915
1.54461
1.52142
1.49911
1.47816
1.45797
1.43913
1.42098
1.40412
1.38795
1.37301
1.35874
1.34562
1.33319
1.32182
1.31117
1.30148
1.29255
1.28445
1.27716
1.27058
1.26483
1.25962
1.25536
1.25131
1.24846
1.24521
1.24373
1.24049
1.46819
2.14965
3.72697
4.99481
5.24099
5.21528
5.10553
4.86917
4.56037
4.28197
4.0364
3.81484
3.61171
3.4222
3.2445
3.07886
2.92445
2.7799
2.64568
2.52024
2.40279
2.29335
2.19152
2.09649
2.00764
1.92452
1.84668
1.77382
1.70557
1.6417
1.5819
1.52598
1.4737
1.42488
1.37934
1.33702
1.29769
1.26207
1.23104
1.20484
1.20523
1.21813
1.25342
1.34392
1.51892
1.8453
2.24746
2.44036
2.51962
2.50677
2.47038
2.40727
2.33793
2.27503
2.21183
2.15048
2.0924
2.03803
1.98726
1.93975
1.89576
1.85481
1.81608
1.77927
1.74442
1.71139
1.67984
1.64973
1.62085
1.59328
1.56682
1.5416
1.51736
1.49434
1.47216
1.4512
1.43102
1.41204
1.39381
1.37673
1.3604
1.34519
1.33071
1.3173
1.30463
1.29295
1.28206
1.27207
1.26293
1.25455
1.24709
1.2403
1.23441
1.22908
1.22473
1.22063
1.21774
1.21453
1.21298
1.20959
1.22849
1.56659
2.35873
4.09553
4.96587
5.11954
5.08121
4.96255
4.71599
4.42854
4.16861
3.9379
3.72908
3.53668
3.35743
3.18932
3.03173
2.8843
2.74668
2.61792
2.49817
2.38594
2.28079
2.18262
2.09086
2.00494
1.92437
1.84883
1.77793
1.71144
1.64905
1.59057
1.53582
1.48466
1.43702
1.39355
1.35369
1.32195
1.30684
1.31474
1.34808
1.42697
1.58857
1.90742
2.36381
2.62486
2.71234
2.69637
2.65039
2.5724
2.48979
2.41001
2.33302
2.26066
2.19327
2.13009
2.07081
2.01537
1.96339
1.91475
1.86912
1.82634
1.78662
1.7494
1.71487
1.68225
1.65102
1.62124
1.59263
1.5653
1.53901
1.51392
1.48978
1.46677
1.44465
1.42364
1.40346
1.38436
1.36608
1.34884
1.33241
1.317
1.30238
1.28875
1.27592
1.26401
1.25295
1.24273
1.23342
1.22484
1.21724
1.21028
1.20429
1.19885
1.19444
1.19033
1.18739
1.18425
1.18264
1.1791
1.10664
1.26981
1.6456
2.50206
4.25807
4.89883
4.99754
4.95018
4.82593
4.57444
4.3077
4.06615
3.84917
3.65183
3.46934
3.29887
3.13914
2.98942
2.84899
2.71744
2.59424
2.47905
2.37146
2.27016
2.17526
2.08644
2.0032
1.92509
1.85171
1.78279
1.71807
1.65736
1.60071
1.54822
1.50006
1.46098
1.42935
1.43439
1.46153
1.52559
1.67559
1.96988
2.48003
2.84338
2.95024
2.93371
2.87674
2.78217
2.68317
2.58867
2.49625
2.40925
2.33012
2.25575
2.18653
2.12225
2.06207
2.00584
1.95292
1.90347
1.85651
1.81234
1.77034
1.73105
1.69378
1.6594
1.62701
1.5964
1.56709
1.53923
1.51249
1.48704
1.46261
1.43936
1.41706
1.39584
1.37553
1.35625
1.33785
1.32044
1.3039
1.28832
1.27359
1.25979
1.24684
1.23479
1.22359
1.21324
1.20381
1.1951
1.18742
1.18036
1.17432
1.16885
1.16444
1.16035
1.15742
1.15442