/*--------------------------------*- C++ -*----------------------------------*\
  =========                 |
  \\      /  F ield         | OpenFOAM: The Open Source CFD Toolbox
   \\    /   O peration     | Website:  https://openfoam.org
    \\  /    A nd           | Version:  13
     \\/     M anipulation  |
\*---------------------------------------------------------------------------*/
FoamFile
{
    format      ascii;
    class       surfaceScalarField;
    location    "1";
    object      phi;
}
// * * * * * * * * * * * * * * * * * * * * * * * * * * * * * * * * * * * * * //

dimensions      [1 0 -1 0 0 0 0];

internalField   nonuniform List<scalar> 
10325
(
0.00840003
2.37196e-11
0.00840004
9.0463e-11
0.00840002
4.34292e-10
0.00840005
8.81552e-10
0.00839993
3.24173e-09
0.0084002
5.74378e-09
0.00839934
2.2869e-08
0.00840119
3.43635e-08
0.00839592
1.59936e-07
0.00840531
2.19442e-07
0.00838285
1.01375e-06
0.00840266
1.81383e-06
0.00835271
6.61238e-06
0.00832628
1.98261e-05
0.00812854
7.79137e-05
0.00738714
0.0004053
0.00678954
0.000679661
0.00619067
0.000650595
0.00552412
0.000691358
0.00477711
0.000754411
0.00392928
0.000831792
0.00302266
0.000903552
0.00205967
0.000956599
0.00104663
0.000990254
0.000981936
0.00840003
2.88267e-11
0.00840004
2.47895e-10
0.00840001
6.59272e-10
0.00840008
2.4333e-09
0.0083999
5.02535e-09
0.0084003
1.67432e-08
0.00839926
3.13067e-08
0.00840143
1.11503e-07
0.00839595
1.87755e-07
0.00840508
7.17501e-07
0.00838474
1.30687e-06
0.00840148
4.47793e-06
0.008356
1.14844e-05
0.00833069
3.84164e-05
0.00814913
0.000144161
0.00749355
0.000734978
0.00686643
0.0013752
0.00623217
0.00133178
0.00554751
0.00139882
0.00479148
0.0015168
0.00392833
0.00167619
0.00301053
0.0018157
0.00204177
0.00191768
0.00103008
0.00197904
0.00194787
0.00840003
4.90124e-11
0.00840004
3.05742e-10
0.00840002
1.08188e-09
0.00840005
3.00437e-09
0.00839994
8.08433e-09
0.00840019
2.02708e-08
0.0083994
5.17367e-08
0.00840114
1.28472e-07
0.00839632
3.21298e-07
0.00840535
8.14697e-07
0.0083847
2.071e-06
0.00840539
5.47289e-06
0.00836111
1.54271e-05
0.00834832
4.86799e-05
0.00820602
0.000181112
0.00774894
0.000906986
0.00704962
0.00208968
0.00632926
0.00207881
0.00561237
0.00213263
0.00484472
0.00228826
0.0039731
0.00252443
0.0030462
0.00273227
0.00206811
0.00288588
0.00104446
0.0029798
0.00292995
0.00840003
6.51132e-11
0.00840004
3.97561e-10
0.00840002
1.39757e-09
0.00840005
3.88698e-09
0.00839995
1.04441e-08
0.00840017
2.58953e-08
0.00839945
6.62215e-08
0.00840103
1.61055e-07
0.00839665
4.1339e-07
0.00840494
1.00451e-06
0.00838639
2.5966e-06
0.00840641
6.61657e-06
0.00836889
1.83258e-05
0.00836668
5.55886e-05
0.0082864
0.000195649
0.00808254
0.000921074
0.00724616
0.00286656
0.00644089
0.00288731
0.00570134
0.00288677
0.0049327
0.00305951
0.00406036
0.00336853
0.00312783
0.00365056
0.00213485
0.00386727
0.00108419
0.00400886
0.00395394
0.00840003
7.84434e-11
0.00840004
4.86912e-10
0.00840002
1.69091e-09
0.00840005
4.75897e-09
0.00839995
1.25491e-08
0.00840017
3.17183e-08
0.00839947
7.94757e-08
0.00840104
1.97017e-07
0.00839672
4.88965e-07
0.00840507
1.21797e-06
0.00838657
3.05463e-06
0.00840767
7.84053e-06
0.0083706
2.13141e-05
0.00837186
6.38656e-05
0.00830215
0.000218977
0.00810552
0.00099909
0.00734294
0.00348854
0.0065276
0.00367821
0.00579718
0.00362778
0.00505014
0.00380857
0.00418449
0.00420436
0.00325467
0.0045644
0.0022497
0.00486034
0.00115691
0.00508108
0.00505289
0.00840003
9.90733e-11
0.00840004
5.31654e-10
0.00840002
2.04772e-09
0.00840005
5.21313e-09
0.00839996
1.51102e-08
0.00840017
3.46669e-08
0.0083995
9.61928e-08
0.008401
2.13275e-07
0.00839686
5.94637e-07
0.00840502
1.31533e-06
0.00838682
3.65337e-06
0.0084085
8.68266e-06
0.00837153
2.42769e-05
0.00837626
7.07617e-05
0.00831913
0.000239815
0.00815301
0.00106312
0.00740441
0.00409546
0.00657993
0.00446604
0.00591706
0.00430656
0.00520294
0.00452827
0.00434975
0.00502329
0.00342904
0.00546747
0.00240461
0.00587065
0.00126036
0.00620272
0.00625701
0.00840003
9.55748e-11
0.00840004
6.71958e-10
0.00840001
2.15527e-09
0.00840007
6.50026e-09
0.00839992
1.6072e-08
0.00840026
4.23787e-08
0.00839939
1.02785e-07
0.0084013
2.62665e-07
0.00839663
6.36263e-07
0.0084055
1.62238e-06
0.0083867
3.9577e-06
0.00840897
1.02308e-05
0.00837026
2.71277e-05
0.00837665
7.94764e-05
0.00831422
0.000263818
0.00817878
0.00111365
0.00740301
0.0047311
0.00678911
0.00502963
0.00611962
0.00499947
0.00536565
0.00528676
0.00456496
0.00578275
0.00366888
0.00634282
0.0026389
0.00688649
0.0014326
0.00739171
0.00763744
0.00840003
1.15645e-10
0.00840004
7.00458e-10
0.00840002
2.49545e-09
0.00840005
6.78872e-09
0.00839995
1.87118e-08
0.00840021
4.54873e-08
0.00839946
1.17601e-07
0.0084012
2.83624e-07
0.00839677
7.20797e-07
0.00840578
1.73432e-06
0.00838606
4.45258e-06
0.00841114
1.10042e-05
0.00836922
2.97217e-05
0.00837955
8.51767e-05
0.00833639
0.000282088
0.00822783
0.00113809
0.00755388
0.00523189
0.00696343
0.0056089
0.00633517
0.00562941
0.0056075
0.00600102
0.00484572
0.00649728
0.00399315
0.00717801
0.00296767
0.007908
0.0016995
0.00865129
0.00928916
0.00840003
1.47345e-10
0.00840004
6.67034e-10
0.00840002
2.97808e-09
0.00840006
6.5893e-09
0.00839995
2.18822e-08
0.00840021
4.46864e-08
0.00839951
1.36643e-07
0.00840107
2.8154e-07
0.00839717
8.23624e-07
0.0084048
1.78693e-06
0.00838783
4.94191e-06
0.00840948
1.17187e-05
0.00837046
3.19756e-05
0.00838437
8.9939e-05
0.00832815
0.000293569
0.00825934
0.00114556
0.00774472
0.00553648
0.00713234
0.00622394
0.00654308
0.00621793
0.00592099
0.00660543
0.00521993
0.00716911
0.00444322
0.00795489
0.00352639
0.00883178
0.0021903
0.00999334
0.0114417
0.00840003
1.02946e-10
0.00840003
8.84489e-10
0.00840003
2.4461e-09
0.00840002
8.64447e-09
0.00840004
1.83608e-08
0.00839993
5.78244e-08
0.00840018
1.16701e-07
0.0083992
3.58928e-07
0.00840137
7.29833e-07
0.00839532
2.1825e-06
0.00840506
4.65372e-06
0.00838423
1.32447e-05
0.00839956
3.23575e-05
0.00836304
9.4314e-05
0.00834901
0.000298359
0.00828481
0.0011328
0.00803104
0.00555569
0.0074355
0.00684375
0.0068584
0.00680881
0.00634371
0.0071153
0.00575723
0.00772704
0.00514766
0.008549
0.00430768
0.00966447
0.00300011
0.0112907
0.0144106
0.00840003
1.41712e-10
0.00840003
6.93263e-10
0.00840003
2.88791e-09
0.00840003
6.80557e-09
0.0084
2.1549e-08
0.00840008
4.60358e-08
0.00839975
1.38923e-07
0.00840055
2.89952e-07
0.00839813
8.62506e-07
0.00840332
1.82555e-06
0.00839049
5.31016e-06
0.00840846
1.20544e-05
0.00837628
3.38587e-05
0.00839177
9.13325e-05
0.00835471
0.000291172
0.00836532
0.00107481
0.00858396
0.00508571
0.00798495
0.00747331
0.00733387
0.00746627
0.00684022
0.00758658
0.00637789
0.00814878
0.00595239
0.00895753
0.00561648
0.00999756
0.0056671
0.011248
0.0114797
0.008585
0.00840003
8.84164e-11
0.00840003
7.24533e-10
0.00840003
2.08256e-09
0.00840003
7.10095e-09
0.00840003
1.58342e-08
0.0084
4.73908e-08
0.00840008
1.01934e-07
0.00839967
2.98066e-07
0.00840074
6.41932e-07
0.00839749
1.84794e-06
0.00840374
4.1175e-06
0.00839123
1.14702e-05
0.0084062
2.81262e-05
0.00839053
7.98706e-05
0.00842763
0.00024165
0.00856785
0.000870699
0.00952376
0.0038502
0.00883882
0.00817451
0.00803295
0.00828738
0.00754733
0.00806705
0.00716029
0.00852484
0.00687622
0.00923619
0.00683169
0.0100532
0.00729957
0.0108087
0.0106178
0.00818289
0.00840003
1.01964e-10
0.00840003
5.20618e-10
0.00840003
2.12859e-09
0.00840004
5.11339e-09
0.00840001
1.57521e-08
0.0084001
3.48083e-08
0.00839984
9.89316e-08
0.00840051
2.20788e-07
0.00839878
6.0041e-07
0.00840308
1.39106e-06
0.00839388
3.64021e-06
0.00841216
8.8454e-06
0.0083866
2.28251e-05
0.00842869
6.05931e-05
0.00844828
0.000176307
0.00868923
0.000594186
0.00991643
0.00247621
0.00945976
0.008567
0.00895889
0.0087536
0.00829048
0.00871249
0.00791879
0.00885865
0.00776436
0.00935753
0.0079113
0.00989336
0.00847141
0.0102643
0.010057
0.00905668
0.00840003
7.41615e-11
0.00840003
5.28552e-10
0.00840004
1.63887e-09
0.00840002
5.16678e-09
0.00840006
1.23734e-08
0.00839995
3.37056e-08
0.00840022
8.04479e-08
0.0083996
2.04985e-07
0.00840103
5.08187e-07
0.00839781
1.23258e-06
0.00840431
3.18998e-06
0.00839189
7.54288e-06
0.00841089
2.00369e-05
0.00838795
5.0934e-05
0.00842683
0.000147281
0.00849824
0.000474926
0.0090141
0.00187276
0.00952668
0.00783404
0.00922665
0.00901486
0.00876663
0.00914257
0.00850739
0.00909854
0.00845856
0.00938499
0.00863009
0.00970618
0.00909789
0.00980313
0.00953973
0.00963348
0.00840003
7.07578e-11
0.00840003
4.31852e-10
0.00840003
1.54332e-09
0.00840004
4.23945e-09
0.00840001
1.14935e-08
0.00840009
2.89371e-08
0.00839991
7.20044e-08
0.0084003
1.84419e-07
0.00839944
4.36388e-07
0.00840106
1.1607e-06
0.00839746
2.65694e-06
0.00840346
7.26215e-06
0.00839182
1.70824e-05
0.00840633
4.67522e-05
0.0083944
0.000127529
0.00845009
0.000405959
0.00873123
0.00151439
0.00968452
0.00666237
0.00954056
0.00916009
0.0092603
0.00941319
0.00903417
0.00931245
0.00902773
0.00938875
0.00919172
0.00955008
0.00953347
0.00948251
0.00913118
0.00996542
0.00840003
6.06687e-11
0.00840003
3.52968e-10
0.00840004
1.28012e-09
0.00840003
3.46824e-09
0.00840005
9.60874e-09
0.0084
2.31414e-08
0.0084001
6.20418e-08
0.00839992
1.43975e-07
0.00840017
3.91097e-07
0.00839985
8.89378e-07
0.00839992
2.44424e-06
0.00839997
5.61182e-06
0.00840057
1.52589e-05
0.00840094
3.76638e-05
0.00841552
0.000105898
0.00847298
0.00031836
0.00880189
0.00113994
0.0104073
0.00478647
0.0101479
0.00940048
0.00987956
0.00967151
0.00957212
0.00961553
0.00954217
0.00940537
0.00967826
0.00940787
0.00990892
0.00924696
0.00884837
0.0102118
0.00840003
4.14172e-11
0.00840003
3.00711e-10
0.00840003
9.35511e-10
0.00840003
2.95141e-09
0.00840003
7.03367e-09
0.00840002
1.96431e-08
0.00840008
4.50056e-08
0.00839991
1.21392e-07
0.00840045
2.8058e-07
0.00839918
7.37041e-07
0.00840283
1.74369e-06
0.0083958
4.48498e-06
0.0084133
1.09628e-05
0.00839467
2.8135e-05
0.00844731
7.38052e-05
0.00850726
0.000212373
0.0089317
0.000698848
0.0108145
0.00277097
0.0107992
0.00930201
0.0105918
0.0098575
0.0102339
0.0099575
0.010023
0.0096095
0.0100591
0.00936885
0.0102034
0.0090977
0.00866519
0.0103989
0.00840003
3.60867e-11
0.00840003
2.26111e-10
0.00840003
7.89489e-10
0.00840004
2.22683e-09
0.00840002
5.89066e-09
0.00840006
1.50281e-08
0.00839998
3.71822e-08
0.00840019
9.50194e-08
0.00839976
2.26928e-07
0.00840085
5.90382e-07
0.00839874
1.38593e-06
0.00840358
3.63934e-06
0.00839597
8.58287e-06
0.00841258
2.26578e-05
0.00840198
5.70588e-05
0.0084598
0.000161652
0.00860637
0.000506839
0.00935401
0.00194343
0.0108944
0.00753915
0.0109018
0.00983472
0.0107046
0.0101441
0.010466
0.00984547
0.0104371
0.00938782
0.0105083
0.00901621
0.00856344
0.0106091
0.00840003
2.87021e-11
0.00840003
1.71746e-10
0.00840003
6.12186e-10
0.00840003
1.68718e-09
0.00840003
4.59229e-09
0.00840004
1.12595e-08
0.00840002
2.96174e-08
0.00840011
6.99467e-08
0.00839985
1.85102e-07
0.00840067
4.31302e-07
0.00839879
1.14769e-06
0.00840408
2.67954e-06
0.00839397
7.14413e-06
0.00841658
1.71456e-05
0.00839247
4.5834e-05
0.00845228
0.000122378
0.00853172
0.00037255
0.00910911
0.00132561
0.0111977
0.00518235
0.0112663
0.00973961
0.011195
0.0101833
0.0109394
0.0100903
0.0107777
0.00955252
0.0107561
0.0090318
0.00852169
0.0107952
0.00840003
2.04916e-11
0.00840003
1.28304e-10
0.00840003
4.48146e-10
0.00840004
1.26378e-09
0.00840003
3.35558e-09
0.00840005
8.50251e-09
0.00840001
2.13173e-08
0.00840012
5.31688e-08
0.00839994
1.31472e-07
0.00840045
3.27146e-07
0.00839971
8.06431e-07
0.0084018
2.01057e-06
0.00839992
4.95743e-06
0.00840866
1.2436e-05
0.00840923
3.13321e-05
0.00845394
8.23705e-05
0.00855967
0.00023313
0.00910073
0.000757162
0.0113113
0.00285779
0.0118171
0.00911012
0.0117491
0.0102316
0.0115037
0.0103286
0.0112021
0.00986815
0.0110914
0.00914621
0.00856615
0.0110449
0.00840003
1.50653e-11
0.00840003
9.39832e-11
0.00840003
3.31412e-10
0.00840003
9.21765e-10
0.00840003
2.48514e-09
0.00840004
6.23184e-09
0.00840002
1.5746e-08
0.0084001
3.95342e-08
0.00839996
9.61765e-08
0.00840035
2.47258e-07
0.00839976
5.85966e-07
0.00840129
1.53936e-06
0.00839972
3.58819e-06
0.00840523
9.54027e-06
0.00840406
2.27377e-05
0.00842789
6.07825e-05
0.00847029
0.00016319
0.0086967
0.000507246
0.00961242
0.00187085
0.0118057
0.00665997
0.0120218
0.00997233
0.0119098
0.0103939
0.0115539
0.0102044
0.0113959
0.00929597
0.00869033
0.011268
0.00840003
1.06335e-11
0.00840003
6.70547e-11
0.00840003
2.2973e-10
0.00840003
6.60416e-10
0.00840004
1.71802e-09
0.00840003
4.38771e-09
0.00840004
1.10164e-08
0.00840003
2.69453e-08
0.00840007
6.86853e-08
0.00840012
1.63009e-07
0.00840008
4.23474e-07
0.00840097
9.8616e-07
0.00839966
2.60337e-06
0.00840657
6.03728e-06
0.00840108
1.60117e-05
0.00843151
3.87565e-05
0.00845523
0.000105459
0.00864567
0.000299981
0.00940495
0.00101489
0.0120254
0.00369833
0.0123787
0.00955728
0.0124522
0.0103294
0.01229
0.01038
0.0118199
0.00979578
0.008947
0.011572
0.00840003
7.50919e-12
0.00840003
4.58336e-11
0.00840003
1.63787e-10
0.00840003
4.49961e-10
0.00840003
1.22229e-09
0.00840004
3.02885e-09
0.00840003
7.70837e-09
0.00840006
1.90481e-08
0.00840001
4.68462e-08
0.00840019
1.17899e-07
0.00839997
2.8282e-07
0.00840068
7.26267e-07
0.00840028
1.70805e-06
0.00840261
4.45813e-06
0.00840374
1.0491e-05
0.00841524
2.75153e-05
0.00843532
6.86152e-05
0.00853126
0.000191922
0.0089108
0.000592217
0.0103181
0.00218667
0.0125078
0.00717096
0.0127466
0.010069
0.0126791
0.0104161
0.0121788
0.0102652
0.00921184
0.0118957
0.00840003
5.04328e-12
0.00840003
3.07548e-11
0.00840003
1.0871e-10
0.00840003
3.02242e-10
0.00840003
8.1455e-10
0.00840003
2.00826e-09
0.00840004
5.18861e-09
0.00840003
1.23952e-08
0.00840006
3.19461e-08
0.00840006
7.52882e-08
0.00840012
1.95283e-07
0.00840037
4.57355e-07
0.00840019
1.18821e-06
0.00840269
2.80405e-06
0.00840097
7.23971e-06
0.00841509
1.75265e-05
0.00842002
4.53998e-05
0.00848911
0.000118936
0.00868904
0.000346908
0.00963101
0.00118139
0.0123543
0.00411827
0.012901
0.00943847
0.0130473
0.0102681
0.0128946
0.0104215
0.0097248
0.0123923
0.00840003
3.16383e-12
0.00840003
2.05999e-11
0.00840003
6.93968e-11
0.00840003
2.03435e-10
0.00840003
5.19664e-10
0.00840003
1.35673e-09
0.00840004
3.30929e-09
0.00840003
8.39661e-09
0.00840007
2.04503e-08
0.0084
5.11401e-08
0.00840026
1.25365e-07
0.00839986
3.10936e-07
0.00840134
7.67736e-07
0.0083993
1.8878e-06
0.00840687
4.71632e-06
0.00839938
1.15781e-05
0.00843039
2.93472e-05
0.00843669
7.48142e-05
0.00858571
0.000206418
0.00906824
0.000637969
0.0108103
0.00228406
0.0130339
0.00699756
0.0132048
0.01007
0.0133164
0.0102713
0.0101773
0.0128477
0.00840003
1.98539e-12
0.00840003
1.31785e-11
0.00840003
4.40645e-11
0.00840003
1.29675e-10
0.00840003
3.30486e-10
0.00840003
8.63485e-10
0.00840003
2.09786e-09
0.00840003
5.33668e-09
0.00840005
1.28974e-08
0.00840003
3.23759e-08
0.00840016
7.87035e-08
0.00839995
1.95412e-07
0.00840092
4.79686e-07
0.00839954
1.18089e-06
0.00840531
2.92488e-06
0.00839861
7.18414e-06
0.00842558
1.80511e-05
0.00841647
4.52231e-05
0.00852413
0.000119955
0.00874506
0.00034322
0.00979662
0.00115999
0.0125971
0.00385288
0.0134278
0.00917692
0.0136212
0.0100937
0.0103932
0.013417
0.00840003
1.23567e-12
0.00840003
8.27363e-12
0.00840003
2.77178e-11
0.00840003
8.1355e-11
0.00840003
2.08115e-10
0.00840003
5.43e-10
0.00840003
1.3177e-09
0.00840004
3.38004e-09
0.00840004
8.05133e-09
0.00840004
2.068e-08
0.00840008
4.89403e-08
0.00840004
1.25466e-07
0.00840043
2.98292e-07
0.00839994
7.59369e-07
0.00840274
1.82404e-06
0.0083996
4.60406e-06
0.00841537
1.12833e-05
0.00840722
2.84698e-05
0.00847447
7.26305e-05
0.00856141
0.000198023
0.00911275
0.000605551
0.0107418
0.00210057
0.0133514
0.0063361
0.0135869
0.00982959
0.0100596
0.0139042
0.00840003
7.92281e-13
0.00840003
4.90215e-12
0.00840003
1.73953e-11
0.00840003
4.8349e-11
0.00840003
1.30228e-10
0.00840003
3.24746e-10
0.00840003
8.22306e-10
0.00840004
2.02405e-09
0.00840003
5.00751e-09
0.00840006
1.23837e-08
0.00840003
3.02345e-08
0.00840016
7.53593e-08
0.00840004
1.81956e-07
0.00840069
4.56538e-07
0.00840043
1.09341e-06
0.00840302
2.76549e-06
0.00840456
6.59657e-06
0.00841651
1.68028e-05
0.00843644
4.11142e-05
0.00851864
0.000108229
0.00878315
0.000300777
0.00980685
0.000977534
0.0127299
0.00312703
0.013937
0.00855577
0.0099526
0.0140295
0.00840003
4.8615e-13
0.00840003
2.88703e-12
0.00840003
1.05216e-11
0.00840003
2.84889e-11
0.00840003
7.86092e-11
0.00840003
1.90654e-10
0.00840003
4.99308e-10
0.00840003
1.18237e-09
0.00840003
3.05621e-09
0.00840004
7.23443e-09
0.00840003
1.84957e-08
0.00840011
4.41869e-08
0.00840001
1.11267e-07
0.00840054
2.6982e-07
0.00839989
6.68061e-07
0.00840303
1.64635e-06
0.00839984
4.02068e-06
0.00841554
1.00769e-05
0.00840864
2.46503e-05
0.00847295
6.34174e-05
0.00854933
0.000167442
0.00901885
0.000499993
0.0103661
0.00168232
0.0134355
0.00518803
0.00929549
0.0140131
0.00840003
2.7302e-13
0.00840003
1.76413e-12
0.00840003
5.96236e-12
0.00840003
1.74087e-11
0.00840003
4.46773e-11
0.00840003
1.1544e-10
0.00840003
2.84866e-10
0.00840003
7.10401e-10
0.00840004
1.76232e-09
0.00840003
4.29745e-09
0.00840005
1.08054e-08
0.00840004
2.59559e-08
0.00840011
6.60194e-08
0.00840013
1.56665e-07
0.00840037
4.02231e-07
0.00840092
9.46523e-07
0.00840149
2.43969e-06
0.00840648
5.74928e-06
0.00840988
1.47964e-05
0.00843949
3.57495e-05
0.00849286
9.33863e-05
0.00872704
0.000251853
0.0095652
0.000784747
0.012136
0.00252109
0.00712645
0.0141086
0.00840003
1.51685e-13
0.00840003
1.0114e-12
0.00840003
3.39651e-12
0.00840003
9.98415e-12
0.00840003
2.54483e-11
0.00840003
6.67775e-11
0.00840003
1.60372e-10
0.00840003
4.14235e-10
0.00840003
9.77867e-10
0.00840003
2.51643e-09
0.00840004
5.92917e-09
0.00840004
1.51782e-08
0.00840009
3.59336e-08
0.00840004
9.10712e-08
0.00840045
2.18033e-07
0.00840003
5.44731e-07
0.00840265
1.32203e-06
0.00840035
3.26503e-06
0.00841472
8.0465e-06
0.00840775
1.98101e-05
0.00847227
5.01234e-05
0.00853014
0.000129901
0.00894104
0.000371042
0.0101191
0.00120982
0.00368258
0.0131629
0.00840003
9.03553e-14
0.00840003
5.46089e-13
0.00840003
1.97615e-12
0.00840003
5.39271e-12
0.00840003
1.47608e-11
0.00840003
3.60787e-11
0.00840003
9.28414e-11
0.00840003
2.24389e-10
0.00840003
5.62272e-10
0.00840004
1.37375e-09
0.00840003
3.3789e-09
0.00840005
8.36579e-09
0.00840004
2.02473e-08
0.00840011
5.07884e-08
0.0084001
1.21366e-07
0.00840037
3.07348e-07
0.0084007
7.28201e-07
0.00840148
1.85745e-06
0.00840497
4.39518e-06
0.00840827
1.12578e-05
0.00843109
2.71752e-05
0.00846938
7.04726e-05
0.00863582
0.000185863
0.00923354
0.000558514
0.00180765
0.0110096
0.00840003
4.85076e-14
0.00840003
3.08893e-13
0.00840003
1.05979e-12
0.00840003
3.04461e-12
0.00840003
7.9244e-12
0.00840003
2.01617e-11
0.00840003
5.0454e-11
0.00840003
1.23301e-10
0.00840003
3.10283e-10
0.00840003
7.42641e-10
0.00840003
1.88796e-09
0.00840004
4.46476e-09
0.00840004
1.14542e-08
0.00840008
2.68788e-08
0.00840005
6.91579e-08
0.00840035
1.62471e-07
0.00840007
4.16032e-07
0.00840203
9.83177e-07
0.00840038
2.50375e-06
0.00841161
5.97829e-06
0.00840588
1.51418e-05
0.00845973
3.70458e-05
0.00849463
9.58638e-05
0.00881055
0.000258791
0.000797202
0.00973806
0.00840003
2.61131e-14
0.00840003
1.65067e-13
0.00840003
5.76225e-13
0.00840003
1.63072e-12
0.00840003
4.30244e-12
0.00840003
1.08964e-11
0.00840003
2.69756e-11
0.00840003
6.74773e-11
0.00840003
1.63535e-10
0.00840003
4.09613e-10
0.00840003
9.85032e-10
0.00840004
2.47713e-09
0.00840004
5.91053e-09
0.00840005
1.49415e-08
0.00840008
3.54886e-08
0.0084001
8.96826e-08
0.00840036
2.13087e-07
0.00840031
5.36446e-07
0.0084023
1.27925e-06
0.00840159
3.20037e-06
0.00841395
7.71095e-06
0.00841285
1.92641e-05
0.0084753
4.76362e-05
0.00855012
0.000123546
0.000345242
0.00898686
0.00840003
1.4051e-14
0.00840003
8.58192e-14
0.00840003
3.07383e-13
0.00840003
8.49081e-13
0.00840003
2.29384e-12
0.00840003
5.65918e-12
0.00840003
1.44566e-11
0.00840003
3.48798e-11
0.00840003
8.75572e-11
0.00840003
2.11469e-10
0.00840003
5.24914e-10
0.00840004
1.27747e-09
0.00840003
3.13737e-09
0.00840005
7.69279e-09
0.00840004
1.87307e-08
0.00840012
4.62382e-08
0.0084001
1.11707e-07
0.00840045
2.77413e-07
0.00840066
6.64906e-07
0.00840189
1.66295e-06
0.00840486
3.9725e-06
0.00840977
9.98503e-06
0.00843145
2.41604e-05
0.00847186
6.17108e-05
0.000160091
0.00863456
0.00840003
7.16761e-15
0.00840003
4.50288e-14
0.00840003
1.57752e-13
0.00840003
4.43693e-13
0.00840003
1.17908e-12
0.00840003
2.9439e-12
0.00840003
7.45284e-12
0.00840003
1.80231e-11
0.00840003
4.539e-11
0.00840003
1.08463e-10
0.00840003
2.72871e-10
0.00840003
6.50895e-10
0.00840003
1.63171e-09
0.00840004
3.9095e-09
0.00840004
9.71322e-09
0.00840008
2.35073e-08
0.00840005
5.77957e-08
0.00840032
1.41084e-07
0.00840016
3.44013e-07
0.00840169
8.47651e-07
0.00840105
2.05247e-06
0.00840923
5.10167e-06
0.00840846
1.23778e-05
0.00844904
3.11875e-05
7.80421e-05
0.00848768
0.00840003
3.51951e-15
0.00840003
2.31587e-14
0.00840003
7.88065e-14
0.00840003
2.2867e-13
0.00840003
5.89568e-13
0.00840003
1.5136e-12
0.00840003
3.72267e-12
0.00840003
9.24042e-12
0.00840003
2.27128e-11
0.00840003
5.52678e-11
0.00840003
1.3709e-10
0.00840003
3.29554e-10
0.00840003
8.24084e-10
0.00840003
1.96161e-09
0.00840004
4.94637e-09
0.00840005
1.16969e-08
0.00840006
2.9572e-08
0.00840015
6.99935e-08
0.00840013
1.76401e-07
0.00840086
4.19951e-07
0.0084005
1.04931e-06
0.00840531
2.52966e-06
0.00840331
6.26361e-06
0.0084307
1.53385e-05
3.81843e-05
0.0084337
0.00840003
1.72413e-15
0.00840003
1.13951e-14
0.00840003
3.85241e-14
0.00840003
1.13641e-13
0.00840003
2.8938e-13
0.00840003
7.55934e-13
0.00840003
1.82091e-12
0.00840003
4.64671e-12
0.00840003
1.102e-11
0.00840003
2.79531e-11
0.00840003
6.6208e-11
0.00840003
1.6692e-10
0.00840003
3.977e-10
0.00840003
9.92947e-10
0.00840004
2.3879e-09
0.00840004
5.89803e-09
0.00840006
1.43555e-08
0.00840006
3.49704e-08
0.0084002
8.61093e-08
0.00840021
2.07541e-07
0.00840084
5.16044e-07
0.00840153
1.23077e-06
0.00840406
3.08699e-06
0.00841066
7.32762e-06
1.85121e-05
0.00842428
0.00840003
8.71671e-16
0.00840003
5.60199e-15
0.00840003
1.93951e-14
0.00840003
5.39767e-14
0.00840003
1.44551e-13
0.00840003
3.57009e-13
0.00840003
9.07115e-13
0.00840003
2.19807e-12
0.00840003
5.46869e-12
0.00840003
1.33124e-11
0.00840003
3.25616e-11
0.00840003
8.00639e-11
0.00840003
1.93656e-10
0.00840003
4.80528e-10
0.00840003
1.14995e-09
0.00840004
2.87626e-09
0.00840004
6.83347e-09
0.00840005
1.71583e-08
0.0084001
4.06757e-08
0.00840012
1.01847e-07
0.00840052
2.42124e-07
0.00840046
6.01654e-07
0.00840315
1.44217e-06
0.00840252
3.545e-06
8.5993e-06
0.00841867
0.00840003
4.55717e-16
0.00840003
2.56216e-15
0.00840003
9.2145e-15
0.00840003
2.57285e-14
0.00840003
6.82996e-14
0.00840003
1.70739e-13
0.00840003
4.30799e-13
0.00840003
1.03963e-12
0.00840003
2.62022e-12
0.00840003
6.22584e-12
0.00840003
1.57354e-11
0.00840003
3.71947e-11
0.00840003
9.39585e-11
0.00840003
2.22153e-10
0.00840003
5.58481e-10
0.00840004
1.32979e-09
0.00840003
3.30391e-09
0.00840005
7.9507e-09
0.00840005
1.94865e-08
0.00840013
4.74947e-08
0.00840014
1.14525e-07
0.00840054
2.82721e-07
0.00840087
6.72361e-07
0.00840242
1.67918e-06
3.95695e-06
0.00840607
0.00840003
1.46232e-16
0.00840003
1.18972e-15
0.00840003
3.96783e-15
0.00840003
1.20736e-14
0.00840003
3.10271e-14
0.00840003
8.08368e-14
0.00840003
1.95139e-13
0.00840003
4.97524e-13
0.00840003
1.18215e-12
0.00840003
2.98298e-12
0.00840003
7.11972e-12
0.00840003
1.77369e-11
0.00840003
4.27219e-11
0.00840003
1.05058e-10
0.00840003
2.55933e-10
0.00840003
6.21216e-10
0.00840004
1.5281e-09
0.00840004
3.66887e-09
0.00840005
9.09303e-09
0.00840006
2.16233e-08
0.00840011
5.39393e-08
0.00840025
1.2735e-07
0.00840037
3.18462e-07
0.0084015
7.51911e-07
1.8746e-06
0.00840173
0.00840003
3.17942e-17
0.00840003
4.10316e-16
0.00840003
1.74969e-15
0.00840003
4.99318e-15
0.00840003
1.39105e-14
0.00840003
3.58397e-14
0.00840003
9.05404e-14
0.00840003
2.21596e-13
0.00840003
5.48452e-13
0.00840003
1.34048e-12
0.00840003
3.26311e-12
0.00840003
8.05833e-12
0.00840003
1.93239e-11
0.00840003
4.83081e-11
0.00840003
1.14292e-10
0.00840003
2.87781e-10
0.00840003
6.77498e-10
0.00840003
1.70407e-09
0.00840004
4.01697e-09
0.00840004
1.00356e-08
0.00840009
2.38242e-08
0.00840008
5.89372e-08
0.00840035
1.41121e-07
0.00840033
3.45472e-07
8.37651e-07
0.00840184
0.00840003
1.61411e-16
0.00840003
4.53847e-16
0.00840003
1.20718e-15
0.00840003
3.05471e-15
0.00840003
6.96738e-15
0.00840003
1.64752e-14
0.00840003
4.10287e-14
0.00840003
9.8942e-14
0.00840003
2.46119e-13
0.00840003
5.926e-13
0.00840003
1.47654e-12
0.00840003
3.52809e-12
0.00840003
8.81946e-12
0.00840003
2.09577e-11
0.00840003
5.24174e-11
0.00840003
1.2457e-10
0.00840003
3.09732e-10
0.00840003
7.40735e-10
0.00840003
1.82209e-09
0.00840004
4.39805e-09
0.00840004
1.06972e-08
0.00840009
2.60451e-08
0.0084001
6.27893e-08
0.00840034
1.53874e-07
3.68748e-07
0.00840051
0.00840003
6.53774e-17
0.00840003
2.00361e-16
0.00840003
5.30148e-16
0.00840003
1.20132e-15
0.00840003
3.09795e-15
0.00840003
7.41052e-15
0.00840003
1.75991e-14
0.00840003
4.45256e-14
0.00840003
1.04769e-13
0.00840003
2.64854e-13
0.00840003
6.28282e-13
0.00840003
1.57234e-12
0.00840003
3.75962e-12
0.00840003
9.30668e-12
0.00840003
2.24646e-11
0.00840003
5.48507e-11
0.00840003
1.34056e-10
0.00840003
3.22078e-10
0.00840003
7.97788e-10
0.00840004
1.88927e-09
0.00840004
4.72308e-09
0.00840006
1.11076e-08
0.00840006
2.78096e-08
0.00840019
6.54512e-08
1.63431e-07
0.00840017
0.00840003
-8.55436e-17
0.00840003
-3.54805e-17
0.00840003
6.15014e-17
0.00840003
3.72776e-16
0.00840003
1.05238e-15
0.00840003
2.99031e-15
0.00840003
7.31042e-15
0.00840003
1.80218e-14
0.00840003
4.55247e-14
0.00840003
1.09357e-13
0.00840003
2.72438e-13
0.00840003
6.56663e-13
0.00840003
1.62476e-12
0.00840003
3.91275e-12
0.00840003
9.64987e-12
0.00840003
2.32937e-11
0.00840003
5.69615e-11
0.00840003
1.38288e-10
0.00840003
3.35548e-10
0.00840003
8.18236e-10
0.00840004
1.97222e-09
0.00840004
4.82604e-09
0.00840005
1.15814e-08
0.00840007
2.84257e-08
6.79991e-08
0.00840018
0.00840003
8.03936e-17
0.00840003
2.38579e-16
0.00840003
3.50414e-16
0.00840003
4.26227e-16
0.00840003
7.54036e-16
0.00840003
1.40122e-15
0.00840003
3.4013e-15
0.00840003
7.91077e-15
0.00840003
1.89487e-14
0.00840003
4.63197e-14
0.00840003
1.13675e-13
0.00840003
2.74221e-13
0.00840003
6.76723e-13
0.00840003
1.63782e-12
0.00840003
4.0017e-12
0.00840003
9.76548e-12
0.00840003
2.3606e-11
0.00840003
5.80439e-11
0.00840003
1.38643e-10
0.00840003
3.44047e-10
0.00840003
8.13282e-10
0.00840004
2.02884e-09
0.00840004
4.77374e-09
0.00840005
1.19206e-08
2.80687e-08
0.0084001
0.00840003
3.89229e-17
0.00840003
-7.29126e-18
0.00840003
5.95769e-17
0.00840003
1.38805e-16
0.00840003
3.12223e-16
0.00840003
7.13649e-16
0.00840003
1.42339e-15
0.00840003
3.30554e-15
0.00840003
7.85152e-15
0.00840003
1.90255e-14
0.00840003
4.64624e-14
0.00840003
1.11856e-13
0.00840003
2.7574e-13
0.00840003
6.64533e-13
0.00840003
1.63887e-12
0.00840003
3.93371e-12
0.00840003
9.72987e-12
0.00840003
2.32307e-11
0.00840003
5.75283e-11
0.00840003
1.37012e-10
0.00840003
3.38337e-10
0.00840003
8.07369e-10
0.00840004
1.9822e-09
0.00840004
4.75248e-09
1.1589e-08
0.00840005
0.00840003
-8.98804e-17
0.00840003
-1.83826e-16
0.00840003
-2.59151e-16
0.00840003
-2.30176e-16
0.00840003
-2.10498e-16
0.00840003
-7.38071e-17
0.00840003
2.89103e-16
0.00840003
9.8123e-16
0.00840003
2.89425e-15
0.00840003
7.19108e-15
0.00840003
1.78868e-14
0.00840003
4.45901e-14
0.00840003
1.06601e-13
0.00840003
2.63682e-13
0.00840003
6.35694e-13
0.00840003
1.5539e-12
0.00840003
3.78044e-12
0.00840003
9.15683e-12
0.00840003
2.24252e-11
0.00840003
5.37641e-11
0.00840003
1.32848e-10
0.00840003
3.14793e-10
0.00840003
7.82761e-10
0.00840004
1.84432e-09
4.59202e-09
0.00840004
0.00840003
9.76053e-17
0.00840003
1.49728e-16
0.00840003
1.69786e-16
0.00840003
1.80547e-16
0.00840003
1.97352e-16
0.00840003
2.39094e-16
0.00840003
3.75188e-16
0.00840003
6.08834e-16
0.00840003
1.23661e-15
0.00840003
2.78355e-15
0.00840003
6.36866e-15
0.00840003
1.50583e-14
0.00840003
3.66307e-14
0.00840003
8.98328e-14
0.00840003
2.15631e-13
0.00840003
5.33796e-13
0.00840003
1.27251e-12
0.00840003
3.17322e-12
0.00840003
7.49351e-12
0.00840003
1.88109e-11
0.00840003
4.40557e-11
0.00840003
1.10849e-10
0.00840003
2.58988e-10
0.00840003
6.50213e-10
1.5193e-09
0.00840004
0.00840003
0.00840003
0.00840003
0.00840003
0.00840003
0.00840003
0.00840003
0.00840003
0.00840003
0.00840003
0.00840003
0.00840003
0.00840003
0.00840003
0.00840003
0.00840003
0.00840003
0.00840003
0.00840003
0.00840003
0.00840003
0.00840003
0.00840003
0.00840003
0.00840003
0.00466162
0.00391557
0.00310495
0.00155379
0.00243639
0.00066512
0.002172
0.00025798
0.00214686
1.8496e-05
0.00231526
-0.000178025
0.00250289
-0.000200017
0.00262212
-0.000132504
0.0026714
-6.17367e-05
0.00267326
-1.40152e-05
0.00264722
1.39912e-05
0.00262336
1.32868e-05
0.00261276
-2.77643e-07
0.00261629
-1.45859e-05
0.00262402
-1.86015e-05
0.00263271
-1.97204e-05
0.00264011
-1.86374e-05
0.00264562
-1.68976e-05
0.00264969
-1.56435e-05
0.00265314
-1.52853e-05
0.00265637
-1.56094e-05
0.00265956
-1.61047e-05
0.0026627
-1.64086e-05
0.00266562
-1.64345e-05
0.00266798
-1.62115e-05
0.00266943
-1.58213e-05
0.00266972
-1.53475e-05
0.00266869
-1.48542e-05
0.00266638
-1.43765e-05
0.00266302
-1.39311e-05
0.00265885
-1.35365e-05
0.00265391
-1.31895e-05
0.00264826
-1.28588e-05
0.00264202
-1.25369e-05
0.00263547
-1.22028e-05
0.00262892
-1.18428e-05
0.0026225
-1.14645e-05
0.00261621
-1.10302e-05
0.00261005
-1.05474e-05
0.00260395
-1.00357e-05
0.00259783
-9.57054e-06
0.00259156
-9.05039e-06
0.00258517
-8.51532e-06
0.00257869
-7.99008e-06
0.00257222
-7.4861e-06
0.00256586
-6.99987e-06
0.00255969
-6.52852e-06
0.00255375
-6.07271e-06
0.00254808
-5.63271e-06
0.00254265
-5.19152e-06
0.00253742
-4.76019e-06
0.00253234
-4.33978e-06
0.00252741
-3.93292e-06
0.00252263
-3.52036e-06
0.00251809
-3.1354e-06
0.00251384
-2.76182e-06
0.00250999
-2.41687e-06
0.0025067
-2.08129e-06
0.00250412
-1.76174e-06
0.00250242
-1.45351e-06
0.00250155
-1.18218e-06
0.0025015
-9.1005e-07
0.00250237
-6.20255e-07
0.00250406
-4.26219e-07
0.00250622
-1.58006e-07