/*--------------------------------*- C++ -*----------------------------------*\
  =========                 |
  \\      /  F ield         | OpenFOAM: The Open Source CFD Toolbox
   \\    /   O peration     | Website:  https://openfoam.org
    \\  /    A nd           | Version:  13
     \\/     M anipulation  |
\*---------------------------------------------------------------------------*/
FoamFile
{
    format      ascii;
    class       volScalarField;
    location    "1";
    object      rho;
}
// * * * * * * * * * * * * * * * * * * * * * * * * * * * * * * * * * * * * * //

dimensions      [1 -3 0 0 0 0 0];

internalField   nonuniform List<scalar> 
5250
(
1.40001
1.40001
1.40002
1.40005
1.40013
1.40027
1.40075
1.40164
1.40454
1.41023
1.42705
1.46224
1.55065
1.73325
2.14292
3.54802
6.31665
5.89324
5.70888
5.73961
5.80698
5.85979
5.90108
5.89427
5.55542
1.40001
1.40001
1.40002
1.40005
1.40012
1.40028
1.40071
1.40172
1.40426
1.41057
1.42579
1.46251
1.5471
1.7294
2.12831
3.49595
6.31681
5.89663
5.70847
5.73874
5.8055
5.85767
5.89916
5.89314
5.55428
1.40001
1.40001
1.40002
1.40004
1.40012
1.40026
1.40073
1.40157
1.40437
1.40976
1.42595
1.45935
1.54407
1.71884
2.09942
3.38732
6.30972
5.8992
5.70285
5.73056
5.7938
5.84297
5.88357
5.8782
5.54112
1.40001
1.40001
1.40002
1.40004
1.40012
1.40025
1.4007
1.40151
1.40423
1.40937
1.42503
1.45697
1.53852
1.70619
2.06134
3.23888
6.27269
5.89255
5.68981
5.71369
5.77049
5.81597
5.85474
5.84847
5.51524
1.40001
1.40001
1.40002
1.40004
1.40011
1.40024
1.40067
1.40145
1.40403
1.40897
1.42384
1.45445
1.53235
1.69319
2.02865
3.11376
6.15953
5.86496
5.67082
5.68958
5.73716
5.7772
5.81551
5.81472
5.49248
1.40001
1.40001
1.40002
1.40004
1.40011
1.40022
1.40063
1.40136
1.4038
1.40844
1.42253
1.4514
1.52539
1.67825
1.99788
2.97961
5.98594
5.8109
5.64812
5.65959
5.69128
5.72594
5.76102
5.75669
5.44325
1.40001
1.40001
1.40002
1.40004
1.4001
1.40022
1.40057
1.40133
1.40341
1.40817
1.42045
1.44885
1.51652
1.66224
1.96103
2.83531
5.76992
5.74062
5.62627
5.62221
5.62542
5.65562
5.68519
5.6833
5.39445
1.40001
1.40001
1.40002
1.40003
1.40009
1.40019
1.40053
1.4012
1.40316
1.4074
1.41891
1.44467
1.5078
1.64289
1.92809
2.69287
5.48016
5.67222
5.59736
5.57051
5.54972
5.56404
5.58703
5.577
5.29502
1.40001
1.40001
1.40002
1.40003
1.40008
1.40018
1.40047
1.40109
1.4028
1.40675
1.41684
1.4407
1.49723
1.62181
1.88636
2.54721
5.10584
5.62495
5.55475
5.48689
5.46056
5.46282
5.46222
5.4423
5.18372
1.40001
1.40001
1.40001
1.40003
1.40006
1.40018
1.40037
1.40105
1.40227
1.40634
1.41407
1.43716
1.48463
1.60007
1.83621
2.40584
4.63758
5.59676
5.52772
5.40744
5.38236
5.34376
5.31337
5.24285
4.89853
1.40001
1.40001
1.40001
1.40002
1.40006
1.40013
1.40037
1.40077
1.40221
1.40479
1.4133
1.42974
1.47594
1.57124
1.78471
2.266
4.09525
5.59527
5.5166
5.33264
5.26696
5.19807
5.08954
4.8828
4.09963
1.40001
1.40001
1.40001
1.40002
1.40005
1.40013
1.40026
1.40074
1.40158
1.4045
1.40983
1.42666
1.46027
1.54711
1.72353
2.13676
3.45884
5.56041
5.4845
5.27917
5.17628
5.07825
4.90084
4.60228
3.83278
1.40001
1.40001
1.40001
1.40002
1.40004
1.40009
1.40025
1.40053
1.40146
1.40325
1.40876
1.42006
1.45098
1.51724
1.66803
1.98864
2.84852
5.43712
5.4202
5.25934
5.08703
4.94582
4.72841
4.40194
3.83859
1.40001
1.40001
1.40001
1.40002
1.40003
1.40008
1.40018
1.40046
1.40113
1.40275
1.40696
1.41658
1.44139
1.49692
1.62344
1.88738
2.5462
4.98144
5.2658
5.18145
4.99052
4.8149
4.58139
4.24877
3.83787
1.40001
1.40001
1.40001
1.40001
1.40003
1.40006
1.40015
1.40038
1.40086
1.40233
1.40521
1.41407
1.43203
1.48022
1.582
1.80537
2.30346
4.27237
5.17199
5.12083
4.94711
4.73634
4.50104
4.17692
3.82463
1.40001
1.40001
1.40001
1.40001
1.40002
1.40005
1.40012
1.40027
1.40074
1.40161
1.4045
1.40987
1.4266
1.46036
1.54645
1.7227
2.12353
3.47242
5.09744
5.06443
4.93254
4.68312
4.45735
4.1581
3.82611
1.40001
1.40001
1.40001
1.40001
1.40002
1.40004
1.40008
1.40023
1.40048
1.40136
1.40297
1.40815
1.41831
1.44733
1.50757
1.64891
1.93505
2.68321
4.91909
5.00088
4.90309
4.65489
4.40745
4.12834
3.82755
1.40001
1.40001
1.40001
1.40001
1.40002
1.40003
1.40007
1.40016
1.40039
1.40098
1.40229
1.40601
1.41386
1.43558
1.48216
1.59281
1.81986
2.34134
4.32973
4.9086
4.85387
4.66549
4.39704
4.1325
3.85152
1.40001
1.40001
1.40001
1.40001
1.40001
1.40002
1.40005
1.40011
1.40031
1.40065
1.40183
1.40399
1.41091
1.42469
1.46281
1.54277
1.72319
2.10446
3.44642
4.79993
4.76941
4.65372
4.39744
4.12457
3.85993
1.40001
1.40001
1.40001
1.40001
1.40001
1.40002
1.40004
1.40009
1.4002
1.40051
1.40116
1.4031
1.40695
1.41846
1.44202
1.50313
1.63038
1.89217
2.55134
4.54848
4.73074
4.65034
4.44222
4.16099
3.89458
1.40001
1.40001
1.40001
1.40001
1.40001
1.40001
1.40003
1.40006
1.40014
1.40035
1.4008
1.40216
1.4048
1.41297
1.42928
1.4737
1.5666
1.77037
2.20081
3.85267
4.65688
4.61032
4.46973
4.19175
3.9182
1.40001
1.40001
1.40001
1.40001
1.40001
1.40001
1.40002
1.40004
1.4001
1.40021
1.4006
1.40127
1.40362
1.40773
1.42129
1.44729
1.51766
1.65941
1.95719
2.81486
4.46326
4.55452
4.47769
4.26534
3.9742
1.40001
1.40001
1.40001
1.40001
1.40001
1.40001
1.40002
1.40003
1.40007
1.40016
1.40036
1.40095
1.40213
1.40579
1.41289
1.43387
1.47669
1.5826
1.78871
2.2525
3.94249
4.517
4.47192
4.32321
4.03526
1.40001
1.40001
1.40001
1.40001
1.40001
1.40001
1.40001
1.40002
1.40005
1.4001
1.40026
1.40055
1.40155
1.40331
1.40925
1.42034
1.45299
1.51926
1.67373
1.97489
2.92865
4.31946
4.40058
4.33714
4.15259
1.40001
1.40001
1.40001
1.40001
1.40001
1.40001
1.40001
1.40002
1.40003
1.40007
1.40015
1.40038
1.40091
1.40224
1.40559
1.41334
1.43322
1.47755
1.58122
1.78157
2.24182
3.83491
4.37128
4.3228
4.20849
1.40001
1.40001
1.40001
1.40001
1.40001
1.40001
1.40001
1.40001
1.40002
1.40005
1.40009
1.40024
1.40055
1.40142
1.40332
1.40842
1.42013
1.44916
1.51485
1.65793
1.94292
2.7844
4.15703
4.29075
4.23784
1.40001
1.40001
1.40001
1.40001
1.40001
1.40001
1.40001
1.40001
1.40001
1.40003
1.40006
1.40015
1.40032
1.4009
1.40194
1.40535
1.41185
1.43113
1.47024
1.56813
1.75124
2.16744
3.61087
4.23048
4.19831
1.40001
1.40001
1.40001
1.40001
1.40001
1.40001
1.40001
1.40001
1.40001
1.40002
1.40004
1.40009
1.4002
1.40052
1.40117
1.40314
1.40687
1.41847
1.441
1.50156
1.62175
1.84978
2.4777
3.98844
4.192
1.40001
1.40001
1.40001
1.40001
1.40001
1.40001
1.40001
1.40001
1.40001
1.40001
1.40003
1.40005
1.40013
1.40029
1.40074
1.40173
1.40432
1.41049
1.42541
1.46094
1.54142
1.70619
2.04981
3.26212
4.05868
1.40001
1.40001
1.40001
1.40001
1.40001
1.40001
1.40001
1.40001
1.40001
1.40001
1.40002
1.40003
1.40008
1.40016
1.40044
1.40093
1.40262
1.40556
1.41535
1.43347
1.4845
1.58496
1.77442
2.24824
3.68982
1.40001
1.40001
1.40001
1.40001
1.40001
1.40001
1.40001
1.40001
1.40001
1.40001
1.40001
1.40002
1.40004
1.4001
1.40022
1.40058
1.40131
1.40338
1.40793
1.41979
1.44686
1.51088
1.64321
1.90476
2.6989
1.40001
1.40001
1.40001
1.40001
1.40001
1.40001
1.40001
1.40001
1.40001
1.40001
1.40001
1.40001
1.40003
1.40006
1.40012
1.40032
1.4007
1.40194
1.40416
1.41148
1.42516
1.46459
1.5437
1.70811
2.06437
1.40001
1.40001
1.40001
1.40001
1.40001
1.40001
1.40001
1.40001
1.40001
1.40001
1.40001
1.40001
1.40002
1.40003
1.40008
1.40016
1.40042
1.40094
1.40242
1.40567
1.41417
1.43349
1.47997
1.57893
1.75532
1.40001
1.40001
1.40001
1.40001
1.40001
1.40001
1.40001
1.40001
1.40001
1.40001
1.40001
1.40001
1.40001
1.40002
1.40004
1.4001
1.4002
1.40054
1.40114
1.40317
1.40684
1.41841
1.44081
1.5011
1.61536
1.40001
1.40001
1.40001
1.40001
1.40001
1.40001
1.40001
1.40001
1.40001
1.40001
1.40001
1.40001
1.40001
1.40001
1.40002
1.40005
1.40011
1.40027
1.4006
1.40164
1.40353
1.4097
1.42114
1.45501
1.52137
1.40001
1.40001
1.40001
1.40001
1.40001
1.40001
1.40001
1.40001
1.40001
1.40001
1.40001
1.40001
1.40001
1.40001
1.40001
1.40003
1.40006
1.40013
1.40033
1.40079
1.40187
1.40476
1.41104
1.42783
1.46408
1.40001
1.40001
1.40001
1.40001
1.40001
1.40001
1.40001
1.40001
1.40001
1.40001
1.40001
1.40001
1.40001
1.40001
1.40001
1.40002
1.40003
1.40007
1.40017
1.40037
1.40099
1.4022
1.40572
1.41309
1.43286
1.40001
1.40001
1.40001
1.40001
1.40001
1.40001
1.40001
1.40001
1.40001
1.40001
1.40001
1.40001
1.40001
1.40001
1.40001
1.40001
1.40002
1.40004
1.40008
1.40019
1.40048
1.40104
1.40282
1.40605
1.41635
1.40001
1.40001
1.40001
1.40001
1.40001
1.40001
1.40001
1.40001
1.40001
1.40001
1.40001
1.40001
1.40001
1.40001
1.40001
1.40001
1.40001
1.40002
1.40004
1.4001
1.40021
1.40055
1.40121
1.40313
1.40717
1.40001
1.40001
1.40001
1.40001
1.40001
1.40001
1.40001
1.40001
1.40001
1.40001
1.40001
1.40001
1.40001
1.40001
1.40001
1.40001
1.40001
1.40001
1.40002
1.40005
1.4001
1.40025
1.40056
1.4015
1.40322
1.40001
1.40001
1.40001
1.40001
1.40001
1.40001
1.40001
1.40001
1.40001
1.40001
1.40001
1.40001
1.40001
1.40001
1.40001
1.40001
1.40001
1.40001
1.40001
1.40002
1.40005
1.40011
1.40029
1.40061
1.40166
1.40001
1.40001
1.40001
1.40001
1.40001
1.40001
1.40001
1.40001
1.40001
1.40001
1.40001
1.40001
1.40001
1.40001
1.40001
1.40001
1.40001
1.40001
1.40001
1.40001
1.40002
1.40006
1.40012
1.40029
1.40072
1.40001
1.40001
1.40001
1.40001
1.40001
1.40001
1.40001
1.40001
1.40001
1.40001
1.40001
1.40001
1.40001
1.40001
1.40001
1.40001
1.40001
1.40001
1.40001
1.40001
1.40001
1.40003
1.40006
1.40014
1.4003
1.40001
1.40001
1.40001
1.40001
1.40001
1.40001
1.40001
1.40001
1.40001
1.40001
1.40001
1.40001
1.40001
1.40001
1.40001
1.40001
1.40001
1.40001
1.40001
1.40001
1.40001
1.40001
1.40003
1.40006
1.40014
1.40001
1.40001
1.40001
1.40001
1.40001
1.40001
1.40001
1.40001
1.40001
1.40001
1.40001
1.40001
1.40001
1.40001
1.40001
1.40001
1.40001
1.40001
1.40001
1.40001
1.40001
1.40001
1.40001
1.40003
1.40006
1.40001
1.40001
1.40001
1.40001
1.40001
1.40001
1.40001
1.40001
1.40001
1.40001
1.40001
1.40001
1.40001
1.40001
1.40001
1.40001
1.40001
1.40001
1.40001
1.40001
1.40001
1.40001
1.40001
1.40002
1.40003
1.40001
1.40001
1.40001
1.40001
1.40001
1.40001
1.40001
1.40001
1.40001
1.40001
1.40001
1.40001
1.40001
1.40001
1.40001
1.40001
1.40001
1.40001
1.40001
1.40001
1.40001
1.40001
1.40001
1.40001
1.40001
1.40001
1.40001
1.40001
1.40001
1.40001
1.40001
1.40001
1.40001
1.40001
1.40001
1.40001
1.40001
1.40001
1.40001
1.40001
1.40001
1.40001
1.40001
1.40001
1.40001
1.40001
1.40001
1.40001
1.40001
1.40001
1.40001
1.40001
1.40001
1.40001
1.40001
1.40001
1.40001
1.40001
1.40001
1.40001
1.40001
1.40001
1.40001
1.40001
1.40001
1.40001
1.40001
1.40001
1.40001
1.40001
1.40001
1.40001
1.40001
1.40001
1.40001
1.40001
1.40001
1.40001
1.40001
1.40001
1.40001
1.40001
1.40001
1.40001
1.40001
1.40001
1.40001
1.40001
1.40001
1.40001
1.40001
1.40001
1.40001
1.40001
1.40001
1.40001
1.40001
1.40001
1.40001
1.40001
1.75533
0.958321
0.663222
0.580872
0.576397
0.60204
0.66272
0.721974
0.73621
0.734928
0.729413
0.717861
0.70949
0.706099
0.704488
0.70284
0.700488
0.697054
0.692715
0.688005
0.683192
0.678374
0.673587
0.668815
0.663985
0.658999
0.653802
0.648356
0.642663
0.636784
0.630804
0.624764
0.618679
0.61257
0.6065
0.600538
0.594745
0.589127
0.583692
0.578417
0.573291
0.568279
0.563385
0.558619
0.554
0.549552
0.545296
0.541249
0.537413
0.533787
0.530367
0.527137
0.524091
0.521216
0.518532
0.516034
0.513746
0.511674
0.509873
0.508333
0.507137
0.506159
0.505523
0.505129
0.505026
0.505018
0.505067
0.505287
0.505647
0.505921
0.506338
0.506922
0.507605
0.508893
0.510309
0.511856
0.513448
0.515374
0.517454
0.519631
0.521693
0.52356
0.525258
0.526825
0.528345
0.530005
0.531568
0.533148
0.534786
0.536627
0.538354
0.541527
0.544434
0.551541
0.557196
0.570993
0.580298
0.601657
0.615123
0.651397
2.21037
1.43285
1.08967
0.940654
0.872194
0.825183
0.797777
0.798058
0.801392
0.808677
0.824069
0.82507
0.823497
0.819849
0.812709
0.805633
0.799681
0.794734
0.790379
0.786055
0.781406
0.776452
0.771305
0.766043
0.760698
0.755256
0.749689
0.743941
0.737943
0.731646
0.725056
0.718222
0.711198
0.704084
0.696974
0.689898
0.682901
0.676022
0.669305
0.662773
0.656613
0.650714
0.645117
0.639624
0.634285
0.628986
0.623776
0.618633
0.613563
0.608627
0.603818
0.599154
0.594692
0.590378
0.586322
0.582475
0.578879
0.575534
0.572454
0.569485
0.566932
0.56438
0.562309
0.560315
0.558724
0.557542
0.556557
0.555671
0.555529
0.555289
0.555584
0.555612
0.556335
0.556895
0.557932
0.5585
0.559344
0.560246
0.561571
0.563465
0.565256
0.567829
0.570117
0.573155
0.575827
0.579025
0.581575
0.584724
0.587233
0.590323
0.592688
0.595756
0.598116
0.601436
0.603866
0.608086
0.611317
0.6185
0.624585
0.642767
2.78674
2.0293
1.55524
1.25525
1.06591
0.941842
0.867299
0.83612
0.83706
0.841658
0.85158
0.869518
0.876154
0.875622
0.873098
0.869306
0.862541
0.855682
0.849878
0.84481
0.840055
0.835381
0.830683
0.825871
0.820818
0.815411
0.809602
0.803406
0.796855
0.789951
0.782704
0.775214
0.767595
0.759853
0.752025
0.744244
0.736616
0.729162
0.721908
0.714861
0.708073
0.7016
0.695418
0.689414
0.683536
0.677785
0.672078
0.666444
0.660938
0.65555
0.65029
0.64518
0.640228
0.635443
0.63082
0.626342
0.62204
0.617928
0.61397
0.610238
0.606801
0.603651
0.600767
0.598082
0.595685
0.593598
0.592016
0.5905
0.589508
0.588804
0.588438
0.587968
0.588081
0.588287
0.588951
0.589346
0.589838
0.590568
0.591329
0.592889
0.594007
0.595934
0.597422
0.599996
0.601962
0.605223
0.607671
0.611398
0.614311
0.618505
0.621671
0.625948
0.629039
0.63338
0.636327
0.641265
0.644649
0.651429
0.65639
0.670423
3.12533
2.45224
1.94359
1.58444
1.34111
1.17301
1.06474
0.99245
0.947019
0.920185
0.916331
0.915391
0.91789
0.923759
0.927942
0.926528
0.925229
0.922278
0.916288
0.909673
0.903733
0.8982
0.892882
0.887489
0.881768
0.875563
0.868827
0.861624
0.854058
0.84624
0.838262
0.830199
0.822097
0.814028
0.806067
0.79826
0.790622
0.783094
0.77558
0.768095
0.760718
0.753425
0.746162
0.738955
0.731878
0.725009
0.718431
0.712157
0.706194
0.700584
0.695222
0.68996
0.684831
0.679852
0.674998
0.670156
0.665221
0.660238
0.65536
0.650586
0.645953
0.641569
0.637595
0.633998
0.63076
0.627902
0.625328
0.623017
0.621147
0.619441
0.618012
0.616931
0.616021
0.615491
0.615283
0.615123
0.615079
0.615243
0.615692
0.616739
0.617691
0.619222
0.620456
0.622574
0.624239
0.627145
0.629377
0.633034
0.635972
0.640416
0.643903
0.648696
0.652188
0.656928
0.66014
0.665098
0.668327
0.674593
0.679098
0.691949
3.30257
2.74959
2.27022
1.89643
1.61734
1.41091
1.25744
1.14437
1.06437
1.00607
0.970819
0.953633
0.953182
0.953356
0.956544
0.961396
0.9648
0.964547
0.963523
0.960911
0.955307
0.948087
0.940713
0.933367
0.92608
0.918821
0.911545
0.904205
0.896774
0.889261
0.881675
0.874004
0.866232
0.85835
0.850335
0.842188
0.83398
0.825765
0.817535
0.809263
0.801005
0.792861
0.784928
0.777292
0.770007
0.763078
0.756473
0.750071
0.743871
0.737815
0.73191
0.726112
0.720304
0.714387
0.708321
0.702141
0.695952
0.68988
0.684016
0.678475
0.673351
0.668709
0.66449
0.660585
0.657171
0.654077
0.651274
0.648713
0.64638
0.644097
0.642184
0.640332
0.638539
0.637311
0.636697
0.635813
0.635042
0.634778
0.634925
0.635646
0.63644
0.637669
0.638788
0.640752
0.642323
0.645119
0.647246
0.650914
0.6537
0.658258
0.661657
0.666725
0.670261
0.675527
0.679015
0.684861
0.68861
0.69628
0.701502
0.71653
3.41225
2.95632
2.52854
2.16595
1.87341
1.64358
1.46439
1.32636
1.22044
1.14098
1.08295
1.04048
1.0138
0.99882
0.994135
0.994099
0.994396
0.997228
0.998061
0.99723
0.995765
0.992536
0.985986
0.977971
0.969613
0.96151
0.953806
0.946383
0.939091
0.931826
0.924475
0.916918
0.909091
0.900982
0.89261
0.884053
0.875417
0.866714
0.857909
0.849029
0.840183
0.831476
0.823031
0.814919
0.807207
0.799837
0.792769
0.785907
0.779282
0.772825
0.766538
0.760276
0.753897
0.74733
0.740572
0.733721
0.726911
0.720273
0.713908
0.707877
0.702279
0.697162
0.692473
0.68814
0.684195
0.680504
0.67709
0.673675
0.670636
0.667755
0.665014
0.66239
0.660313
0.658555
0.657023
0.655889
0.655052
0.654345
0.654172
0.654667
0.655383
0.65651
0.657579
0.659365
0.660855
0.663553
0.665636
0.669254
0.671973
0.67638
0.679564
0.684557
0.687985
0.693465
0.696978
0.703387
0.707427
0.715968
0.721597
0.737982
3.47831
3.10187
2.72873
2.39038
2.1
1.8597
1.66353
1.50552
1.37802
1.27674
1.19568
1.13296
1.08523
1.05037
1.02882
1.01757
1.01172
1.01096
1.01044
1.00998
1.00959
1.0088
1.00687
1.00278
0.996195
0.988947
0.981698
0.974595
0.967551
0.960505
0.953444
0.946293
0.938894
0.931111
0.922913
0.914398
0.9057
0.896817
0.887708
0.878461
0.869268
0.860292
0.851669
0.843458
0.835646
0.828236
0.821196
0.814363
0.807665
0.801119
0.794672
0.788193
0.781422
0.774348
0.767118
0.759889
0.752823
0.74608
0.73974
0.73386
0.728449
0.723466
0.718886
0.714563
0.710565
0.706724
0.703013
0.699196
0.695654
0.692152
0.6889
0.685768
0.682993
0.680794
0.679036
0.677427
0.675816
0.675072
0.674774
0.674963
0.675445
0.676353
0.677453
0.679048
0.680556
0.682875
0.684929
0.688262
0.690868
0.695089
0.698212
0.703201
0.70656
0.712419
0.716121
0.723548
0.728214
0.738439
0.745023
0.764368
3.53722
3.20703
2.87901
2.57221
2.29526
2.05527
1.85098
1.68039
1.53873
1.42149
1.3256
1.24689
1.18344
1.1341
1.09558
1.06604
1.04721
1.03535
1.02906
1.02611
1.0248
1.02436
1.0237
1.02242
1.0199
1.01487
1.00855
1.00141
0.993823
0.986037
0.978192
0.970352
0.96248
0.95445
0.946185
0.937701
0.929058
0.920319
0.911567
0.902898
0.894424
0.886275
0.878538
0.871219
0.864281
0.857611
0.850957
0.844176
0.837367
0.830606
0.823768
0.81662
0.809153
0.801542
0.793963
0.786571
0.77948
0.772809
0.766608
0.760858
0.755512
0.75059
0.745992
0.741572
0.737255
0.733018
0.728831
0.724574
0.720578
0.716808
0.713379
0.710109
0.707308
0.705201
0.703397
0.701836
0.700335
0.699512
0.699181
0.69942
0.69984
0.700704
0.701756
0.703301
0.705003
0.70722
0.709407
0.712277
0.714815
0.718677
0.721661
0.726712
0.730063
0.736522
0.740522
0.749099
0.754404
0.766262
0.773638
0.79614
3.58159
3.28862
2.99381
2.71278
2.45316
2.22162
2.01822
1.84241
1.69241
1.56488
1.45698
1.366
1.28934
1.22555
1.17282
1.13095
1.09739
1.07141
1.05444
1.04365
1.03727
1.03419
1.03247
1.03145
1.03035
1.02813
1.02448
1.01931
1.01285
1.00553
0.997683
0.989503
0.981113
0.97258
0.963934
0.955198
0.946443
0.93774
0.929146
0.92074
0.912646
0.904991
0.897815
0.89106
0.88464
0.878411
0.872117
0.86556
0.858795
0.851971
0.845023
0.837798
0.830305
0.822759
0.815361
0.808244
0.801488
0.795169
0.789301
0.783847
0.77874
0.773957
0.769354
0.764777
0.760212
0.755681
0.751237
0.746783
0.742659
0.738761
0.735242
0.731893
0.729151
0.727197
0.725425
0.723988
0.7229
0.722699
0.723042
0.723938
0.7252
0.726969
0.729052
0.731682
0.734587
0.738151
0.741731
0.746104
0.749917
0.754902
0.75862
0.764629
0.768497
0.776242
0.780812
0.791047
0.797051
0.810599
0.818612
0.845676
3.6321
3.36056
3.09151
2.83146
2.58714
2.364
2.16366
1.98691
1.83158
1.69724
1.5805
1.48055
1.39441
1.3211
1.25848
1.2059
1.16182
1.12643
1.09762
1.07539
1.06009
1.05001
1.04412
1.04102
1.03915
1.03788
1.03634
1.0337
1.02968
1.02423
1.0175
1.00968
1.00109
0.992036
0.982819
0.973603
0.964529
0.955701
0.947174
0.938971
0.93112
0.923688
0.916684
0.910036
0.903634
0.897352
0.890999
0.884374
0.877487
0.870493
0.86343
0.856262
0.849022
0.841887
0.834968
0.828363
0.822061
0.816146
0.810598
0.805395
0.800396
0.795659
0.791024
0.786374
0.781676
0.777088
0.772611
0.768124
0.763967
0.760187
0.756872
0.754135
0.75199
0.750573
0.749686
0.749788
0.750624
0.752568
0.755481
0.759459
0.764223
0.769977
0.77621
0.783255
0.790423
0.798319
0.80569
0.813785
0.820501
0.828465
0.833963
0.842076
0.846798
0.856291
0.861292
0.872306
0.878539
0.892679
0.89735
0.93256
3.66557
3.41893
3.17287
2.93231
2.70321
2.48944
2.29405
2.11776
1.96026
1.82093
1.69801
1.59053
1.4963
1.41473
1.34343
1.28232
1.22954
1.1851
1.14765
1.11718
1.09284
1.07405
1.06074
1.05208
1.04653
1.04307
1.04069
1.03851
1.03592
1.03222
1.0272
1.02073
1.01318
1.00479
0.995858
0.986647
0.977598
0.968748
0.96024
0.952219
0.944738
0.937751
0.931165
0.924869
0.918715
0.912541
0.9062
0.899565
0.892613
0.885488
0.878322
0.871151
0.864091
0.857262
0.850747
0.844559
0.838655
0.833063
0.827779
0.822733
0.817807
0.812962
0.808127
0.803229
0.798327
0.793543
0.789066
0.784801
0.781144
0.778289
0.776062
0.774669
0.774486
0.776017
0.779242
0.784433
0.791507
0.800743
0.811842
0.82491
0.839113
0.854663
0.870401
0.886829
0.902169
0.917575
0.931358
0.945352
0.957189
0.969445
0.978016
0.988872
0.994922
1.00522
1.00978
1.02221
1.02341
1.03784
1.03212
1.083
3.71829
3.48277
3.25068
3.02555
2.80893
2.60405
2.41348
2.23885
2.0804
1.93797
1.81065
1.69757
1.59721
1.50876
1.43096
1.36269
1.30311
1.25153
1.20709
1.1693
1.13759
1.11148
1.09055
1.07404
1.06171
1.05316
1.04707
1.0428
1.03936
1.03603
1.0321
1.02729
1.02158
1.01467
1.00692
0.998628
0.989879
0.981197
0.9729
0.965187
0.958065
0.951523
0.945388
0.939462
0.93358
0.927593
0.921382
0.914867
0.908017
0.900906
0.893736
0.886626
0.879673
0.87299
0.86667
0.860625
0.854871
0.84934
0.844102
0.839068
0.834096
0.829137
0.82424
0.819368
0.81463
0.810312
0.806617
0.804007
0.802393
0.80195
0.803906
0.808759
0.816867
0.828888
0.844464
0.864006
0.886693
0.912548
0.939287
0.968996
1.00007
1.0321
1.06189
1.08963
1.11282
1.13371
1.1501
1.16499
1.17529
1.18598
1.19255
1.20283
1.20724
1.22024
1.22233
1.2365
1.23329
1.2498
1.23617
1.30514
3.77152
3.5405
3.32369
3.11048
2.90545
2.70981
2.52543
2.35382
2.19548
2.05109
1.9204
1.80257
1.6974
1.6032
1.51972
1.44571
1.38027
1.3228
1.27247
1.22864
1.19061
1.15803
1.13024
1.10687
1.08781
1.0723
1.06021
1.05095
1.04378
1.03808
1.03305
1.02812
1.02284
1.0173
1.01116
1.00437
0.997178
0.989846
0.982576
0.975537
0.968881
0.962623
0.956646
0.95083
0.944981
0.938997
0.932768
0.926321
0.919615
0.912705
0.905699
0.898743
0.891944
0.885449
0.879345
0.873629
0.868083
0.862647
0.857365
0.852366
0.84751
0.84276
0.838316
0.834179
0.831119
0.829191
0.828752
0.830706
0.836425
0.847167
0.863463
0.885988
0.914617
0.949006
0.987651
1.03433
1.0838
1.13157
1.17343
1.2069
1.23045
1.24654
1.25641
1.26357
1.2673
1.27321
1.27484
1.28203
1.28291
1.29208
1.29367
1.30593
1.30851
1.32399
1.32767
1.3454
1.34948
1.36976
1.37402
1.42617
3.86955
3.62187
3.40097
3.19466
2.99641
2.80782
2.6288
2.46089
2.30438
2.15983
2.02725
1.90645
1.79707
1.69845
1.61004
1.53091
1.46046
1.39777
1.34231
1.29319
1.24986
1.21166
1.17817
1.14897
1.12376
1.10217
1.08405
1.06892
1.05652
1.04644
1.03815
1.03131
1.02532
1.0198
1.0146
1.00925
1.00369
0.997901
0.991964
0.985991
0.98007
0.974171
0.968291
0.962365
0.956332
0.950158
0.943774
0.937144
0.930371
0.92354
0.916723
0.910034
0.903613
0.89753
0.891799
0.886415
0.881261
0.876158
0.871155
0.86649
0.862431
0.85895
0.857526
0.857259
0.859035
0.865288
0.877901
0.898215
0.927332
0.965738
1.01115
1.06927
1.13463
1.1972
1.24932
1.28454
1.30405
1.31488
1.31988
1.32252
1.32348
1.32587
1.32475
1.32929
1.32773
1.33418
1.33364
1.34214
1.34246
1.3534
1.35456
1.36826
1.37102
1.38691
1.39093
1.40862
1.41327
1.43189
1.43647
1.47189
3.96386
3.70184
3.47603
3.27448
3.08436
2.9016
2.72798
2.5635
2.40882
2.26455
2.13087
2.00786
1.89542
1.79313
1.70058
1.61738
1.54251
1.47554
1.41547
1.3617
1.31355
1.27045
1.232
1.19765
1.16723
1.14026
1.11654
1.09592
1.07807
1.06287
1.05025
1.03974
1.03107
1.02388
1.01776
1.01252
1.00777
1.00319
0.998571
0.993763
0.988719
0.983387
0.977754
0.971796
0.965544
0.959028
0.95225
0.945344
0.938377
0.931507
0.924874
0.918646
0.912726
0.907291
0.90227
0.897504
0.89307
0.888788
0.884949
0.882433
0.882304
0.884346
0.889818
0.902361
0.92421
0.957457
1.00304
1.05943
1.13504
1.2152
1.28675
1.33467
1.35976
1.37194
1.37655
1.37831
1.37701
1.37723
1.3743
1.37528
1.37206
1.37527
1.37284
1.37776
1.37693
1.38392
1.3842
1.3932
1.39439
1.40579
1.40774
1.42113
1.42428
1.43954
1.44371
1.46043
1.46456
1.48261
1.48545
1.51458
4.08611
3.81536
3.57394
3.35991
3.16915
2.99173
2.82182
2.6609
2.50861
2.36536
2.23152
2.10712
1.99235
1.88724
1.79125
1.70426
1.6255
1.55436
1.49019
1.43233
1.38006
1.33293
1.29023
1.25169
1.21673
1.1852
1.15673
1.13122
1.10847
1.08849
1.07109
1.05622
1.04382
1.03363
1.02531
1.01856
1.01308
1.00847
1.00431
1.00028
0.996106
0.991591
0.986649
0.981198
0.975271
0.968895
0.962234
0.955393
0.948542
0.941863
0.935504
0.929602
0.924177
0.919317
0.914715
0.910979
0.907887
0.90756
0.908977
0.913155
0.924252
0.945346
0.979756
1.03012
1.09386
1.18287
1.27739
1.35839
1.40491
1.42703
1.43633
1.4378
1.43634
1.43403
1.42883
1.42628
1.42123
1.42132
1.41716
1.41863
1.41623
1.41801
1.41688
1.42068
1.42043
1.42654
1.42662
1.43556
1.43609
1.44739
1.44845
1.4613
1.46365
1.47803
1.48163
1.49747
1.50125
1.51855
1.52163
1.54515
4.11929
3.92907
3.67629
3.4588
3.26216
3.08156
2.9139
2.75466
2.60448
2.46264
2.32913
2.20435
2.08814
1.9807
1.88196
1.79146
1.70914
1.63425
1.56629
1.50464
1.44875
1.39781
1.35156
1.30915
1.2705
1.23501
1.20261
1.17298
1.14612
1.12184
1.10018
1.08113
1.06457
1.05049
1.0388
1.0293
1.02165
1.01548
1.01043
1.00611
1.00211
0.998093
0.993782
0.988986
0.983647
0.977798
0.971551
0.96505
0.95851
0.952055
0.945976
0.940259
0.935428
0.931445
0.928729
0.929671
0.933228
0.94095
0.958237
0.988846
1.03888
1.10528
1.20152
1.31191
1.40935
1.46458
1.4907
1.50122
1.50161
1.49838
1.49246
1.48631
1.4789
1.47498
1.46901
1.46629
1.46093
1.45892
1.45465
1.45344
1.45006
1.45088
1.44821
1.45133
1.44986
1.45549
1.45454
1.46275
1.46246
1.47264
1.4733
1.48451
1.4865
1.49941
1.50266
1.51718
1.52096
1.53713
1.54116
1.55934
4.15358
4.03554
3.79113
3.55659
3.35427
3.17353
3.00545
2.84989
2.69986
2.55857
2.42501
2.29951
2.18211
2.07279
1.97176
1.87856
1.79314
1.71502
1.64372
1.57865
1.51925
1.46489
1.41508
1.36937
1.32725
1.28851
1.2527
1.21975
1.18938
1.16158
1.1363
1.11345
1.09314
1.07532
1.05992
1.04688
1.03607
1.02729
1.0202
1.01438
1.00943
1.00497
1.00062
0.996184
0.991395
0.986219
0.980706
0.974919
0.969133
0.963449
0.958374
0.954448
0.952201
0.953781
0.95889
0.970913
0.993169
1.0351
1.10103
1.19185
1.31727
1.43761
1.514
1.54967
1.56583
1.56722
1.56378
1.5567
1.54723
1.5393
1.53125
1.52446
1.51661
1.50996
1.50214
1.49621
1.48936
1.48488
1.47863
1.47625
1.47141
1.47105
1.46747
1.46974
1.46706
1.47208
1.46994
1.47705
1.47596
1.48441
1.48451
1.49412
1.4956
1.50693
1.50982
1.52281
1.52697
1.54097
1.54713
1.55942
4.11078
4.06378
3.92678
3.68202
3.46431
3.27399
3.09913
2.94078
2.79327
2.6527
2.51948
2.39387
2.27566
2.16488
2.06166
1.96598
1.87769
1.79648
1.72197
1.65372
1.5911
1.5337
1.48084
1.43216
1.38714
1.34541
1.30668
1.27067
1.23726
1.20636
1.17784
1.15183
1.12815
1.1069
1.08808
1.07161
1.05742
1.04535
1.03522
1.02686
1.01987
1.01391
1.00861
1.00364
0.998846
0.994031
0.9892
0.9844
0.980128
0.976471
0.975945
0.977819
0.984074
0.999527
1.02694
1.07999
1.15809
1.2833
1.42674
1.54418
1.59839
1.62669
1.63265
1.63236
1.62378
1.6136
1.60299
1.59339
1.5835
1.57331
1.56253
1.55205
1.54114
1.5313
1.52135
1.51361
1.50493
1.49924
1.49211
1.48872
1.48312
1.48237
1.47781
1.47974
1.47596
1.48032
1.4772
1.48312
1.48157
1.48854
1.48815
1.49647
1.49751
1.50739
1.51015
1.52141
1.52602
1.53753
1.54424
1.55316
4.07858
4.04049
3.96977
3.80492
3.5784
3.37712
3.20081
3.03579
2.88544
2.74504
2.61266
2.48699
2.36858
2.2569
2.15206
2.05405
1.963
1.87877
1.8011
1.72977
1.66419
1.60393
1.54841
1.49705
1.44943
1.40509
1.3637
1.32506
1.28893
1.25526
1.22398
1.19501
1.16845
1.14422
1.12228
1.10265
1.08528
1.07003
1.05679
1.04533
1.0355
1.02707
1.01986
1.01352
1.00792
1.00286
0.998911
0.995969
0.996733
0.999787
1.00779
1.02512
1.0582
1.12243
1.21298
1.36745
1.52955
1.63104
1.67734
1.69812
1.69939
1.69333
1.684
1.6718
1.6602
1.64869
1.63585
1.62243
1.60826
1.59434
1.58025
1.56713
1.55408
1.54317
1.53188
1.52332
1.51389
1.50783
1.50009
1.49686
1.49035
1.48962
1.48402
1.48549
1.48113
1.48397
1.48088
1.48512
1.48346
1.48888
1.48863
1.49543
1.49654
1.50472
1.50769
1.51655
1.52193
1.53016
1.53743
1.54371
3.83686
4.01118
3.98486
3.89598
3.70639
3.49029
3.30343
3.13799
2.98596
2.84356
2.70929
2.58268
2.46213
2.34866
2.2423
2.14232
2.04899
1.96213
1.88169
1.80745
1.73904
1.67603
1.61786
1.56401
1.51389
1.46714
1.4233
1.38222
1.34364
1.30753
1.27372
1.24228
1.21305
1.18617
1.16153
1.13911
1.11882
1.10062
1.08439
1.06995
1.05723
1.046
1.03619
1.02777
1.02091
1.01583
1.01662
1.01977
1.0282
1.04659
1.08339
1.15524
1.25709
1.43148
1.61219
1.70431
1.75117
1.76306
1.7635
1.7541
1.74248
1.72983
1.71665
1.7024
1.68655
1.67015
1.65262
1.63576
1.61891
1.60321
1.58767
1.57393
1.56043
1.54939
1.53779
1.52948
1.51964
1.51406
1.50583
1.50263
1.49565
1.49419
1.48843
1.48862
1.48407
1.48541
1.48236
1.485
1.48337
1.48757
1.48734
1.49275
1.49412
1.50033
1.50388
1.50997
1.51584
1.52172
1.52825
1.53292
3.22131
3.88134
3.96116
3.9265
3.82965
3.62432
3.42627
3.24603
3.08499
2.94011
2.80518
2.67851
2.55898
2.44316
2.33321
2.23074
2.13508
2.04612
1.96339
1.88673
1.81581
1.75025
1.68949
1.63311
1.58051
1.53136
1.48524
1.44184
1.40106
1.36262
1.3266
1.29278
1.26131
1.23197
1.20492
1.17999
1.15717
1.13633
1.11736
1.1002
1.08473
1.07088
1.05874
1.04895
1.0438
1.0457
1.05358
1.07133
1.10778
1.17826
1.28887
1.47327
1.67092
1.76708
1.81887
1.82635
1.82354
1.81294
1.79924
1.78528
1.76986
1.75245
1.73347
1.71418
1.69479
1.67531
1.65645
1.63882
1.62184
1.60607
1.59106
1.57788
1.56486
1.55426
1.54285
1.53486
1.52484
1.51919
1.51047
1.50679
1.49894
1.49671
1.49039
1.48919
1.48437
1.48436
1.48091
1.48248
1.48064
1.48361
1.48334
1.48728
1.48858
1.49298
1.49639
1.50076
1.50572
1.51054
1.5159
1.51944
2.20238
3.51043
3.90481
3.90552
3.85873
3.74308
3.54676
3.36322
3.19643
3.04129
2.90032
2.77067
2.64963
2.53559
2.42694
2.32169
2.22274
2.131
2.04609
1.96728
1.89397
1.82599
1.76275
1.70396
1.64898
1.59755
1.54919
1.5037
1.46073
1.42023
1.38204
1.3461
1.31244
1.28096
1.25168
1.22452
1.19943
1.17629
1.155
1.1355
1.11787
1.10231
1.08938
1.08852
1.09245
1.10694
1.14143
1.20569
1.318
1.50755
1.72038
1.82592
1.88583
1.89213
1.88688
1.87318
1.85585
1.83862
1.81944
1.79864
1.77696
1.7554
1.73427
1.71378
1.69386
1.67495
1.65722
1.64044
1.62454
1.60971
1.59565
1.58301
1.57043
1.56012
1.54862
1.54054
1.52981
1.52369
1.51402
1.50912
1.5007
1.49707
1.49012
1.4877
1.48219
1.48097
1.47699
1.47732
1.47511
1.47668
1.47589
1.47836
1.47896
1.48196
1.48416
1.48772
1.49108
1.4952
1.49932
1.50173
1.84772
2.49606
3.62174
3.88295
3.86781
3.81151
3.68179
3.48659
3.30779
3.15065
3.00501
2.86789
2.74212
2.6257
2.51647
2.41307
2.31476
2.21976
2.13117
2.04938
1.97366