/*--------------------------------*- C++ -*----------------------------------*\
  =========                 |
  \\      /  F ield         | OpenFOAM: The Open Source CFD Toolbox
   \\    /   O peration     | Website:  https://openfoam.org
    \\  /    A nd           | Version:  13
     \\/     M anipulation  |
\*---------------------------------------------------------------------------*/
FoamFile
{
    format      ascii;
    class       volScalarField;
    location    "1";
    object      T;
}
// * * * * * * * * * * * * * * * * * * * * * * * * * * * * * * * * * * * * * //

dimensions      [0 0 0 1 0 0 0];

internalField   nonuniform List<scalar> 
5250
(
1
1
1.00001
1.00003
1.00008
1.00019
1.00049
1.00117
1.00307
1.00721
1.01907
1.04681
1.12553
1.34004
1.89736
2.67238
2.8151
2.77692
2.77727
2.79549
2.83626
2.86333
2.8739
2.89889
3.09292
1
1
1.00001
1.00003
1.00008
1.00018
1.00051
1.0011
1.00316
1.0069
1.01907
1.04576
1.12368
1.33366
1.8839
2.66085
2.81313
2.77614
2.77654
2.79465
2.83513
2.86198
2.87244
2.89741
3.09175
1
1
1.00001
1.00003
1.00007
1.00019
1.00047
1.00114
1.00293
1.00694
1.01822
1.04468
1.11918
1.32134
1.85678
2.63315
2.80838
2.77432
2.77473
2.79219
2.83167
2.85832
2.86847
2.893
3.08664
1
1
1.00001
1.00003
1.00007
1.00018
1.00045
1.0011
1.00282
1.00671
1.01748
1.04295
1.11386
1.30582
1.82022
2.59171
2.80302
2.77233
2.77208
2.78808
2.82551
2.85173
2.86162
2.88611
3.0782
1
1
1.00001
1.00003
1.00007
1.00017
1.00043
1.00105
1.0027
1.00638
1.01671
1.04079
1.10815
1.28954
1.78167
2.55337
2.79451
2.76895
2.76737
2.78154
2.81617
2.84269
2.85141
2.8723
3.05831
1
1
1.00001
1.00003
1.00007
1.00016
1.00041
1.00099
1.00254
1.00601
1.01576
1.03834
1.10154
1.27122
1.73435
2.51049
2.78084
2.76215
2.75931
2.77119
2.80317
2.82994
2.83838
2.85934
3.04108
1
1
1.00001
1.00002
1.00006
1.00014
1.0004
1.00087
1.00247
1.00541
1.01495
1.03524
1.09458
1.25073
1.68396
2.45884
2.75916
2.75179
2.74838
2.75808
2.78937
2.81531
2.82264
2.83834
3.00427
1
1
1.00001
1.00002
1.00006
1.00013
1.00036
1.00081
1.00224
1.00495
1.0137
1.03208
1.08625
1.22794
1.62045
2.38445
2.73156
2.74103
2.73907
2.74447
2.77185
2.79863
2.80144
2.81279
2.96743
1
1
1.00001
1.00002
1.00005
1.00012
1.00033
1.00071
1.00203
1.00441
1.01236
1.02865
1.07729
1.2028
1.55269
2.29118
2.69615
2.73367
2.73024
2.7334
2.75455
2.77185
2.77129
2.76978
2.88276
1
1
1.00001
1.00002
1.00005
1.00011
1.00027
1.00067
1.00164
1.00421
1.01013
1.02618
1.06611
1.17743
1.48102
2.17037
2.65362
2.7228
2.71267
2.71259
2.7214
2.73716
2.73039
2.71024
2.78807
1
1
1.00001
1.00002
1.00004
1.00009
1.00023
1.00057
1.00143
1.00343
1.00898
1.0216
1.05667
1.14828
1.40577
2.019
2.59034
2.70424
2.68943
2.68992
2.69902
2.70524
2.69042
2.62897
2.58597
1
1
1.00001
1.00001
1.00003
1.00007
1.0002
1.00045
1.00117
1.00288
1.00714
1.01803
1.04554
1.11965
1.32412
1.83031
2.51116
2.68516
2.67131
2.66362
2.66218
2.65656
2.63147
2.54651
2.44862
1
1
1
1.00001
1.00002
1.00006
1.00015
1.00037
1.00097
1.00225
1.00602
1.01398
1.03711
1.09325
1.25253
1.66134
2.39465
2.64221
2.63393
2.62999
2.62655
2.61537
2.58296
2.49831
2.36915
1
1
1
1.00001
1.00002
1.00005
1.00012
1.00033
1.0007
1.00205
1.00436
1.01233
1.02851
1.07682
1.20095
1.54369
2.24856
2.59132
2.61736
2.60899
2.5997
2.58392
2.55188
2.48535
2.3542
1
1
1
1.00001
1.00002
1.00004
1.00011
1.00022
1.00067
1.00137
1.00403
1.00882
1.02423
1.05891
1.15952
1.42888
2.06322
2.50818
2.58469
2.5738
2.56415
2.54332
2.51014
2.46086
2.35543
1
1
1
1.00001
1.00001
1.00003
1.00007
1.00021
1.00043
1.00123
1.00273
1.0074
1.01748
1.04598
1.11817
1.32111
1.81829
2.40571
2.55765
2.55283
2.53352
2.5106
2.4686
2.42585
2.35015
1
1
1
1
1.00001
1.00002
1.00006
1.00014
1.00035
1.00087
1.00209
1.00543
1.01287
1.03362
1.08437
1.22609
1.59293
2.24771
2.49861
2.52214
2.50858
2.48944
2.44794
2.40689
2.34287
1
1
1
1
1.00001
1.00002
1.00005
1.0001
1.00028
1.00058
1.00174
1.00365
1.01038
1.02378
1.06393
1.16485
1.44525
2.06612
2.426
2.48228
2.46906
2.45146
2.41674
2.37593
2.32417
1
1
1
1
1
1.00001
1.00003
1.00008
1.00019
1.00046
1.00117
1.00278
1.00734
1.01731
1.04567
1.11648
1.31555
1.80145
2.31378
2.4441
2.44672
2.43118
2.40124
2.3627
2.31509
1
1
1
1
1
1.00001
1.00002
1.00005
1.00014
1.00029
1.00088
1.00184
1.0052
1.01172
1.0313
1.07719
1.20603
1.54083
2.13502
2.37319
2.40806
2.39835
2.37434
2.33619
2.29488
1
1
1
1
1
1.00001
1.00002
1.00003
1.0001
1.0002
1.00061
1.00126
1.00363
1.00807
1.02171
1.05274
1.14046
1.37242
1.91249
2.27685
2.36631
2.36598
2.35162
2.32155
2.28373
1
1
1
1
1
1
1.00001
1.00003
1.00006
1.00016
1.00035
1.00094
1.00221
1.0056
1.01384
1.03465
1.08916
1.23508
1.61009
2.14416
2.31439
2.33533
2.32435
2.29766
2.26031
1
1
1
1
1
1
1.00001
1.00002
1.00004
1.00009
1.00027
1.00056
1.0016
1.00349
1.00949
1.02223
1.05846
1.1498
1.39995
1.93493
2.22479
2.2858
2.28308
2.26937
2.24557
1
1
1
1
1
1
1
1.00001
1.00002
1.00007
1.00015
1.00041
1.00092
1.00241
1.00577
1.01455
1.03627
1.09337
1.24623
1.62993
2.0989
2.24172
2.25913
2.24811
2.22451
1
1
1
1
1
1
1
1.00001
1.00002
1.00004
1.00009
1.00026
1.00056
1.00161
1.0034
1.00965
1.02168
1.05842
1.14705
1.39361
1.88712
2.15292
2.20829
2.21808
2.20616
1
1
1
1
1
1
1
1
1.00001
1.00002
1.00006
1.00016
1.00035
1.00096
1.00209
1.00585
1.01299
1.0352
1.08582
1.22952
1.57783
2.03187
2.16417
2.18646
2.17779
1
1
1
1
1
1
1
1
1.00001
1.00001
1.00004
1.00009
1.00023
1.00055
1.00134
1.00342
1.00807
1.02096
1.05105
1.13405
1.35103
1.8043
2.07403
2.14107
2.15425
1
1
1
1
1
1
1
1
1
1.00001
1.00002
1.00005
1.00014
1.00029
1.00086
1.00181
1.00505
1.01132
1.02992
1.0729
1.19122
1.4931
1.92597
2.07731
2.11237
1
1
1
1
1
1
1
1
1
1.00001
1.00001
1.00003
1.00008
1.00018
1.00049
1.00106
1.003
1.00648
1.01788
1.04161
1.11064
1.28603
1.6822
1.98586
2.07283
1
1
1
1
1
1
1
1
1
1
1.00001
1.00002
1.00004
1.00012
1.00024
1.00068
1.00151
1.00401
1.0094
1.02393
1.05908
1.15222
1.39971
1.80292
1.99357
1
1
1
1
1
1
1
1
1
1
1
1.00001
1.00002
1.00006
1.00014
1.00037
1.00082
1.00226
1.00489
1.01358
1.03086
1.08241
1.20925
1.52015
1.88304
1
1
1
1
1
1
1
1
1
1
1
1
1.00001
1.00003
1.00009
1.00018
1.0005
1.0011
1.00296
1.00688
1.0176
1.04321
1.1109
1.29011
1.64828
1
1
1
1
1
1
1
1
1
1
1
1
1.00001
1.00002
1.00004
1.0001
1.00026
1.00059
1.0016
1.00347
1.00964
1.02149
1.05745
1.14133
1.37059
1
1
1
1
1
1
1
1
1
1
1
1
1
1.00001
1.00002
1.00005
1.00013
1.00032
1.00077
1.00192
1.00454
1.01167
1.02764
1.07121
1.1813
1
1
1
1
1
1
1
1
1
1
1
1
1
1
1.00001
1.00002
1.00007
1.00015
1.00043
1.00091
1.00248
1.00565
1.01461
1.03533
1.09044
1
1
1
1
1
1
1
1
1
1
1
1
1
1
1.00001
1.00001
1.00004
1.00008
1.00021
1.00045
1.0013
1.00267
1.00771
1.01676
1.0453
1
1
1
1
1
1
1
1
1
1
1
1
1
1
1
1.00001
1.00002
1.00004
1.0001
1.00024
1.0006
1.00137
1.00366
1.00809
1.02184
1
1
1
1
1
1
1
1
1
1
1
1
1
1
1
1
1.00001
1.00002
1.00004
1.00013
1.00026
1.00073
1.00156
1.00421
1.00951
1
1
1
1
1
1
1
1
1
1
1
1
1
1
1
1
1
1.00001
1.00002
1.00005
1.00013
1.00033
1.00075
1.00197
1.00434
1
1
1
1
1
1
1
1
1
1
1
1
1
1
1
1
1
1
1.00001
1.00002
1.00007
1.00013
1.00039
1.00081
1.00221
1
1
1
1
1
1
1
1
1
1
1
1
1
1
1
1
1
1
1
1.00001
1.00003
1.00007
1.00016
1.0004
1.00096
1
1
1
1
1
1
1
1
1
1
1
1
1
1
1
1
1
1
1
1.00001
1.00001
1.00003
1.00007
1.00019
1.00039
1
1
1
1
1
1
1
1
1
1
1
1
1
1
1
1
1
1
1
1
1.00001
1.00001
1.00003
1.00007
1.0002
1
1
1
1
1
1
1
1
1
1
1
1
1
1
1
1
1
1
1
1
1
1.00001
1.00001
1.00003
1.00008
1
1
1
1
1
1
1
1
1
1
1
1
1
1
1
1
1
1
1
1
1
1
1.00001
1.00001
1.00003
1
1
1
1
1
1
1
1
1
1
1
1
1
1
1
1
1
1
1
1
1
1
1
1.00001
1.00001
1
1
1
1
1
1
1
1
1
1
1
1
1
1
1
1
1
1
1
1
1
1
1
1
1.00001
1
1
1
1
1
1
1
1
1
1
1
1
1
1
1
1
1
1
1
1
1
1
1
1
1
1
1
1
1
1
1
1
1
1
1
1
1
1
1
1
1
1
1
1
1
1
1
1
1
1
1
1
1
1
1
1
1
1
1
1
1
1
1
1
1
1
1
1
1
1
1
1
1
1
1
2.43214
2.25038
2.19558
2.21936
2.28506
2.34138
2.42175
2.45099
2.47411
2.47243
2.47191
2.47186
2.4734
2.47705
2.48065
2.48317
2.48475
2.48469
2.48437
2.48361
2.48273
2.48199
2.48122
2.48017
2.47883
2.47733
2.47583
2.4745
2.47343
2.47255
2.47173
2.47098
2.47036
2.46991
2.46947
2.46889
2.46799
2.46668
2.46502
2.46319
2.46131
2.45946
2.45763
2.45585
2.45405
2.45212
2.44998
2.44755
2.44482
2.44178
2.43843
2.43484
2.4311
2.42721
2.42316
2.41899
2.41459
2.40994
2.40481
2.39922
2.39284
2.3862
2.37876
2.37099
2.3626
2.35458
2.34708
2.33964
2.33234
2.32631
2.32061
2.31494
2.30974
2.30244
2.2957
2.28881
2.28196
2.27417
2.26665
2.26001
2.25422
2.2497
2.24635
2.24394
2.24229
2.23991
2.23838
2.23697
2.23603
2.23417
2.23206
2.22647
2.21903
2.19948
2.18138
2.13803
2.10864
2.04456
2.00892
1.91646
2.38735
2.29825
2.23972
2.2002
2.16277
2.12371
2.11425
2.11758
2.12646
2.14609
2.1592
2.17242
2.17346
2.17377
2.1734
2.17289
2.17309
2.17371
2.17402
2.1739
2.17347
2.17242
2.17058
2.16823
2.16556
2.16271
2.15979
2.15694
2.15436
2.15224
2.15071
2.14977
2.14931
2.1492
2.14923
2.14937
2.14966
2.1499
2.14992
2.14981
2.14931
2.14825
2.14662
2.1452
2.14383
2.14288
2.14217
2.1418
2.14179
2.14186
2.14208
2.14242
2.14267
2.14298
2.14305
2.14303
2.1429
2.14248
2.14177
2.14131
2.14021
2.13955
2.13804
2.13697
2.13523
2.13276
2.1301
2.12792
2.12338
2.12006
2.11557
2.11265
2.10775
2.10424
2.10001
2.09791
2.09497
2.09226
2.08875
2.0844
2.08067
2.07453
2.06967
2.06255
2.05725
2.05025
2.04586
2.03978
2.03625
2.03098
2.02811
2.02337
2.02108
2.01635
2.0135
2.00723
2.00177
1.98847
1.97688
1.9376
2.30805
2.25793
2.19584
2.12576
2.05121
1.9978
1.95845
1.95598
1.95914
1.96838
1.98885
1.9968
2.01235
2.01334
2.01635
2.01749
2.01745
2.01737
2.01705
2.01627
2.01464
2.01236
2.00945
2.00611
2.00264
1.99932
1.99633
1.99375
1.99162
1.99002
1.98906
1.98873
1.98875
1.98896
1.98953
1.99031
1.99096
1.9914
1.99156
1.99156
1.99143
1.99097
1.99001
1.98901
1.98817
1.9875
1.98716
1.98715
1.98723
1.98748
1.98795
1.9885
1.98916
1.98989
1.99078
1.99187
1.99311
1.99442
1.99598
1.9975
1.99875
1.99991
2.00075
2.00138
2.00161
2.00158
2.0012
2.0007
1.99953
1.99767
1.99582
1.99483
1.99259
1.99058
1.98806
1.98678
1.98535
1.98355
1.98246
1.98002
1.97878
1.97591
1.97408
1.96988
1.96717
1.9612
1.95778
1.95065
1.94628
1.93812
1.93347
1.92558
1.92171
1.91449
1.91084
1.90326
1.89843
1.88755
1.87998
1.85432
2.25923
2.19075
2.12397
2.06066
2.00241
1.95358
1.91231
1.88403
1.86269
1.86034
1.8627
1.86886
1.87553
1.88716
1.89197
1.89459
1.89453
1.89343
1.89072
1.88636
1.88183
1.87757
1.87384
1.87064
1.86786
1.86546
1.8635
1.86197
1.86084
1.86003
1.85951
1.8592
1.859
1.85874
1.85835
1.85778
1.85707
1.8563
1.8557
1.8555
1.85553
1.85573
1.85627
1.85726
1.85837
1.85948
1.86041
1.86091
1.86101
1.86093
1.86062
1.86051
1.86056
1.86077
1.86125
1.8623
1.8643
1.86711
1.87029
1.87383
1.87778
1.88149
1.88486
1.88803
1.89077
1.89303
1.89509
1.89698
1.89832
1.89961
1.90107
1.90188
1.90278
1.90342
1.90373
1.90426
1.90459
1.90464
1.90454
1.90404
1.90349
1.90225
1.90129
1.89905
1.89731
1.89327
1.89051
1.88443
1.88038
1.87228
1.86726
1.8587
1.85406
1.84641
1.84277
1.8356
1.83165
1.82294
1.81667
1.79465
2.25316
2.16868
2.09853
2.03476
1.97678
1.92431
1.87891
1.83869
1.80644
1.78417
1.77105
1.77013
1.77145
1.77475
1.77759
1.7835
1.78335
1.78339
1.78294
1.78165
1.77926
1.77689
1.77491
1.77323
1.77169
1.77016
1.76862
1.76709
1.7656
1.7641
1.7626
1.76115
1.75981
1.75864
1.75774
1.75726
1.75719
1.75725
1.75753
1.75821
1.75942
1.76076
1.76205
1.76316
1.76388
1.7642
1.76427
1.76432
1.7644
1.76458
1.76492
1.76549
1.76661
1.76856
1.77148
1.77531
1.77984
1.78476
1.78985
1.79483
1.79938
1.80338
1.80697
1.81019
1.8127
1.81506
1.81726
1.81952
1.82182
1.82459
1.8271
1.83012
1.83351
1.83603
1.83761
1.84023
1.84273
1.84418
1.84524
1.84567
1.8458
1.84572
1.84527
1.84414
1.84281
1.83979
1.83748
1.8323
1.82888
1.82149
1.81704
1.8084
1.80408
1.79585
1.79167
1.78314
1.77802
1.76668
1.75872
1.73245
2.25507
2.16972
2.0962
2.03037
1.97135
1.91776
1.87018
1.82823
1.79275
1.76178
1.73804
1.71953
1.70946
1.7047
1.70504
1.70626
1.70874
1.71045
1.71185
1.71253
1.71211
1.71073
1.70782
1.7043
1.70087
1.69758
1.69446
1.69161
1.68897
1.68647
1.6841
1.682
1.68026
1.6789
1.67796
1.67754
1.67752
1.67764
1.67809
1.67907
1.68046
1.68193
1.6833
1.68437
1.68503
1.68546
1.6857
1.68597
1.68623
1.6866
1.68712
1.68802
1.6897
1.69238
1.69608
1.7006
1.70568
1.71101
1.71639
1.72163
1.7265
1.73087
1.73479
1.73856
1.74205
1.74556
1.74898
1.75309
1.7569
1.76091
1.76529
1.7701
1.77394
1.77766
1.78165
1.78479
1.78731
1.78992
1.7919
1.79295
1.79364
1.79381
1.79376
1.79336
1.79246
1.7903
1.78836
1.78403
1.78111
1.77488
1.77127
1.76389
1.76
1.7522
1.74793
1.73902
1.73332
1.72067
1.71193
1.68362
2.26133
2.17626
2.10073
2.034
1.97463
1.92079
1.87261
1.82919
1.79102
1.7563
1.72727
1.702
1.68221
1.66855
1.66104
1.65734
1.65755
1.65835
1.65954
1.66108
1.66136
1.66098
1.65977
1.65712
1.65298
1.64828
1.6434
1.63867
1.63438
1.63056
1.6271
1.62403
1.62149
1.61959
1.61835
1.61782
1.61778
1.61794
1.61852
1.61975
1.62124
1.62266
1.62385
1.62459
1.62485
1.62484
1.62469
1.6244
1.62441
1.62452
1.62489
1.62572
1.62764
1.63088
1.635
1.63968
1.64461
1.64946
1.65405
1.65825
1.66203
1.66547
1.66863
1.67182
1.67489
1.67827
1.68194
1.68653
1.69114
1.69626
1.70153
1.70724
1.71253
1.7172
1.72159
1.72577
1.73022
1.73295
1.73541
1.73766
1.73928
1.74043
1.74119
1.74144
1.74141
1.74106
1.74
1.73759
1.73538
1.73087
1.72794
1.72209
1.71855
1.71135
1.70664
1.69657
1.6896
1.67402
1.66352
1.63068
2.25969
2.18571
2.11231
2.04366
1.98298
1.92836
1.87958
1.83516
1.79533
1.75985
1.72817
1.70135
1.67804
1.65829
1.64227
1.63099
1.62388
1.62058
1.61967
1.61986
1.62042
1.62046
1.6201
1.61892
1.61629
1.61217
1.6075
1.60271
1.59806
1.59382
1.59015
1.58708
1.58457
1.58267
1.58139
1.58064
1.5802
1.57992
1.57971
1.57951
1.57919
1.57862
1.57763
1.57616
1.57441
1.57266
1.57114
1.57023
1.57006
1.57018
1.57071
1.57207
1.57483
1.57847
1.58255
1.5868
1.59101
1.59494
1.5985
1.60173
1.60469
1.60735
1.60994
1.61274
1.61595
1.61965
1.62388
1.62886
1.63396
1.63917
1.64438
1.64996
1.65494
1.65923
1.6635
1.6674
1.67154
1.67474
1.67799
1.68065
1.68353
1.68602
1.68824
1.69005
1.69163
1.69266
1.69324
1.69342
1.69319
1.69229
1.6906
1.68707
1.68386
1.67702
1.67167
1.6599
1.65145
1.63254
1.62044
1.58301
2.2557
2.19078
2.12485
2.06032
2.00031
1.94454
1.89413
1.84849
1.80679
1.76933
1.73567
1.70586
1.67974
1.65684
1.63705
1.62023
1.60691
1.59748
1.59156
1.58806
1.58619
1.58481
1.5836
1.58225
1.58027
1.57736
1.57375
1.56974
1.56557
1.56144
1.55765
1.55444
1.55191
1.55005
1.54879
1.54805
1.54761
1.54728
1.54691
1.54635
1.54544
1.54399
1.54194
1.53936
1.53655
1.53382
1.53145
1.52984
1.52928
1.52932
1.52969
1.53077
1.53304
1.53606
1.53923
1.54237
1.54534
1.54801
1.55036
1.55247
1.55447
1.55642
1.55859
1.56131
1.56464
1.56852
1.57281
1.57787
1.58294
1.58815
1.59335
1.59892
1.60382
1.60821
1.61252
1.61664
1.62096
1.62474
1.62846
1.63206
1.63583
1.63959
1.64363
1.64748
1.65129
1.65464
1.65772
1.65992
1.66159
1.66206
1.66178
1.66024
1.65685
1.64907
1.64226
1.62705
1.61644
1.59317
1.579
1.53493
2.24389
2.18964
2.13059
2.07184
2.01566
1.96264
1.91357
1.86804
1.82678
1.78852
1.75396
1.7219
1.69322
1.6673
1.64469
1.62501
1.60807
1.5939
1.58194
1.57242
1.5656
1.56066
1.55683
1.55374
1.55129
1.5487
1.54579
1.54268
1.53936
1.5359
1.53249
1.52937
1.52675
1.52472
1.52325
1.52228
1.52163
1.52107
1.52038
1.51943
1.5181
1.51626
1.51385
1.51099
1.50797
1.50507
1.50252
1.50068
1.49988
1.49984
1.50004
1.50068
1.50207
1.50391
1.50579
1.50758
1.50929
1.51079
1.51213
1.51335
1.51472
1.51616
1.51798
1.52041
1.52358
1.52718
1.53118
1.53601
1.54098
1.54591
1.55087
1.55611
1.56097
1.56515
1.56964
1.57436
1.57971
1.58516
1.59111
1.59751
1.60467
1.61206
1.6201
1.62796
1.6358
1.64272
1.6491
1.6539
1.65757
1.65874
1.65848
1.65656
1.65173
1.64041
1.63087
1.61019
1.59678
1.56794
1.55206
1.49824
2.23779
2.18685
2.13412
2.08076
2.02835
1.97845
1.93132
1.88739
1.84674
1.80911
1.77461
1.74267
1.71365
1.68669
1.66255
1.64017
1.62021
1.60212
1.58605
1.5721
1.5596
1.54937
1.54136
1.53481
1.52975
1.52579
1.52229
1.51924
1.51639
1.51366
1.51119
1.50894
1.5069
1.50506
1.50348
1.5021
1.50096
1.49992
1.49873
1.49712
1.49499
1.49234
1.48924
1.48585
1.48242
1.47927
1.47658
1.47458
1.47352
1.47334
1.47343
1.47381
1.47459
1.47559
1.47652
1.47733
1.47809
1.47875
1.47935
1.48002
1.48096
1.48229
1.48418
1.48678
1.4901
1.49395
1.49803
1.50277
1.50749
1.51265
1.51789
1.52325
1.52916
1.53518
1.54259
1.55099
1.56088
1.57186
1.58413
1.59707
1.6112
1.62503
1.63915
1.65236
1.66513
1.6753
1.68344
1.68823
1.68996
1.68912
1.68602
1.67839
1.66938
1.65128
1.63882
1.61222
1.59648
1.56164
1.54587
1.48159
2.22298
2.17934
2.13383
2.08528
2.03693
1.99018
1.94575
1.90381
1.86458
1.82796
1.79392
1.76223
1.73301
1.70581
1.6805
1.6571
1.63529
1.61499
1.59621
1.57893
1.56304
1.54901
1.53644
1.52604
1.51761
1.51093
1.50594
1.50213
1.49919
1.49697
1.49544
1.49438
1.49338
1.49218
1.49077
1.48929
1.48764
1.48567
1.48328
1.48041
1.47704
1.47323
1.46918
1.46515
1.46136
1.45799
1.4552
1.45308
1.45179
1.45135
1.45136
1.45151
1.45188
1.45234
1.45261
1.45285
1.45302
1.45325
1.45348
1.45388
1.45466
1.45598
1.45788
1.46055
1.46398
1.46804
1.47246
1.47815
1.48387
1.49035
1.49824
1.5078
1.51966
1.53315
1.54969
1.56767
1.58858
1.61128
1.63639
1.65945
1.68248
1.7025
1.71951
1.73154
1.73936
1.74342
1.74398
1.74185
1.73699
1.72782
1.72015
1.70412
1.69392
1.67046
1.6572
1.62814
1.61217
1.57541
1.56072
1.49049
2.21389
2.175
2.1318
2.08826
2.04306
1.9985
1.95573
1.91526
1.87755
1.84225
1.80926
1.77862
1.74963
1.72279
1.69728
1.67323
1.65052
1.62883
1.6082
1.58863
1.57033
1.55328
1.53792
1.52436
1.51264
1.50305
1.49542
1.48975
1.48583
1.48317
1.48153
1.48079
1.48037
1.47995
1.47923
1.47812
1.47631
1.4737
1.47039
1.46644
1.46201
1.45725
1.45243
1.44779
1.44365
1.44011
1.4373
1.43522
1.43391
1.43326
1.43305
1.43299
1.43293
1.43272
1.43229
1.43159
1.43093
1.43068
1.43073
1.43088
1.43148
1.43261
1.43465
1.43768
1.44198
1.4473
1.45383
1.46232
1.47345
1.48787
1.50695
1.5292
1.55561
1.5863
1.62126
1.65608
1.68922
1.71477
1.73266
1.74421
1.75063
1.75106
1.74968
1.74553
1.74025
1.73009
1.7244
1.70936
1.70234
1.6841
1.67606
1.65469
1.6447
1.6201
1.60831
1.58202
1.56871
1.54075
1.52766
1.47671
2.19333
2.16193
2.12607
2.08649
2.04578
2.00414
1.96357
1.92453
1.88772
1.8532
1.82098
1.79088
1.76268
1.73613
1.7109
1.68692
1.66381
1.64163
1.6201
1.59946
1.5797
1.56112
1.54379
1.52799
1.5139
1.50162
1.49132
1.48311
1.47701
1.47276
1.47022
1.46877
1.46814
1.4679
1.46745
1.46652
1.46482
1.4623
1.45898
1.45491
1.45022
1.44525
1.44023
1.43548
1.43123
1.42763
1.42481
1.42277
1.42131
1.42033
1.41959
1.41884
1.41789
1.41669
1.41533
1.41394
1.41258
1.41175
1.41175
1.41203
1.41284
1.41483
1.41859
1.42396
1.43145
1.44272
1.45798
1.48074
1.50766
1.54193
1.58239
1.62717
1.67281
1.70278
1.72322
1.73258
1.73566
1.73447
1.73176
1.72647
1.72155
1.71255
1.70694
1.69405
1.68795
1.67251
1.66525
1.64724
1.63918
1.6194
1.61068
1.58917
1.57912
1.55573
1.54469
1.52036
1.50868
1.4848
1.47273
1.43824
2.18137
2.15192
2.11928
2.08263
2.04416
2.00573
1.96711
1.92982
1.89439
1.86102
1.82978
1.80052
1.773
1.74702
1.72224
1.69823
1.67514
1.65257
1.63077
1.60967
1.58939
1.57004
1.55166
1.53456
1.51872
1.50455
1.49217
1.48166
1.47318
1.4667
1.46193
1.45874
1.45665
1.45525
1.45421
1.45314
1.45162
1.44943
1.44642
1.44267
1.43833
1.43366
1.42892
1.4244
1.4203
1.41676
1.4139
1.41163
1.40986
1.40833
1.40686
1.40531
1.40362
1.40178
1.39978
1.39798
1.39618
1.39546
1.39577
1.39735
1.40038
1.40578
1.41483
1.42837
1.45201
1.48206
1.52091
1.5689
1.62333
1.67219
1.69941
1.71381
1.71809
1.71732
1.71466
1.70981
1.70513
1.69636
1.69027
1.6788
1.67241
1.65876
1.65196
1.63719
1.62912
1.6127
1.60383
1.58602
1.57657
1.55773
1.54789
1.52826
1.5179
1.49729
1.48667
1.46562
1.45504
1.43384
1.42407
1.3978
2.15858
2.13087
2.10305
2.0749
2.04076
2.0044
1.96877
1.93315
1.89892
1.86654
1.83608
1.80761
1.78083
1.75536
1.73112
1.7076
1.68479
1.66257
1.64084
1.61963
1.59907
1.57912
1.56012
1.54203
1.52526
1.50981
1.49597
1.4838
1.4734
1.46472
1.45775
1.45236
1.44827
1.44517
1.44275
1.44066
1.43857
1.4362
1.43341
1.43012
1.42638
1.42234
1.41822
1.41424
1.41054
1.40727
1.40439
1.40193
1.39976
1.39772
1.39567
1.39342
1.39121
1.38871
1.38661
1.38463
1.38394
1.38507
1.38824
1.39392
1.40443
1.42457
1.45533
1.49418
1.54631
1.60653
1.65937
1.68761
1.69783
1.69942
1.69857
1.69472
1.69024
1.68249
1.67577
1.66557
1.65866
1.64643
1.63955
1.6265
1.61792
1.60503
1.59534
1.58094
1.57099
1.55505
1.54549
1.52788
1.51882
1.50049
1.49167
1.47338
1.46447
1.44594
1.43679
1.4182
1.409
1.39019
1.38185
1.36117
2.1435
2.12141
2.09155
2.06036
2.03145
2.00051
1.96704
1.93399
1.90135
1.87003
1.84042
1.81245
1.78623
1.76141
1.73767
1.71493
1.69268
1.67097
1.64964
1.62868
1.60805
1.58809
1.56862
1.55021
1.53267
1.51646
1.50149
1.48805
1.47605
1.46568
1.45675
1.44921
1.44298
1.43784
1.43356
1.4299
1.42661
1.42347
1.4203
1.41702
1.41364
1.41015
1.40665
1.40325
1.40006
1.3971
1.39436
1.39178
1.38925
1.38675
1.38408
1.38149
1.37876
1.37655
1.37538
1.37634
1.37947
1.38597
1.39887
1.42634
1.46326
1.51495
1.57981
1.6391
1.67509
1.68306
1.68432
1.68297
1.67868
1.6724
1.66522
1.65596
1.64817
1.63743
1.62948
1.61805
1.60921
1.59695
1.58702
1.57433
1.56406
1.5501
1.54006
1.52502
1.51499
1.49892
1.48968
1.47276
1.46427
1.44723
1.43916
1.42279
1.41483
1.39852
1.39049
1.37423
1.36621
1.34973
1.34251
1.32632
2.11018
2.09905
2.07747
2.05035
2.02232
1.99299
1.96297
1.93075
1.90084
1.87107
1.84267
1.81578
1.79037
1.7663
1.74313
1.72087
1.69915
1.67787
1.65691
1.6363
1.61601
1.5962
1.57693
1.55829
1.54053
1.52364
1.50797
1.49343
1.48026
1.46841
1.4579
1.44871
1.44057
1.43349
1.4273
1.42184
1.41698
1.4126
1.40853
1.40472
1.40112
1.39771
1.39455
1.39158
1.38882
1.38624
1.38374
1.38129
1.3787
1.3762
1.3735
1.37151
1.37039
1.37137
1.37456
1.38291
1.39939
1.433
1.47858
1.54229
1.61172
1.66145
1.67332
1.67439
1.67265
1.66732
1.66083
1.65187
1.6426
1.63266
1.6235
1.61314
1.60337
1.59217
1.58188
1.56983
1.55878
1.54596
1.53531
1.52166
1.511
1.49694
1.48662
1.47179
1.46228
1.44665
1.43832
1.42254
1.41487
1.39966
1.39242
1.37784
1.37077
1.35632
1.34923
1.33475
1.32761
1.31298
1.30665
1.29386
2.08723
2.07664
2.05741
2.03218
2.00664
1.98138
1.957
1.92878
1.89907
1.87077
1.84359
1.81743
1.79264
1.76916
1.74673
1.72509
1.70403
1.6834
1.66306
1.64292
1.62307
1.60342
1.58423
1.5655
1.54746
1.53026
1.51401
1.49889
1.48491
1.47208
1.46047
1.44983
1.44035
1.43169
1.42379
1.41664
1.4101
1.40415
1.39874
1.39388
1.38956
1.38571
1.38233
1.37939
1.37677
1.3744
1.37213
1.36999
1.36796
1.36622
1.36635
1.36753
1.37136
1.38078
1.40235
1.44116
1.49456
1.57274
1.63678
1.67139
1.67062
1.66875
1.66389
1.65585
1.64619
1.63512
1.62461
1.61384
1.60313
1.59207
1.58083
1.56898
1.55753
1.54546
1.53389
1.52096
1.5096
1.49643
1.48538
1.472
1.46145
1.44756
1.43796
1.42355
1.41512
1.40037
1.39313
1.37877
1.37178
1.35819
1.3517
1.3385
1.3322
1.31907
1.31273
1.29951
1.2931
1.28035
1.27374
1.26405
2.03992
2.05438
2.04549
2.02616
1.99972
1.97409
1.94778
1.92396
1.89691
1.8695
1.84295
1.81765
1.79322
1.77015
1.74826
1.72738
1.70716
1.68738
1.66789
1.64843
1.62907
1.60974
1.5906
1.57186
1.55363
1.53616
1.51958
1.50397
1.48944
1.47596
1.46348
1.45204
1.44136
1.43154
1.42242
1.41385
1.40585
1.39843
1.3916
1.38541
1.37988
1.37513
1.37104
1.36765
1.36475
1.36236
1.36065
1.3597
1.36036
1.36236
1.36789
1.37823
1.40426
1.44974
1.50923
1.59638
1.65687
1.67278
1.67124
1.66623
1.6578
1.6477
1.63596
1.62328
1.61112
1.59888
1.58674
1.57418
1.56175
1.54904
1.53669
1.52407
1.51209
1.49919
1.48756
1.47466
1.46351
1.45058
1.4401
1.42679
1.41731
1.40381
1.39549
1.38196
1.37436
1.36145
1.35444
1.34199
1.33532
1.32339
1.31701
1.30528
1.29916
1.28753
1.28121
1.27012
1.26306
1.25331
1.24618
1.23852
1.99946
2.0258
2.02386
2.01357
1.99262
1.96754
1.94139
1.91527
1.88975
1.86443
1.83947
1.81531
1.7923
1.77002
1.7486
1.72835
1.70876
1.68972
1.67093
1.65219
1.6334
1.61453
1.59569
1.57705
1.55886
1.54125
1.5245
1.5086
1.49369
1.4797
1.46668
1.45446
1.44312
1.43237
1.42227
1.41269
1.40361
1.39496
1.38688
1.37945
1.3727
1.36673
1.36159
1.35731
1.35416
1.35239
1.35312
1.35577
1.36144
1.37387
1.40225
1.45334
1.51782
1.6097
1.67054
1.6749
1.67342
1.666
1.65585
1.64365
1.63033
1.61674
1.6032
1.58944
1.57562
1.56142
1.54797
1.53421
1.521
1.50764
1.49513
1.48225
1.47032
1.45755
1.44639
1.43366
1.4233
1.41046
1.40087
1.38808
1.3794
1.36704
1.35916
1.34716
1.33997
1.32867
1.32179
1.31095
1.30437
1.29365
1.28732
1.27692
1.2706
1.26077
1.25394
1.24522
1.23781
1.22994
1.22342
1.21698
1.91113
1.98708
1.99961
1.99212
1.97623
1.95157
1.92646
1.90462
1.88269
1.85874
1.83457
1.81063
1.78753
1.76731
1.74784
1.72834
1.70941
1.69082
1.67252
1.65425
1.63593
1.6175
1.59911
1.58082
1.56289
1.54541
1.5286
1.51261
1.49739
1.48313
1.46963
1.45701
1.44501
1.43372
1.42286
1.41253
1.4026
1.39313
1.38412
1.37564
1.36786
1.36092
1.35481
1.3504
1.34967
1.35109
1.35583
1.36878
1.39815
1.45075
1.51869
1.61398
1.67691
1.67893
1.6772
1.66763
1.65651
1.64326
1.62866
1.61436
1.5994
1.5842
1.56917
1.55394
1.53892
1.52461
1.51066
1.49678
1.48352
1.47052
1.45812
1.44549
1.43389
1.42151
1.41085
1.3985
1.38878
1.37648
1.36762
1.35556
1.34781
1.33628
1.32893
1.31822
1.31124
1.3011
1.2945
1.28454
1.27807
1.26836
1.26201
1.25284
1.24655
1.2382
1.2315
1.22418
1.21754
1.21054
1.20495
1.19934
1.72532
1.90678
1.95563
1.97
1.96209
1.94476
1.91848
1.89261
1.87024
1.85099
1.83045
1.80852
1.78639
1.76449
1.74409
1.72653
1.70876
1.69078
1.67279
1.65488
1.6371
1.6192
1.60133
1.58347
1.5659
1.54865
1.53196
1.51588
1.5006
1.48608
1.47236
1.45938
1.44703
1.43527
1.42395
1.41303
1.40251
1.39238
1.38272
1.37356
1.36525
1.35811
1.35261
1.35388
1.35862
1.36722
1.39386
1.44706
1.51621
1.61397
1.68103
1.68464
1.68241
1.67149
1.65894
1.64423
1.62885
1.61336
1.59712
1.58056
1.56432
1.5483
1.53266
1.51752
1.50308
1.48906
1.47532
1.46207
1.44926
1.43677
1.42474
1.41267
1.4015
1.38955
1.37943
1.36752
1.35857
1.3468
1.33873
1.32766
1.32022
1.30972
1.30268
1.29277
1.2861
1.27673
1.27033
1.26118
1.25481
1.24607
1.23999
1.23189
1.22608
1.21878
1.21302
1.20634
1.20097
1.19456
1.18995
1.18513
1.44599
1.78703
1.90934
1.93258
1.93673
1.9296
1.91295
1.8885
1.86496
1.8422
1.82218
1.80416
1.78436
1.76361
1.74325
1.72329
1.70488
1.68873
1.67188
1.65463
1.63721
1.61997
1.60272
1.58543
1.56828
1.55128
1.53475
1.51868
1.50335
1.4887
1.47482
1.46159
1.44899
1.43688
1.42521
1.41393
1.40299
1.39249
1.38262
1.37326
1.36639
1.36352
1.36561
1.37243
1.39681
1.44426
1.51398
1.61519
1.68707
1.69424
1.69103
1.67867
1.66447
1.64735
1.62989
1.61249
1.59519
1.5774
1.56012
1.54337
1.52696
1.5114
1.49657
1.48227
1.46842
1.45495
1.44189
1.42914
1.41687
1.40486
1.39325
1.38154
1.37073
1.35925
1.34955
1.33841
1.32973
1.31895
1.31106
1.30094
1.29351
1.28394
1.27695
1.2678
1.2613
1.25264
1.24624
1.23804
1.23174
1.22434
1.21842
1.21184
1.20657
1.20037
1.19575
1.1897
1.18555
1.18016
1.17626
1.17273
1.23345
1.53514
1.81268
1.89477
1.91221
1.90952
1.90053
1.88219
1.86058
1.83897
1.81759
1.79682
1.77857
1.76056
1.74135
1.72198
1.70327
1.68466
1.66801
1.65272
1.63657
1.61993
1.60326
1.58657
1.56989
1.55328
1.53701
1.52109
1.5058
1.49107
1.47707
1.46364
1.45081
1.43845
1.42656
1.41507
1.40398
1.39374
1.38497
1.3779
1.38004
1.38678
1.4012
1.44364
1.51266
1.6176
1.69633
1.71151
1.70589
1.69113
1.67594
1.65589
1.63526
1.6159
1.59644
1.57744
1.55922
1.54141
1.5245
1.50779
1.49241
1.47748
1.4634
1.44949
1.43626
1.42317
1.41062
1.3982
1.38647
1.37461
1.36339
1.35201
1.34152
1.33065
1.32123
1.31077
1.30208
1.29219
1.28413
1.27487
1.26718
1.2582
1.25101
1.24245
1.23573
1.22782
1.22115
1.21412
1.20748
1.20173
1.19543
1.19062
1.18528
1.18041
1.1762
1.17137
1.16769
1.16378
1.16024
1.15829
1.10978
1.29521
1.5981
1.81637
1.87842
1.88884
1.8838
1.87108
1.85131
1.83251
1.8136
1.79371
1.77321
1.75365
1.73571
1.7183
1.70073
1.68322
1.66608
1.64933
1.63419
1.61911
1.60313
1.58688
1.57061
1.5544
1.53847
1.52283
1.50773
1.49305
1.47903
1.46547
1.45252
1.44001
1.42806
1.41696
1.40649
1.39857
1.39865
1.40172
1.41244
1.44815
1.51421
1.61749
1.70713
1.73596
1.72619
1.71037
1.69423
1.67143
1.64901
1.62643
1.60527
1.5847
1.56524
1.5465
1.52837
1.51079
1.49411
1.47815
1.463
1.44837
1.43432
1.42058
1.40756
1.3946
1.38238
1.37023
1.3587
1.34705
1.33614
1.32502
1.31491
1.30458
1.29523
1.28541
1.27674
1.26756
1.25935
1.25054
1.24258
1.23404
1.22671
1.2187
1.21181
1.20452
1.19769
1.19141
1.18464
1.17976
1.1733
1.16934
1.16382
1.16001
1.15538
1.15205
1.14803
1.14534
1.142
1.14099
1.05052
1.13245
1.32969
1.63622
1.80809
1.85458
1.86484
1.85858
1.84431
1.82296
1.80498
1.78828
1.76997
1.75001
1.73017
1.7119
1.6954
1.6798
1.66406
1.64819
1.63225
1.61675
1.60186
1.58644
1.57054
1.55468
1.53905
1.52373
1.50887
1.49439
1.48049
1.46699
1.4542
1.44196
1.43061
1.42224
1.41744
1.42005
1.4307
1.45703
1.51484
1.61288
1.71829
1.76406
1.75136
1.73621
1.71795
1.69296
1.66884
1.64481
1.62122
1.5986
1.57768
1.55742
1.53838
1.51965
1.50193
1.48445
1.46818
1.45224
1.43729
1.42254
1.40852
1.39476
1.38193
1.36917
1.35735
1.34517
1.33388
1.32224
1.3116
1.30077
1.29102
1.28101
1.27184
1.26249
1.25385
1.24503
1.23673
1.22826
1.22035
1.21242
1.20521
1.19784
1.19111
1.18422
1.17777
1.17149
1.16557
1.16031
1.15464
1.15057
1.14519
1.14181
1.13698
1.1343
1.13014
1.12797
1.12462
1.12372
1.02451
1.05879
1.15144
1.36788
1.66332
1.79611
1.82614
1.83905
1.83282
1.81917
1.79826
1.77916
1.76292
1.74592
1.72737
1.70836
1.69065
1.67491
1.66022
1.64572
1.63054
1.61516
1.59955
1.58433
1.56946
1.55427
1.53898
1.52399
1.50937
1.49518
1.48158
1.46847
1.4566
1.44672
1.43923
1.44148
1.45049
1.46899
1.51842
1.60852
1.72712
1.79167
1.78157
1.76612
1.74562
1.71998
1.69335
1.66795
1.64267
1.61857
1.59576
1.57381
1.55342
1.53341
1.51454
1.49612
1.47886
1.4618
1.44598
1.43016
1.41551
1.40052
1.38664
1.37245
1.35938
1.34609
1.3341
1.32167
1.3106
1.29914
1.28896
1.27847
1.26897
1.2592
1.25011
1.24096
1.23235
1.22376
1.21569
1.20765
1.20023
1.19292
1.18604
1.17932
1.17276
1.16641
1.16024
1.15437
1.14884
1.14383
1.13849
1.13475
1.12966
1.12644
1.1221
1.11959
1.11563
1.11366
1.11038
1.1092
1.01174
1.02635
1.06981
1.17236
1.41067
1.68185
1.7839
1.80368
1.81473
1.80922
1.79577
1.77504
1.75515
1.73849
1.72273
1.7059
1.6884
1.67161
1.65611
1.64184
1.62762
1.61293
1.59779
1.58251
1.56732
1.55261
1.53824
1.52383
1.50976
1.49608
1.48361
1.47223
1.4637