/*--------------------------------*- C++ -*----------------------------------*\
  =========                 |
  \\      /  F ield         | OpenFOAM: The Open Source CFD Toolbox
   \\    /   O peration     | Website:  https://openfoam.org
    \\  /    A nd           | Version:  13
     \\/     M anipulation  |
\*---------------------------------------------------------------------------*/
FoamFile
{
    format      ascii;
    class       volVectorField;
    location    "1";
    object      U;
}
// * * * * * * * * * * * * * * * * * * * * * * * * * * * * * * * * * * * * * //

dimensions      [0 1 -1 0 0 0 0];

internalField   nonuniform List<vector> 
5250
(
(3 4.26585e-09 0)
(3 7.56803e-09 0)
(2.99999 6.61332e-08 0)
(2.99997 7.64112e-08 0)
(2.99994 4.8193e-07 0)
(2.99984 5.21481e-07 0)
(2.9996 3.39361e-06 0)
(2.999 3.23706e-06 0)
(2.99754 2.36858e-05 0)
(2.99382 2.5873e-05 0)
(2.98458 0.000147084 0)
(2.96047 0.000258046 0)
(2.895 0.00088765 0)
(2.70401 0.00236098 0)
(2.11907 0.00739884 0)
(0.948578 0.0228465 0)
(0.296383 0.0229327 0)
(0.508657 0.0241861 0)
(0.553884 0.0274432 0)
(0.481826 0.0308906 0)
(0.378148 0.0346145 0)
(0.288709 0.0381948 0)
(0.212595 0.0413464 0)
(0.136424 0.0445135 0)
(0.064762 0.0487409 0)
(3 7.40364e-09 0)
(3 4.6588e-08 0)
(2.99999 1.62068e-07 0)
(2.99997 4.58613e-07 0)
(2.99994 1.22854e-06 0)
(2.99984 3.13124e-06 0)
(2.9996 8.06624e-06 0)
(2.99902 2.04455e-05 0)
(2.99756 5.178e-05 0)
(2.99392 0.00013432 0)
(2.98477 0.000343207 0)
(2.96109 0.000907483 0)
(2.89678 0.0024624 0)
(2.70954 0.00708079 0)
(2.13738 0.0218322 0)
(0.964412 0.0673535 0)
(0.305069 0.0675098 0)
(0.512207 0.0688097 0)
(0.555687 0.0745094 0)
(0.482435 0.0803223 0)
(0.378532 0.0871061 0)
(0.288728 0.0930673 0)
(0.211696 0.097182 0)
(0.134419 0.0998971 0)
(0.0632159 0.104005 0)
(3 1.04628e-08 0)
(3 8.44334e-08 0)
(2.99999 2.56127e-07 0)
(2.99997 8.28103e-07 0)
(2.99994 1.94166e-06 0)
(2.99984 5.62202e-06 0)
(2.99962 1.23316e-05 0)
(2.99903 3.63044e-05 0)
(2.99763 7.56139e-05 0)
(2.99406 0.00022881 0)
(2.98522 0.000498582 0)
(2.96225 0.00143062 0)
(2.90022 0.00366103 0)
(2.72069 0.0106377 0)
(2.17468 0.032572 0)
(0.9999 0.101572 0)
(0.326005 0.113653 0)
(0.519951 0.119066 0)
(0.560742 0.127738 0)
(0.487124 0.136963 0)
(0.383924 0.149107 0)
(0.293602 0.159664 0)
(0.215252 0.167 0)
(0.136252 0.171968 0)
(0.0640559 0.178886 0)
(3 1.7024e-08 0)
(3 1.04682e-07 0)
(2.99999 3.68116e-07 0)
(2.99998 1.0257e-06 0)
(2.99994 2.74876e-06 0)
(2.99985 6.87326e-06 0)
(2.99963 1.75047e-05 0)
(2.99907 4.30562e-05 0)
(2.99772 0.000108849 0)
(2.99427 0.000269177 0)
(2.98577 0.000682423 0)
(2.96374 0.00172941 0)
(2.90454 0.00457382 0)
(2.73441 0.0127237 0)
(2.22107 0.0379885 0)
(1.04945 0.116665 0)
(0.355472 0.161567 0)
(0.528849 0.173552 0)
(0.56675 0.182956 0)
(0.495021 0.194347 0)
(0.394198 0.211751 0)
(0.303231 0.227241 0)
(0.223091 0.238512 0)
(0.141479 0.246777 0)
(0.0667851 0.257686 0)
(3 2.13585e-08 0)
(3 1.31816e-07 0)
(2.99999 4.60885e-07 0)
(2.99998 1.28969e-06 0)
(2.99994 3.43366e-06 0)
(2.99986 8.59009e-06 0)
(2.99965 2.17428e-05 0)
(2.99911 5.33147e-05 0)
(2.99782 0.000134268 0)
(2.99454 0.000329206 0)
(2.98644 0.00082884 0)
(2.9655 0.00207368 0)
(2.90944 0.00539709 0)
(2.749 0.0147013 0)
(2.26663 0.0424898 0)
(1.11564 0.12752 0)
(0.395804 0.211329 0)
(0.536946 0.231198 0)
(0.571322 0.238627 0)
(0.504796 0.250939 0)
(0.408703 0.273763 0)
(0.317376 0.294463 0)
(0.235259 0.310361 0)
(0.150461 0.322968 0)
(0.0718201 0.338934 0)
(3 2.64715e-08 0)
(3 1.51216e-07 0)
(2.99999 5.55512e-07 0)
(2.99998 1.48152e-06 0)
(2.99995 4.10963e-06 0)
(2.99986 9.87783e-06 0)
(2.99967 2.61154e-05 0)
(2.99916 6.10177e-05 0)
(2.99795 0.000160677 0)
(2.99485 0.000374469 0)
(2.98723 0.000981568 0)
(2.96755 0.00236829 0)
(2.91508 0.00622155 0)
(2.76548 0.0166725 0)
(2.31737 0.0476641 0)
(1.19943 0.142845 0)
(0.451716 0.260227 0)
(0.546416 0.290184 0)
(0.574135 0.293066 0)
(0.517167 0.306202 0)
(0.428261 0.335886 0)
(0.336601 0.362835 0)
(0.252527 0.385078 0)
(0.163816 0.404312 0)
(0.079475 0.428198 0)
(3 2.89279e-08 0)
(3 1.79065e-07 0)
(2.99999 6.25872e-07 0)
(2.99998 1.74351e-06 0)
(2.99995 4.64243e-06 0)
(2.99987 1.14605e-05 0)
(2.99969 2.95972e-05 0)
(2.99922 7.07392e-05 0)
(2.99808 0.000182709 0)
(2.99522 0.000434848 0)
(2.9881 0.00111639 0)
(2.96987 0.0027221 0)
(2.92137 0.00706252 0)
(2.78356 0.018826 0)
(2.37307 0.0533019 0)
(1.29933 0.158614 0)
(0.524483 0.314308 0)
(0.557716 0.343222 0)
(0.574586 0.34487 0)
(0.533361 0.362684 0)
(0.454031 0.398004 0)
(0.362546 0.432572 0)
(0.277352 0.463863 0)
(0.184837 0.493344 0)
(0.092237 0.530595 0)
(3 3.13707e-08 0)
(3 2.04936e-07 0)
(2.99999 6.94629e-07 0)
(2.99998 1.98598e-06 0)
(2.99995 5.19477e-06 0)
(2.99988 1.31116e-05 0)
(2.99972 3.28739e-05 0)
(2.99929 8.14717e-05 0)
(2.99825 0.000202001 0)
(2.99563 0.000498647 0)
(2.98913 0.00123731 0)
(2.9725 0.00307093 0)
(2.9285 0.00786515 0)
(2.80396 0.0209014 0)
(2.43466 0.0588814 0)
(1.42604 0.172812 0)
(0.613057 0.373124 0)
(0.566294 0.38966 0)
(0.580493 0.394651 0)
(0.554381 0.421081 0)
(0.485359 0.459485 0)
(0.397565 0.503434 0)
(0.312957 0.54758 0)
(0.2177 0.592754 0)
(0.113567 0.655081 0)
(3 3.90643e-08 0)
(3 2.03583e-07 0)
(2.99999 8.14579e-07 0)
(2.99998 1.99454e-06 0)
(2.99996 6.04214e-06 0)
(2.9999 1.34599e-05 0)
(2.99975 3.78619e-05 0)
(2.99936 8.42345e-05 0)
(2.99843 0.000229638 0)
(2.99609 0.000521757 0)
(2.99024 0.00138462 0)
(2.97539 0.00328357 0)
(2.93621 0.00860049 0)
(2.82605 0.0224726 0)
(2.50044 0.0633493 0)
(1.5753 0.184838 0)
(0.715271 0.433158 0)
(0.572513 0.437232 0)
(0.594039 0.443319 0)
(0.581629 0.477365 0)
(0.523282 0.519868 0)
(0.445195 0.574772 0)
(0.364582 0.634104 0)
(0.272509 0.705272 0)
(0.152952 0.81602 0)
(3 3.71038e-08 0)
(3 2.32263e-07 0)
(2.99999 8.10842e-07 0)
(2.99999 2.28326e-06 0)
(2.99996 6.03008e-06 0)
(2.99991 1.5345e-05 0)
(2.99977 3.79642e-05 0)
(2.99945 9.5704e-05 0)
(2.99861 0.000232242 0)
(2.99659 0.000590468 0)
(2.99143 0.00142044 0)
(2.97853 0.00363624 0)
(2.94444 0.00904941 0)
(2.84962 0.0240546 0)
(2.57 0.0669437 0)
(1.75047 0.195046 0)
(0.836167 0.491542 0)
(0.581856 0.486393 0)
(0.615942 0.489791 0)
(0.619135 0.526945 0)
(0.572628 0.576236 0)
(0.507755 0.641875 0)
(0.439973 0.723067 0)
(0.367044 0.841877 0)
(0.226103 1.0777 0)
(3 3.67186e-08 0)
(3 2.37314e-07 0)
(3 8.03812e-07 0)
(2.99999 2.33017e-06 0)
(2.99997 6.02193e-06 0)
(2.99992 1.56713e-05 0)
(2.99981 3.85899e-05 0)
(2.99953 9.79404e-05 0)
(2.99884 0.000240189 0)
(2.99708 0.000603517 0)
(2.99278 0.00149083 0)
(2.98175 0.00373822 0)
(2.9532 0.00947574 0)
(2.8743 0.0248873 0)
(2.6429 0.0693901 0)
(1.94951 0.202248 0)
(0.982654 0.544269 0)
(0.609585 0.540296 0)
(0.653141 0.540599 0)
(0.671915 0.572037 0)
(0.637832 0.626023 0)
(0.592071 0.69952 0)
(0.556629 0.800481 0)
(0.562702 0.952065 0)
(0.627302 1.22347 0)
(3 3.44295e-08 0)
(3 2.11468e-07 0)
(3 7.43582e-07 0)
(2.99999 2.07874e-06 0)
(2.99997 5.59426e-06 0)
(2.99994 1.39947e-05 0)
(2.99984 3.6066e-05 0)
(2.99962 8.81813e-05 0)
(2.99903 0.000225403 0)
(2.99763 0.000550405 0)
(2.99404 0.00140675 0)
(2.98518 0.00347532 0)
(2.96206 0.00893191 0)
(2.89958 0.0233497 0)
(2.71851 0.0649809 0)
(2.17249 0.190989 0)
(1.17503 0.551652 0)
(0.684183 0.585102 0)
(0.714509 0.598055 0)
(0.739984 0.616116 0)
(0.718668 0.669028 0)
(0.692056 0.745575 0)
(0.69001 0.851882 0)
(0.751712 0.999678 0)
(0.922116 1.204 0)
(3 2.79735e-08 0)
(3 1.84414e-07 0)
(3 6.22324e-07 0)
(2.99999 1.80478e-06 0)
(2.99998 4.67142e-06 0)
(2.99995 1.2135e-05 0)
(2.99987 2.97005e-05 0)
(2.99968 7.65544e-05 0)
(2.99923 0.000183502 0)
(2.99806 0.000477049 0)
(2.99522 0.00113941 0)
(2.98802 0.00296017 0)
(2.96977 0.00727107 0)
(2.92112 0.0191662 0)
(2.78352 0.0517889 0)
(2.37614 0.15138 0)
(1.39339 0.461961 0)
(0.782734 0.614101 0)
(0.774126 0.652095 0)
(0.798244 0.665849 0)
(0.799439 0.710435 0)
(0.792993 0.782376 0)
(0.815502 0.879286 0)
(0.899706 1.00112 0)
(1.08427 1.12897 0)
(3 2.61034e-08 0)
(3 1.55576e-07 0)
(3 5.57952e-07 0)
(2.99999 1.52298e-06 0)
(2.99998 4.15972e-06 0)
(2.99996 1.01455e-05 0)
(2.9999 2.65062e-05 0)
(2.99975 6.29256e-05 0)
(2.99937 0.00016355 0)
(2.99843 0.000386126 0)
(2.99611 0.00100232 0)
(2.99029 0.00238339 0)
(2.97557 0.00613311 0)
(2.93669 0.0153409 0)
(2.82788 0.0409484 0)
(2.50826 0.115096 0)
(1.62653 0.347268 0)
(0.898088 0.65896 0)
(0.813513 0.700479 0)
(0.837001 0.717211 0)
(0.86204 0.748306 0)
(0.878851 0.809666 0)
(0.919817 0.890203 0)
(1.0108 0.982852 0)
(1.18089 1.06316 0)
(3 2.15978e-08 0)
(3 1.43162e-07 0)
(3 4.74829e-07 0)
(2.99999 1.40344e-06 0)
(2.99999 3.56251e-06 0)
(2.99997 9.34885e-06 0)
(2.99992 2.27399e-05 0)
(2.9998 5.81051e-05 0)
(2.9995 0.00014072 0)
(2.99876 0.000356476 0)
(2.99688 0.00086746 0)
(2.9923 0.00218731 0)
(2.98057 0.00539889 0)
(2.95005 0.013788 0)
(2.86581 0.0361271 0)
(2.61916 0.100807 0)
(1.89665 0.296639 0)
(1.06666 0.705507 0)
(0.850147 0.738972 0)
(0.868954 0.756844 0)
(0.9095 0.775744 0)
(0.948425 0.825325 0)
(1.00195 0.890621 0)
(1.09342 0.959613 0)
(1.24406 1.01339 0)
(3 1.95062e-08 0)
(3 1.16986e-07 0)
(3 4.21324e-07 0)
(3 1.14906e-06 0)
(2.99999 3.15221e-06 0)
(2.99997 7.77123e-06 0)
(2.99994 2.00432e-05 0)
(2.99984 4.90453e-05 0)
(2.99962 0.00012385 0)
(2.99904 0.000306247 0)
(2.99764 0.000762762 0)
(2.99407 0.00191349 0)
(2.98523 0.00477092 0)
(2.96227 0.0121195 0)
(2.90019 0.0317683 0)
(2.72123 0.0877982 0)
(2.182 0.257742 0)
(1.29627 0.703164 0)
(0.925904 0.766798 0)
(0.919963 0.788064 0)
(0.959342 0.800636 0)
(1.01141 0.834331 0)
(1.07019 0.885767 0)
(1.15733 0.937988 0)
(1.28903 0.976384 0)
(3 1.51872e-08 0)
(3 9.69372e-08 0)
(3 3.27782e-07 0)
(3 9.51426e-07 0)
(2.99999 2.45864e-06 0)
(2.99998 6.3399e-06 0)
(2.99995 1.58131e-05 0)
(2.99988 3.93175e-05 0)
(2.99971 9.92254e-05 0)
(2.99929 0.000240786 0)
(2.99822 0.000618019 0)
(2.99564 0.00148759 0)
(2.98907 0.00382939 0)
(2.97257 0.00943108 0)
(2.92883 0.0246704 0)
(2.8068 0.0664123 0)
(2.44764 0.193163 0)
(1.58191 0.578948 0)
(1.04917 0.773664 0)
(0.988917 0.812833 0)
(1.01171 0.830775 0)
(1.06726 0.847872 0)
(1.13019 0.88367 0)
(1.21113 0.922171 0)
(1.3252 0.94969 0)
(3 1.14995e-08 0)
(3 7.81673e-08 0)
(3 2.55908e-07 0)
(3 7.66607e-07 0)
(2.99999 1.91676e-06 0)
(2.99999 5.12873e-06 0)
(2.99997 1.21764e-05 0)
(2.99991 3.20005e-05 0)
(2.99979 7.50534e-05 0)
(2.99947 0.000196016 0)
(2.99868 0.000461213 0)
(2.99674 0.00119343 0)
(2.99185 0.00284987 0)
(2.97962 0.00729325 0)
(2.94759 0.0181399 0)
(2.85943 0.0480683 0)
(2.60348 0.133555 0)
(1.87865 0.403829 0)
(1.19386 0.788687 0)
(1.04632 0.83927 0)
(1.05565 0.86378 0)
(1.10909 0.869785 0)
(1.1778 0.887054 0)
(1.25496 0.912309 0)
(1.35491 0.931075 0)
(3 9.62284e-09 0)
(3 5.90596e-08 0)
(3 2.08012e-07 0)
(3 5.80273e-07 0)
(3 1.55535e-06 0)
(2.99999 3.89787e-06 0)
(2.99997 9.91481e-06 0)
(2.99994 2.44659e-05 0)
(2.99985 6.11994e-05 0)
(2.99961 0.000151566 0)
(2.99905 0.000376297 0)
(2.99763 0.000935994 0)
(2.99415 0.00232442 0)
(2.9853 0.00581701 0)
(2.96269 0.0146967 0)
(2.90145 0.0383478 0)
(2.72605 0.105419 0)
(2.19969 0.311735 0)
(1.41957 0.781967 0)
(1.12497 0.865292 0)
(1.10812 0.889558 0)
(1.14662 0.89357 0)
(1.21642 0.89481 0)
(1.29321 0.907468 0)
(1.3826 0.918955 0)
(3 7.30779e-09 0)
(3 4.44658e-08 0)
(3 1.56649e-07 0)
(3 4.36271e-07 0)
(3 1.17209e-06 0)
(2.99999 2.92051e-06 0)
(2.99998 7.51135e-06 0)
(2.99996 1.81892e-05 0)
(2.99989 4.6696e-05 0)
(2.99973 0.000111994 0)
(2.99933 0.000288169 0)
(2.99837 0.0006913 0)
(2.99592 0.00177819 0)
(2.98993 0.00431386 0)
(2.97466 0.0110606 0)
(2.93476 0.0281544 0)
(2.82461 0.0761853 0)
(2.50013 0.220337 0)
(1.72921 0.639026 0)
(1.25391 0.863524 0)
(1.17683 0.901171 0)
(1.19116 0.914901 0)
(1.25139 0.909269 0)
(1.32747 0.909942 0)
(1.40928 0.91398 0)
(3 5.26869e-09 0)
(3 3.29177e-08 0)
(3 1.15405e-07 0)
(3 3.22443e-07 0)
(3 8.63947e-07 0)
(3 2.17258e-06 0)
(2.99999 5.47952e-06 0)
(2.99997 1.367e-05 0)
(2.99992 3.36352e-05 0)
(2.99981 8.46969e-05 0)
(2.99954 0.000205496 0)
(2.99887 0.000522723 0)
(2.99717 0.00125614 0)
(2.99304 0.00320955 0)
(2.98252 0.0077944 0)
(2.9555 0.019999 0)
(2.88209 0.0517483 0)
(2.67087 0.143642 0)
(2.06363 0.430014 0)
(1.42084 0.860038 0)
(1.24108 0.922256 0)
(1.23562 0.939993 0)
(1.28183 0.933256 0)
(1.35644 0.921016 0)
(1.43457 0.91702 0)
(3 3.80485e-09 0)
(3 2.37843e-08 0)
(3 8.27805e-08 0)
(3 2.32968e-07 0)
(3 6.19125e-07 0)
(3 1.56285e-06 0)
(2.99999 3.94112e-06 0)
(2.99998 9.78286e-06 0)
(2.99995 2.42787e-05 0)
(2.99988 6.0375e-05 0)
(2.9997 0.00014864 0)
(2.99924 0.000371483 0)
(2.99816 0.000910296 0)
(2.99538 0.00228211 0)
(2.98863 0.00563478 0)
(2.97126 0.0141859 0)
(2.92565 0.0365478 0)
(2.79837 0.0988666 0)
(2.41585 0.290943 0)
(1.70014 0.755006 0)
(1.34853 0.918169 0)
(1.29724 0.950481 0)
(1.31817 0.955534 0)
(1.38266 0.939074 0)
(1.45894 0.926186 0)
(3 2.68094e-09 0)
(3 1.66276e-08 0)
(3 5.78053e-08 0)
(3 1.62991e-07 0)
(3 4.31003e-07 0)
(3 1.08771e-06 0)
(2.99999 2.74288e-06 0)
(2.99999 6.73853e-06 0)
(2.99997 1.69114e-05 0)
(2.99992 4.11018e-05 0)
(2.9998 0.000103264 0)
(2.9995 0.000250111 0)
(2.99876 0.000628753 0)
(2.99697 0.00152626 0)
(2.99244 0.00383051 0)
(2.98122 0.00944903 0)
(2.95198 0.0240039 0)
(2.87288 0.0630526 0)
(2.64443 0.177188 0)
(2.03 0.523852 0)
(1.49634 0.89267 0)
(1.3639 0.956072 0)
(1.36094 0.97458 0)
(1.40777 0.962694 0)
(1.47961 0.938242 0)
(3 1.85009e-09 0)
(3 1.12893e-08 0)
(3 4.01163e-08 0)
(3 1.10307e-07 0)
(3 2.99433e-07 0)
(3 7.38209e-07 0)
(3 1.89504e-06 0)
(2.99999 4.608e-06 0)
(2.99998 1.15752e-05 0)
(2.99995 2.83189e-05 0)
(2.99987 7.02182e-05 0)
(2.99968 0.000173521 0)
(2.99922 0.000424964 0)
(2.99805 0.00106326 0)
(2.99523 0.00258807 0)
(2.98805 0.00651835 0)
(2.97001 0.0161507 0)
(2.9221 0.0418986 0)
(2.78824 0.113017 0)
(2.38851 0.33463 0)
(1.7475 0.796895 0)
(1.45978 0.947514 0)
(1.41611 0.980808 0)
(1.43566 0.98238 0)
(1.49588 0.956783 0)
(3 1.21403e-09 0)
(3 7.55831e-09 0)
(3 2.60926e-08 0)
(3 7.40222e-08 0)
(3 1.9483e-07 0)
(3 4.9187e-07 0)
(3 1.24015e-06 0)
(2.99999 3.03651e-06 0)
(2.99999 7.64371e-06 0)
(2.99997 1.84508e-05 0)
(2.99992 4.67648e-05 0)
(2.9998 0.000112043 0)
(2.9995 0.000285091 0)
(2.99877 0.000683223 0)
(2.99698 0.00173754 0)
(2.99251 0.00420685 0)
(2.98136 0.010658 0)
(2.9525 0.0267566 0)
(2.87478 0.0708368 0)
(2.64947 0.200119 0)
(2.07194 0.573387 0)
(1.60391 0.916708 0)
(1.48301 0.980661 0)
(1.47515 0.995757 0)
(1.51414 0.98099 0)
(3 7.61325e-10 0)
(3 4.97167e-09 0)
(3 1.66166e-08 0)
(3 4.86953e-08 0)
(3 1.24155e-07 0)
(3 3.24107e-07 0)
(3 7.89113e-07 0)
(3 2.00447e-06 0)
(2.99999 4.86724e-06 0)
(2.99998 1.21935e-05 0)
(2.99995 2.97873e-05 0)
(2.99988 7.39458e-05 0)
(2.9997 0.000182052 0)
(2.99926 0.000447816 0)
(2.99816 0.00111296 0)
(2.99548 0.00272413 0)
(2.98877 0.0068194 0)
(2.97186 0.0169137 0)
(2.9274 0.0437596 0)
(2.80418 0.11755 0)
(2.43746 0.347302 0)
(1.85186 0.798319 0)
(1.57574 0.960116 0)
(1.52794 0.994786 0)
(1.54098 0.998553 0)
(3 4.75506e-10 0)
(3 3.15136e-09 0)
(3 1.04872e-08 0)
(3 3.0769e-08 0)
(3 7.83948e-08 0)
(3 2.04659e-07 0)
(3 4.96571e-07 0)
(3 1.26746e-06 0)
(2.99999 3.0432e-06 0)
(2.99999 7.70885e-06 0)
(2.99997 1.85255e-05 0)
(2.99993 4.65697e-05 0)
(2.99981 0.000112782 0)
(2.99955 0.000281148 0)
(2.99888 0.00068688 0)
(2.99726 0.00170101 0)
(2.99318 0.00420926 0)
(2.98313 0.0104329 0)
(2.95712 0.0264434 0)
(2.88789 0.0690088 0)
(2.68806 0.19455 0)
(2.17396 0.550083 0)
(1.72276 0.916021 0)
(1.59497 0.989044 0)
(1.58094 1.007 0)
(3 2.98839e-10 0)
(3 1.93288e-09 0)
(3 6.58189e-09 0)
(3 1.88746e-08 0)
(3 4.91983e-08 0)
(3 1.26089e-07 0)
(3 3.10982e-07 0)
(3 7.85246e-07 0)
(3 1.89753e-06 0)
(2.99999 4.80605e-06 0)
(2.99998 1.15065e-05 0)
(2.99996 2.92036e-05 0)
(2.99989 6.98024e-05 0)
(2.99974 0.000176845 0)
(2.99934 0.000423861 0)
(2.99841 0.00107025 0)
(2.99605 0.00258741 0)
(2.99034 0.00650292 0)
(2.97586 0.0160423 0)
(2.93861 0.0412481 0)
(2.83738 0.109929 0)
(2.53877 0.320211 0)
(1.98726 0.758434 0)
(1.6936 0.954642 0)
(1.63585 0.999543 0)
(3 1.882e-10 0)
(3 1.13844e-09 0)
(3 4.05952e-09 0)
(3 1.11301e-08 0)
(3 3.02404e-08 0)
(3 7.45343e-08 0)
(3 1.91215e-07 0)
(3 4.63491e-07 0)
(3 1.16625e-06 0)
(3 2.83463e-06 0)
(2.99999 7.04437e-06 0)
(2.99997 1.72657e-05 0)
(2.99994 4.23476e-05 0)
(2.99984 0.000104791 0)
(2.99962 0.000253932 0)
(2.99906 0.000634928 0)
(2.9977 0.00152329 0)
(2.99433 0.00383425 0)
(2.98596 0.00926363 0)
(2.96468 0.0234725 0)
(2.90851 0.059883 0)
(2.74957 0.164842 0)
(2.31901 0.464961 0)
(1.86056 0.871446 0)
(1.70576 0.980628 0)
(3 1.11778e-10 0)
(3 6.78419e-10 0)
(3 2.39191e-09 0)
(3 6.63584e-09 0)
(3 1.78021e-08 0)
(3 4.41514e-08 0)
(3 1.13089e-07 0)
(3 2.72823e-07 0)
(3 6.948e-07 0)
(3 1.66206e-06 0)
(2.99999 4.22624e-06 0)
(2.99999 1.01131e-05 0)
(2.99996 2.55854e-05 0)
(2.99991 6.15351e-05 0)
(2.99979 0.000154584 0)
(2.99947 0.000374336 0)
(2.99871 0.000933028 0)
(2.99679 0.00228054 0)
(2.99218 0.00565628 0)
(2.98047 0.0140128 0)
(2.95076 0.0354996 0)
(2.87126 0.0933995 0)
(2.63996 0.265387 0)
(2.14424 0.675826 0)
(1.82035 0.940999 0)
(3 6.22784e-11 0)
(3 4.04513e-10 0)
(3 1.35348e-09 0)
(3 3.95513e-09 0)
(3 1.00964e-08 0)
(3 2.62512e-08 0)
(3 6.40454e-08 0)
(3 1.61927e-07 0)
(3 3.94103e-07 0)
(3 9.80811e-07 0)
(3 2.40672e-06 0)
(2.99999 5.91966e-06 0)
(2.99998 1.46629e-05 0)
(2.99995 3.56425e-05 0)
(2.99988 8.92086e-05 0)
(2.99971 0.000214403 0)
(2.99929 0.000540569 0)
(2.99827 0.00129283 0)
(2.99573 0.00326519 0)
(2.98948 0.00786865 0)
(2.97374 0.0198789 0)
(2.9329 0.0501385 0)
(2.81991 0.135046 0)
(2.49762 0.383836 0)
(2.03526 0.803305 0)
(3 3.52434e-11 0)
(3 2.26268e-10 0)
(3 7.74014e-10 0)
(3 2.20819e-09 0)
(3 5.76768e-09 0)
(3 1.47378e-08 0)
(3 3.62748e-08 0)
(3 9.14637e-08 0)
(3 2.20438e-07 0)
(3 5.56896e-07 0)
(3 1.33094e-06 0)
(3 3.36763e-06 0)
(2.99999 8.02334e-06 0)
(2.99997 2.02632e-05 0)
(2.99994 4.83948e-05 0)
(2.99984 0.000121481 0)
(2.99961 0.000291712 0)
(2.99906 0.000728057 0)
(2.99765 0.00176247 0)
(2.99429 0.00437801 0)
(2.98576 0.0107569 0)
(2.96431 0.0270335 0)
(2.90771 0.0698368 0)
(2.74612 0.194351 0)
(2.34461 0.526707 0)
(3 2.03228e-11 0)
(3 1.23735e-10 0)
(3 4.36886e-10 0)
(3 1.20809e-09 0)
(3 3.24553e-09 0)
(3 8.03193e-09 0)
(3 2.04689e-08 0)
(3 4.96129e-08 0)
(3 1.24563e-07 0)
(3 3.01881e-07 0)
(3 7.51698e-07 0)
(3 1.83019e-06 0)
(2.99999 4.52494e-06 0)
(2.99999 1.10823e-05 0)
(2.99997 2.72041e-05 0)
(2.99992 6.70848e-05 0)
(2.9998 0.000163469 0)
(2.99949 0.000405839 0)
(2.99877 0.000985294 0)
(2.99697 0.00245661 0)
(2.99257 0.00600009 0)
(2.98159 0.0150032 0)
(2.95372 0.0378363 0)
(2.87939 0.0995582 0)
(2.66614 0.281356 0)
(3 1.08859e-11 0)
(3 6.85087e-11 0)
(3 2.3463e-10 0)
(3 6.68123e-10 0)
(3 1.74315e-09 0)
(3 4.42507e-09 0)
(3 1.10236e-08 0)
(3 2.71557e-08 0)
(3 6.74362e-08 0)
(3 1.63931e-07 0)
(3 4.08871e-07 0)
(3 9.87535e-07 0)
(3 2.47162e-06 0)
(2.99999 5.9491e-06 0)
(2.99998 1.4897e-05 0)
(2.99996 3.58772e-05 0)
(2.99989 8.95683e-05 0)
(2.99974 0.000216137 0)
(2.99936 0.000538145 0)
(2.99847 0.00130249 0)
(2.9962 0.00323401 0)
(2.99075 0.00789142 0)
(2.97696 0.0196996 0)
(2.94179 0.0496821 0)
(2.84538 0.132701 0)
(3 5.81067e-12 0)
(3 3.61624e-11 0)
(3 1.26222e-10 0)
(3 3.52763e-10 0)
(3 9.37607e-10 0)
(3 2.34958e-09 0)
(3 5.88012e-09 0)
(3 1.45185e-08 0)
(3 3.56114e-08 0)
(3 8.80826e-08 0)
(3 2.14057e-07 0)
(3 5.32438e-07 0)
(3 1.28168e-06 0)
(3 3.20861e-06 0)
(2.99999 7.67323e-06 0)
(2.99998 1.925e-05 0)
(2.99995 4.59064e-05 0)
(2.99987 0.000115072 0)
(2.99968 0.000274177 0)
(2.99922 0.000685355 0)
(2.99806 0.00164007 0)
(2.99529 0.00408427 0)
(2.98828 0.00990174 0)
(2.97092 0.0247874 0)
(2.92551 0.0630394 0)
(3 3.08722e-12 0)
(3 1.87824e-11 0)
(3 6.63319e-11 0)
(3 1.83258e-10 0)
(3 4.91945e-10 0)
(3 1.21603e-09 0)
(3 3.0992e-09 0)
(3 7.47286e-09 0)
(3 1.87949e-08 0)
(3 4.51736e-08 0)
(3 1.12693e-07 0)
(3 2.72154e-07 0)
(3 6.73107e-07 0)
(3 1.63643e-06 0)
(3 4.01065e-06 0)
(2.99999 9.83249e-06 0)
(2.99997 2.38795e-05 0)
(2.99993 5.89717e-05 0)
(2.99984 0.000142053 0)
(2.9996 0.000353654 0)
(2.99903 0.000847365 0)
(2.99763 0.00211938 0)
(2.99416 0.00510615 0)
(2.98564 0.01281 0)
(2.964 0.0317486 0)
(3 1.55366e-12 0)
(3 9.78418e-12 0)
(3 3.36369e-11 0)
(3 9.51502e-11 0)
(3 2.49759e-10 0)
(3 6.28485e-10 0)
(3 1.57544e-09 0)
(3 3.8388e-09 0)
(3 9.59664e-09 0)
(3 2.30391e-08 0)
(3 5.77534e-08 0)
(3 1.37887e-07 0)
(3 3.45802e-07 0)
(3 8.25471e-07 0)
(3 2.06332e-06 0)
(2.99999 4.94959e-06 0)
(2.99999 1.22925e-05 0)
(2.99997 2.96834e-05 0)
(2.99992 7.32082e-05 0)
(2.9998 0.000178308 0)
(2.99953 0.000436112 0)
(2.99884 0.00107251 0)
(2.99718 0.00261206 0)
(2.99306 0.00648081 0)
(2.98297 0.0159141 0)
(3 7.53422e-13 0)
(3 4.93007e-12 0)
(3 1.65733e-11 0)
(3 4.8236e-11 0)
(3 1.23442e-10 0)
(3 3.18888e-10 0)
(3 7.77486e-10 0)
(3 1.94885e-09 0)
(3 4.72904e-09 0)
(3 1.16676e-08 0)
(3 2.84972e-08 0)
(3 6.95619e-08 0)
(3 1.71265e-07 0)
(3 4.13777e-07 0)
(3 1.02828e-06 0)
(3 2.46332e-06 0)
(2.99999 6.15931e-06 0)
(2.99998 1.46943e-05 0)
(2.99996 3.6805e-05 0)
(2.99991 8.78379e-05 0)
(2.99977 0.000219354 0)
(2.99944 0.000525989 0)
(2.99867 0.00130679 0)
(2.99671 0.0031544 0)
(2.99206 0.00782124 0)
(3 3.70061e-13 0)
(3 2.41861e-12 0)
(3 8.14135e-12 0)
(3 2.3493e-11 0)
(3 6.06171e-11 0)
(3 1.55513e-10 0)
(3 3.80601e-10 0)
(3 9.56007e-10 0)
(3 2.29954e-09 0)
(3 5.7629e-09 0)
(3 1.37692e-08 0)
(3 3.44876e-08 0)
(3 8.2453e-08 0)
(3 2.05702e-07 0)
(3 4.93264e-07 0)
(3 1.22452e-06 0)
(3 2.95465e-06 0)
(2.99999 7.27049e-06 0)
(2.99998 1.76774e-05 0)
(2.99996 4.31118e-05 0)
(2.99989 0.000105654 0)
(2.99974 0.000254934 0)
(2.99937 0.000630069 0)
(2.99848 0.00150673 0)
(2.99629 0.003744 0)
(3 1.94683e-13 0)
(3 1.16727e-12 0)
(3 4.04013e-12 0)
(3 1.11601e-11 0)
(3 2.97202e-11 0)
(3 7.34238e-11 0)
(3 1.8626e-10 0)
(3 4.49836e-10 0)
(3 1.12504e-09 0)
(3 2.71442e-09 0)
(3 6.71353e-09 0)
(3 1.62907e-08 0)
(3 3.99517e-08 0)
(3 9.76237e-08 0)
(3 2.37199e-07 0)
(3 5.84329e-07 0)
(3 1.40631e-06 0)
(3 3.48737e-06 0)
(2.99999 8.34131e-06 0)
(2.99998 2.07277e-05 0)
(2.99995 4.93993e-05 0)
(2.99988 0.000122575 0)
(2.99971 0.000292469 0)
(2.99931 0.000722177 0)
(2.99829 0.00173021 0)
(3 8.3774e-14 0)
(3 5.26185e-13 0)
(3 1.84407e-12 0)
(3 5.25506e-12 0)
(3 1.37892e-11 0)
(3 3.48515e-11 0)
(3 8.66524e-11 0)
(3 2.12621e-10 0)
(3 5.26147e-10 0)
(3 1.27264e-09 0)
(3 3.16285e-09 0)
(3 7.59044e-09 0)
(3 1.89135e-08 0)
(3 4.5199e-08 0)
(3 1.12655e-07 0)
(3 2.69501e-07 0)
(3 6.68018e-07 0)
(3 1.60466e-06 0)
(3 3.94674e-06 0)
(2.99999 9.54277e-06 0)
(2.99998 2.32384e-05 0)
(2.99995 5.65849e-05 0)
(2.99987 0.000136509 0)
(2.99968 0.000335233 0)
(2.99924 0.000802005 0)
(3 1.92828e-14 0)
(3 2.04096e-13 0)
(3 7.645e-13 0)
(3 2.31432e-12 0)
(3 6.13824e-12 0)
(3 1.60392e-11 0)
(3 3.92539e-11 0)
(3 9.9078e-11 0)
(3 2.38e-10 0)
(3 5.95813e-10 0)
(3 1.42845e-09 0)
(3 3.55275e-09 0)
(3 8.53699e-09 0)
(3 2.11106e-08 0)
(3 5.09348e-08 0)
(3 1.25009e-07 0)
(3 3.03415e-07 0)
(3 7.38257e-07 0)
(3 1.80297e-06 0)
(3 4.3463e-06 0)
(2.99999 1.06928e-05 0)
(2.99998 2.55608e-05 0)
(2.99994 6.31686e-05 0)
(2.99986 0.000150535 0)
(2.99966 0.000372531 0)
(3 2.69522e-14 0)
(3 1.08795e-13 0)
(3 3.93864e-13 0)
(3 1.08008e-12 0)
(3 2.83154e-12 0)
(3 7.13605e-12 0)
(3 1.80084e-11 0)
(3 4.38625e-11 0)
(3 1.08856e-10 0)
(3 2.64775e-10 0)
(3 6.4882e-10 0)
(3 1.5874e-09 0)
(3 3.85026e-09 0)
(3 9.4915e-09 0)
(3 2.27938e-08 0)
(3 5.64952e-08 0)
(3 1.3494e-07 0)
(3 3.34841e-07 0)
(3 7.98039e-07 0)
(3 1.9756e-06 0)
(3 4.71782e-06 0)
(2.99999 1.16257e-05 0)
(2.99997 2.78701e-05 0)
(2.99994 6.82573e-05 0)
(2.99985 0.00016491 0)
(3 3.98692e-14 0)
(3 1.22091e-13 0)
(3 2.98956e-13 0)
(3 6.72745e-13 0)
(3 1.49457e-12 0)
(3 3.38043e-12 0)
(3 8.12964e-12 0)
(3 1.96849e-11 0)
(3 4.79953e-11 0)
(3 1.16931e-10 0)
(3 2.87276e-10 0)
(3 6.94768e-10 0)
(3 1.71625e-09 0)
(3 4.1209e-09 0)
(3 1.02153e-08 0)
(3 2.44291e-08 0)
(3 6.05095e-08 0)
(3 1.44704e-07 0)
(3 3.56956e-07 0)
(3 8.56053e-07 0)
(3 2.09949e-06 0)
(3 5.05816e-06 0)
(2.99999 1.23287e-05 0)
(2.99997 2.98636e-05 0)
(2.99994 7.23719e-05 0)
(3 -8.37817e-15 0)
(3 6.23654e-16 0)
(3 4.16818e-14 0)
(3 1.63244e-13 0)
(3 5.08436e-13 0)
(3 1.36035e-12 0)
(3 3.31082e-12 0)
(3 8.42138e-12 0)
(3 2.02671e-11 0)
(3 5.06665e-11 0)
(3 1.21854e-10 0)
(3 3.01987e-10 0)
(3 7.2906e-10 0)
(3 1.79035e-09 0)
(3 4.3503e-09 0)
(3 1.05757e-08 0)
(3 2.58783e-08 0)
(3 6.22611e-08 0)
(3 1.53577e-07 0)
(3 3.65937e-07 0)
(3 9.07221e-07 0)
(3 2.15333e-06 0)
(3 5.33607e-06 0)
(2.99999 1.2689e-05 0)
(2.99997 3.13358e-05 0)
(3 -2.92476e-15 0)
(3 1.84442e-14 0)
(3 3.60959e-14 0)
(3 7.75561e-14 0)
(3 2.10689e-13 0)
(3 5.57366e-13 0)
(3 1.40676e-12 0)
(3 3.4612e-12 0)
(3 8.66812e-12 0)
(3 2.09527e-11 0)
(3 5.20312e-11 0)
(3 1.25436e-10 0)
(3 3.10128e-10 0)
(3 7.48089e-10 0)
(3 1.83905e-09 0)
(3 4.45714e-09 0)
(3 1.0849e-08 0)
(3 2.64735e-08 0)
(3 6.38275e-08 0)
(3 1.56734e-07 0)
(3 3.74849e-07 0)
(3 9.24147e-07 0)
(3 2.20045e-06 0)
(3 5.43684e-06 0)
(2.99999 1.2924e-05 0)
(3 2.60401e-14 0)
(3 6.58705e-14 0)
(3 1.16646e-13 0)
(3 1.5532e-13 0)
(3 2.35805e-13 0)
(3 3.8112e-13 0)
(3 7.54455e-13 0)
(3 1.61268e-12 0)
(3 3.68479e-12 0)
(3 8.84693e-12 0)
(3 2.15441e-11 0)
(3 5.17487e-11 0)
(3 1.27757e-10 0)
(3 3.0845e-10 0)
(3 7.55943e-10 0)
(3 1.83568e-09 0)
(3 4.46618e-09 0)
(3 1.0891e-08 0)
(3 2.62656e-08 0)
(3 6.44726e-08 0)
(3 1.54085e-07 0)
(3 3.80086e-07 0)
(3 9.03535e-07 0)
(3 2.23381e-06 0)
(3 5.30173e-06 0)
(3 -1.29019e-14 0)
(3 -5.47691e-14 0)
(3 -7.50231e-14 0)
(3 -7.44648e-14 0)
(3 -6.0521e-14 0)
(3 4.42073e-15 0)
(3 1.4817e-13 0)
(3 4.87231e-13 0)
(3 1.35266e-12 0)
(3 3.41697e-12 0)
(3 8.52601e-12 0)
(3 2.07779e-11 0)
(3 5.09646e-11 0)
(3 1.2347e-10 0)
(3 3.03287e-10 0)
(3 7.29474e-10 0)
(3 1.80141e-09 0)
(3 4.30467e-09 0)
(3 1.06595e-08 0)
(3 2.53576e-08 0)
(3 6.28052e-08 0)
(3 1.49209e-07 0)
(3 3.68351e-07 0)
(3 8.77554e-07 0)
(3 2.15402e-06 0)
(3 3.1818e-16 0)
(3 -8.44651e-15 0)
(3 -1.97734e-14 0)
(3 -1.63702e-14 0)
(3 -1.30463e-14 0)
(3 6.42002e-15 0)
(3 7.95771e-14 0)
(3 2.12971e-13 0)
(3 5.66173e-13 0)
(3 1.3463e-12 0)
(3 3.24367e-12 0)
(3 7.96271e-12 0)
(3 1.89899e-11 0)
(3 4.69246e-11 0)
(3 1.12698e-10 0)
(3 2.76597e-10 0)
(3 6.68848e-10 0)
(3 1.63257e-09 0)
(3 3.9613e-09 0)
(3 9.60504e-09 0)
(3 2.34372e-08 0)
(3 5.62934e-08 0)
(3 1.38082e-07 0)
(3 3.29879e-07 0)
(3 8.10068e-07 0)
(3 1.88264e-14 0)
(3 4.51963e-14 0)
(3 6.18607e-14 0)
(3 7.29932e-14 0)
(3 8.23298e-14 0)
(3 9.43168e-14 0)
(3 1.17695e-13 0)
(3 1.52992e-13 0)
(3 2.37387e-13 0)
(3 4.38801e-13 0)
(3 9.02436e-13 0)
(3 2.0323e-12 0)
(3 4.8409e-12 0)
(3 1.18731e-11 0)
(3 2.82895e-11 0)
(3 7.04955e-11 0)
(3 1.66905e-10 0)
(3 4.19383e-10 0)
(3 9.83817e-10 0)
(3 2.48667e-09 0)
(3 5.78555e-09 0)
(3 1.46581e-08 0)
(3 3.40471e-08 0)
(3 8.5924e-08 0)
(3 1.99923e-07 0)
(1.33152 1.12185 0)
(1.76447 0.912277 0)
(1.96673 0.640551 0)
(2.01129 0.366419 0)
(1.97624 0.142621 0)
(1.90512 -0.00672853 0)
(1.82771 -0.0482225 0)
(1.78996 -0.0270443 0)
(1.78951 0.00883099 0)
(1.79979 0.0344448 0)
(1.81467 0.0420199 0)
(1.83143 0.0363512 0)
(1.8426 0.0250991 0)
(1.85114 0.0140689 0)
(1.85972 0.00751904 0)
(1.8698 0.00523774 0)
(1.88187 0.00547861 0)
(1.89579 0.00628057 0)
(1.91087 0.00659452 0)
(1.92662 0.00611403 0)
(1.94268 0.00505596 0)
(1.95888 0.00381876 0)
(1.97517 0.00271084 0)
(1.99157 0.00186008 0)
(2.0081 0.00127598 0)
(2.02477 0.000899622 0)
(2.04156 0.000653137 0)
(2.05842 0.000471387 0)
(2.07532 0.000314829 0)
(2.09219 0.000164212 0)
(2.10902 1.07406e-05 0)
(2.12577 -0.000140592 0)
(2.14239 -0.000278337 0)
(2.15886 -0.000396477 0)
(2.17515 -0.000476909 0)
(2.19124 -0.000513011 0)
(2.20713 -0.000511663 0)
(2.22279 -0.000456328 0)
(2.23819 -0.000363743 0)
(2.25332 -0.000238091 0)
(2.26819 -0.00011747 0)
(2.28275 5.06517e-05 0)
(2.29697 0.000246748 0)
(2.3108 0.000450922 0)
(2.32421 0.000655819 0)
(2.33718 0.000862997 0)
(2.34967 0.00107387 0)
(2.36165 0.00128806 0)
(2.37312 0.0015024 0)
(2.38405 0.00173062 0)
(2.39443 0.00196692 0)
(2.40423 0.00221158 0)
(2.41345 0.00245809 0)
(2.42208 0.00273179 0)
(2.43014 0.00299531 0)
(2.43761 0.00326925 0)
(2.44452 0.00354185 0)
(2.45087 0.00382671 0)
(2.45666 0.00412181 0)
(2.46189 0.00442791 0)
(2.46659 0.00473172 0)
(2.47075 0.00505669 0)
(2.47438 0.00534446 0)
(2.47752 0.00557416 0)
(2.48016 0.00571229 0)
(2.48235 0.0057654 0)
(2.4841 0.00576593 0)
(2.48545 0.00571239 0)
(2.4864 0.00566077 0)
(2.48695 0.00556136 0)
(2.48719 0.00545658 0)
(2.48714 0.00538197 0)
(2.48685 0.00534514 0)
(2.48638 0.005303 0)
(2.48587 0.00524488 0)
(2.48532 0.00517808 0)
(2.48457 0.00511245 0)
(2.48347 0.00504568 0)
(2.48212 0.00497011 0)
(2.48076 0.00485349 0)
(2.47953 0.00470886 0)
(2.47842 0.00452278 0)
(2.47749 0.00430361 0)
(2.47682 0.00399676 0)
(2.47652 0.00359062 0)
(2.47654 0.00306274 0)
(2.47689 0.00246906 0)
(2.4777 0.00180495 0)
(2.479 0.00111415 0)
(2.48107 0.000410758 0)
(2.48355 -0.000469222 0)
(2.48682 -0.00108538 0)
(2.49071 -0.00194721 0)
(2.4955 -0.00241903 0)
(2.50098 -0.00305529 0)
(2.50723 -0.00347543 0)
(2.51398 -0.00390687 0)
(2.52099 -0.00417091 0)
(2.52721 -0.00413284 0)
(2.53461 -0.00355081 0)
(1.41529 1.02364 0)
(1.74882 0.732462 0)
(1.93839 0.412689 0)
(2.03711 0.13676 0)
(2.0998 -0.0598128 0)
(2.14446 -0.166099 0)
(2.16607 -0.181025 0)
(2.17172 -0.142887 0)
(2.17066 -0.0957086 0)
(2.162 -0.055789 0)
(2.15445 -0.0289259 0)
(2.15575 -0.0195896 0)
(2.16217 -0.0215882 0)
(2.17121 -0.0249949 0)
(2.18227 -0.0281972 0)
(2.19315 -0.0303488 0)
(2.20325 -0.0303387 0)
(2.2129 -0.0290461 0)
(2.22259 -0.0274884 0)
(2.23268 -0.0261963 0)
(2.24333 -0.0252419 0)
(2.25451 -0.0245206 0)
(2.26606 -0.0239032 0)
(2.27787 -0.0233035 0)
(2.28987 -0.0226806 0)
(2.30203 -0.0220249 0)
(2.31433 -0.0213482 0)
(2.32676 -0.020674 0)
(2.33932 -0.0200256 0)
(2.35196 -0.0194183 0)
(2.36468 -0.0188717 0)
(2.37744 -0.0183983 0)
(2.39022 -0.0179651 0)
(2.40299 -0.0175477 0)
(2.41571 -0.0171564 0)
(2.42838 -0.0167782 0)
(2.44098 -0.0163864 0)
(2.4535 -0.0159602 0)
(2.46589 -0.0154952 0)
(2.47813 -0.015012 0)
(2.49027 -0.0145292 0)
(2.50229 -0.0140475 0)
(2.51411 -0.0135526 0)
(2.5257 -0.0130612 0)
(2.53704 -0.0125873 0)
(2.5481 -0.0121301 0)
(2.55886 -0.011687 0)
(2.56929 -0.0112601 0)
(2.57937 -0.0108377 0)
(2.58907 -0.0104226 0)