/*--------------------------------*- C++ -*----------------------------------*\
  =========                 |
  \\      /  F ield         | OpenFOAM: The Open Source CFD Toolbox
   \\    /   O peration     | Website:  https://openfoam.org
    \\  /    A nd           | Version:  13
     \\/     M anipulation  |
\*---------------------------------------------------------------------------*/
FoamFile
{
    format      ascii;
    class       volScalarField;
    location    "4.12";
    object      T;
}
// * * * * * * * * * * * * * * * * * * * * * * * * * * * * * * * * * * * * * //

dimensions      [0 0 0 1 0 0 0];

internalField   nonuniform List<scalar> 
1000
(
4.27929e-54
5.47131e-54
8.18199e-54
1.31527e-53
2.17388e-53
3.62733e-53
6.06898e-53
1.0157e-52
1.69886e-52
2.83897e-52
4.73949e-52
7.90408e-52
1.31678e-51
2.19138e-51
3.64303e-51
6.04987e-51
1.00362e-50
1.66315e-50
2.75316e-50
4.55271e-50
7.52051e-50
1.24097e-49
2.04558e-49
3.36827e-49
5.54032e-49
9.10332e-49
1.49418e-48
2.44986e-48
4.0125e-48
6.56488e-48
1.07294e-47
1.75169e-47
2.85677e-47
4.65402e-47
7.57386e-47
1.23123e-46
1.9994e-46
3.24333e-46
5.25554e-46
8.50703e-46
1.37554e-45
2.22177e-45
3.58476e-45
5.77768e-45
9.30207e-45
1.49602e-44
2.40342e-44
3.85702e-44
6.18312e-44
9.90134e-44
1.58384e-43
2.53082e-43
4.03963e-43
6.44098e-43
1.02587e-42
1.63217e-42
2.59398e-42
4.11811e-42
6.53069e-42
1.03454e-41
1.63708e-41
2.58772e-41
4.08596e-41
6.44466e-41
1.01539e-40
1.59807e-40
2.51239e-40
3.94552e-40
6.1894e-40
9.69886e-40
1.51817e-39
2.37381e-39
3.70764e-39
5.78464e-39
9.01533e-39
1.4035e-38
2.18257e-38
3.39039e-38
5.26087e-38
8.15435e-38
1.26254e-37
1.95266e-37
3.01671e-37
4.65547e-37
7.17658e-37
1.10508e-36
1.69979e-36
2.61169e-36
4.00838e-36
6.14524e-36
9.41093e-36
1.43962e-35
2.19982e-35
3.35774e-35
5.11951e-35
7.79708e-35
1.1862e-34
1.80262e-34
2.73635e-34
4.14915e-34
6.28446e-34
9.50818e-34
1.43697e-33
2.16929e-33
3.27119e-33
4.92737e-33
7.41385e-33
1.11427e-32
1.67285e-32
2.50867e-32
3.75792e-32
5.62302e-32
8.40447e-32
1.25478e-31
1.87131e-31
2.78766e-31
4.14812e-31
6.16567e-31
9.15432e-31
1.35765e-30
2.01126e-30
2.97621e-30
4.39923e-30
6.49538e-30
9.57962e-30
1.41126e-29
2.07675e-29
3.05263e-29
4.48208e-29
6.57355e-29
9.6302e-29
1.40924e-28
2.05991e-28
3.00765e-28
4.38652e-28
6.39037e-28
9.29921e-28
1.3517e-27
1.96257e-27
2.84633e-27
4.12342e-27
5.96682e-27
8.62463e-27
1.24523e-26
1.79586e-26
2.58706e-26
3.72265e-26
5.3507e-26
7.68209e-26
1.10169e-25
1.57816e-25
2.25815e-25
3.2275e-25
4.60776e-25
6.57089e-25
9.35984e-25
1.33175e-24
1.89272e-24
2.68696e-24
3.81017e-24
5.39682e-24
7.63555e-24
1.07907e-23
1.52325e-23
2.14783e-23
3.02509e-23
4.25582e-23
5.9805e-23
8.39459e-23
1.17698e-22
1.64834e-22
2.30586e-22
3.222e-22
4.49703e-22
6.2695e-22
8.73066e-22
1.21442e-21
1.68731e-21
2.34169e-21
3.24616e-21
4.49486e-21
6.21683e-21
8.58871e-21
1.1852e-20
1.63366e-20
2.24925e-20
3.09327e-20
4.24916e-20
5.83035e-20
7.99079e-20
1.09393e-19
1.49587e-19
2.04317e-19
2.78752e-19
3.79871e-19
5.1708e-19
7.03046e-19
9.54802e-19
1.29523e-18
1.75502e-18
2.37532e-18
3.21119e-18
4.33623e-18
5.84873e-18
7.87977e-18
1.0604e-17
1.42536e-17
1.91375e-17
2.56654e-17
3.43805e-17
4.60022e-17
6.14818e-17
8.20761e-17
1.09443e-16
1.45768e-16
1.93927e-16
2.577e-16
3.42051e-16
4.53492e-16
6.00551e-16
7.94384e-16
1.04957e-15
1.38514e-15
1.8259e-15
2.40415e-15
3.16187e-15
4.15364e-15
5.45021e-15
7.14328e-15
9.35151e-15
1.22283e-14
1.59717e-14
2.08369e-14
2.7153e-14
3.53428e-14
4.59497e-14
5.96712e-14
7.74008e-14
1.00283e-13
1.29779e-13
1.67758e-13
2.16601e-13
2.79342e-13
3.59842e-13
4.63005e-13
5.95056e-13
7.63886e-13
9.79485e-13
1.25449e-12
1.60484e-12
2.05067e-12
2.61733e-12
3.33672e-12
4.24892e-12
5.40425e-12
6.86578e-12
8.7125e-12
1.10432e-11
1.39811e-11
1.76802e-11
2.23322e-11
2.81757e-11
3.5507e-11
4.46941e-11
5.61934e-11
7.05695e-11
8.85211e-11
1.10911e-10
1.38803e-10
1.73508e-10
2.1664e-10
2.70182e-10
3.36566e-10
4.18775e-10
5.20462e-10
6.46093e-10
8.01121e-10
9.92199e-10
1.22743e-09
1.51667e-09
1.8719e-09
2.30766e-09
2.84157e-09
3.49497e-09
4.29362e-09
5.26869e-09
6.4577e-09
7.90589e-09
9.66766e-09
1.18083e-08
1.44064e-08
1.75556e-08
2.13686e-08
2.59797e-08
3.15492e-08
3.82684e-08
4.63651e-08
5.61098e-08
6.78241e-08
8.18892e-08
9.8757e-08
1.18962e-07
1.43134e-07
1.7202e-07
2.06495e-07
2.47595e-07
2.96531e-07
3.5473e-07
4.23861e-07
5.05881e-07
6.03075e-07
7.18113e-07
8.54109e-07
1.01469e-06
1.20407e-06
1.42715e-06
1.6896e-06
1.99803e-06
2.36003e-06
2.7844e-06
3.28131e-06
3.86244e-06
4.54127e-06
5.33326e-06
6.25617e-06
7.33035e-06
8.5791e-06
1.0029e-05
1.17106e-05
1.36584e-05
1.59119e-05
1.85159e-05
2.15214e-05
2.49861e-05
2.89753e-05
3.3563e-05
3.88326e-05
4.48781e-05
5.18056e-05
5.9734e-05
6.87972e-05
7.91451e-05
9.09456e-05
0.000104386
0.000119677
0.000137052
0.00015677
0.000179121
0.000204426
0.000233041
0.000265361
0.00030182
0.000342899
0.000389128
0.00044109
0.000499426
0.000564838
0.000638096
0.000720043
0.000811598
0.000913766
0.00102764
0.0011544
0.00129535
0.00145187
0.00162549
0.00181783
0.00203066
0.00226587
0.00252551
0.00281177
0.00312699
0.00347368
0.00385454
0.00427241
0.00473034
0.00523157
0.00577952
0.00637783
0.00703035
0.0077411
0.00851437
0.00935462
0.0102666
0.0112551
0.0123254
0.0134828
0.0147329
0.0160815
0.0175345
0.0190982
0.0207789
0.0225833
0.024518
0.02659
0.0288064
0.0311743
0.033701
0.036394
0.0392606
0.0423084
0.0455449
0.0489776
0.052614
0.0564615
0.0605275
0.0648191
0.0693434
0.0741072
0.0791171
0.0843794
0.0899002
0.0956852
0.10174
0.108068
0.114675
0.121565
0.128741
0.136206
0.143961
0.152009
0.160351
0.168986
0.177914
0.187134
0.196644
0.20644
0.21652
0.22688
0.237512
0.248413
0.259575
0.270989
0.282649
0.294544
0.306665
0.319
0.331538
0.344268
0.357175
0.370247
0.38347
0.396828
0.410308
0.423892
0.437565
0.451311
0.465113
0.478954
0.492817
0.506685
0.52054
0.534365
0.548143
0.561857
0.575489
0.589023
0.602443
0.615731
0.628872
0.641851
0.654653
0.667262
0.679666
0.69185
0.703801
0.715508
0.726958
0.738141
0.749045
0.759662
0.769982
0.779996
0.789697
0.799077
0.80813
0.816849
0.82523
0.833268
0.840957
0.848295
0.855278
0.861902
0.868166
0.874068
0.879605
0.884777
0.889581
0.894018
0.898085
0.901784
0.905113
0.908073
0.910663
0.912882
0.914732
0.916212
0.917321
0.918061
0.918431
0.918431
0.918061
0.917321
0.916212
0.914732
0.912882
0.910663
0.908073
0.905113
0.901784
0.898085
0.894018
0.889581
0.884777
0.879605
0.874068
0.868166
0.861902
0.855278
0.848295
0.840957
0.833268
0.82523
0.816849
0.80813
0.799077
0.789697
0.779996
0.769982
0.759662
0.749045
0.738141
0.726958
0.715508
0.703801
0.69185
0.679666
0.667262
0.654653
0.641851
0.628872
0.615731
0.602443
0.589023
0.575489
0.561857
0.548143
0.534365
0.52054
0.506685
0.492817
0.478954
0.465113
0.451311
0.437565
0.423892
0.410308
0.396828
0.38347
0.370247
0.357175
0.344268
0.331538
0.319
0.306665
0.294544
0.282649
0.270989
0.259575
0.248413
0.237512
0.22688
0.21652
0.20644
0.196644
0.187134
0.177914
0.168986
0.160351
0.152009
0.143961
0.136206
0.128741
0.121565
0.114675
0.108068
0.10174
0.0956852
0.0899002
0.0843794
0.0791171
0.0741072
0.0693434
0.0648191
0.0605275
0.0564615
0.052614
0.0489776
0.0455449
0.0423084
0.0392606
0.036394
0.033701
0.0311743
0.0288064
0.02659
0.024518
0.0225833
0.0207789
0.0190982
0.0175345
0.0160815
0.0147329
0.0134828
0.0123254
0.0112551
0.0102666
0.00935462
0.00851437
0.0077411
0.00703035
0.00637783
0.00577952
0.00523157
0.00473034
0.00427241
0.00385454
0.00347368
0.00312699
0.00281177
0.00252551
0.00226587
0.00203066
0.00181783
0.00162549
0.00145187
0.00129535
0.0011544
0.00102764
0.000913766
0.000811598
0.000720043
0.000638096
0.000564838
0.000499426
0.00044109
0.000389128
0.000342899
0.00030182
0.000265361
0.000233041
0.000204426
0.000179121
0.00015677
0.000137052
0.000119677
0.000104386
9.09456e-05
7.91451e-05
6.87972e-05
5.9734e-05
5.18056e-05
4.48781e-05
3.88326e-05
3.3563e-05
2.89753e-05
2.49861e-05
2.15214e-05
1.85159e-05
1.59119e-05
1.36584e-05
1.17106e-05
1.0029e-05
8.5791e-06
7.33035e-06
6.25617e-06
5.33326e-06
4.54127e-06
3.86244e-06
3.28131e-06
2.7844e-06
2.36003e-06
1.99803e-06
1.6896e-06
1.42715e-06
1.20407e-06
1.01469e-06
8.54109e-07
7.18113e-07
6.03075e-07
5.05881e-07
4.23861e-07
3.5473e-07
2.96531e-07
2.47595e-07
2.06495e-07
1.7202e-07
1.43134e-07
1.18962e-07
9.8757e-08
8.18892e-08
6.78241e-08
5.61098e-08
4.63651e-08
3.82684e-08
3.15492e-08
2.59797e-08
2.13686e-08
1.75556e-08
1.44064e-08
1.18083e-08
9.66766e-09
7.90589e-09
6.4577e-09
5.26869e-09
4.29362e-09
3.49497e-09
2.84157e-09
2.30766e-09
1.8719e-09
1.51667e-09
1.22743e-09
9.92199e-10
8.01121e-10
6.46093e-10
5.20462e-10
4.18775e-10
3.36566e-10
2.70182e-10
2.1664e-10
1.73508e-10
1.38803e-10
1.10911e-10
8.85211e-11
7.05695e-11
5.61934e-11
4.46941e-11
3.5507e-11
2.81757e-11
2.23322e-11
1.76802e-11
1.39811e-11
1.10432e-11
8.7125e-12
6.86578e-12
5.40425e-12
4.24892e-12
3.33672e-12
2.61733e-12
2.05067e-12
1.60484e-12
1.25449e-12
9.79485e-13
7.63886e-13
5.95056e-13
4.63005e-13
3.59842e-13
2.79342e-13
2.16601e-13
1.67758e-13
1.29779e-13
1.00283e-13
7.74008e-14
5.96712e-14
4.59497e-14
3.53428e-14
2.7153e-14
2.08369e-14
1.59717e-14
1.22283e-14
9.35151e-15
7.14328e-15
5.45021e-15
4.15364e-15
3.16187e-15
2.40415e-15
1.8259e-15
1.38514e-15
1.04957e-15
7.94384e-16
6.00551e-16
4.53492e-16
3.42051e-16
2.577e-16
1.93927e-16
1.45768e-16
1.09443e-16
8.20761e-17
6.14818e-17
4.60022e-17
3.43805e-17
2.56654e-17
1.91375e-17
1.42536e-17
1.0604e-17
7.87977e-18
5.84873e-18
4.33623e-18
3.21119e-18
2.37532e-18
1.75502e-18
1.29523e-18
9.54802e-19
7.03046e-19
5.1708e-19
3.79871e-19
2.78752e-19
2.04317e-19
1.49587e-19
1.09393e-19
7.99079e-20
5.83035e-20
4.24916e-20
3.09327e-20
2.24925e-20
1.63366e-20
1.1852e-20
8.58871e-21
6.21683e-21
4.49486e-21
3.24616e-21
2.34169e-21
1.68731e-21
1.21442e-21
8.73066e-22
6.2695e-22
4.49703e-22
3.222e-22
2.30586e-22
1.64834e-22
1.17698e-22
8.39459e-23
5.9805e-23
4.25582e-23
3.02509e-23
2.14783e-23
1.52325e-23
1.07907e-23
7.63555e-24
5.39682e-24
3.81017e-24
2.68696e-24
1.89272e-24
1.33175e-24
9.35984e-25
6.57089e-25
4.60776e-25
3.2275e-25
2.25815e-25
1.57816e-25
1.10169e-25
7.68209e-26
5.3507e-26
3.72265e-26
2.58706e-26
1.79586e-26
1.24523e-26
8.62463e-27
5.96682e-27
4.12342e-27
2.84633e-27
1.96257e-27
1.3517e-27
9.29921e-28
6.39037e-28
4.38652e-28
3.00765e-28
2.05991e-28
1.40924e-28
9.6302e-29
6.57355e-29
4.48208e-29
3.05263e-29
2.07675e-29
1.41126e-29
9.57962e-30
6.49538e-30
4.39923e-30
2.97621e-30
2.01126e-30
1.35765e-30
9.15432e-31
6.16567e-31
4.14812e-31
2.78766e-31
1.87131e-31
1.25478e-31
8.40447e-32
5.62302e-32
3.75792e-32
2.50867e-32
1.67285e-32
1.11427e-32
7.41385e-33
4.92737e-33
3.27119e-33
2.16929e-33
1.43697e-33
9.50818e-34
6.28446e-34
4.14915e-34
2.73635e-34
1.80262e-34
1.1862e-34
7.79708e-35
5.11951e-35
3.35774e-35
2.19982e-35
1.43962e-35
9.41093e-36
6.14524e-36
4.00838e-36
2.61169e-36
1.69979e-36
1.10508e-36
7.17658e-37
4.65547e-37
3.01671e-37
1.95266e-37
1.26254e-37
8.15435e-38
5.26087e-38
3.39039e-38
2.18257e-38
1.4035e-38
9.01533e-39
5.78464e-39
3.70764e-39
2.37381e-39
1.51817e-39
9.69886e-40
6.1894e-40
3.94552e-40
2.51239e-40
1.59807e-40
1.01539e-40
6.44466e-41
4.08596e-41
2.58772e-41
1.63708e-41
1.03454e-41
6.53069e-42
4.11811e-42
2.59398e-42
1.63217e-42
1.02587e-42
6.44098e-43
4.03963e-43
2.53082e-43
1.58384e-43
9.90134e-44
6.18312e-44
3.85702e-44
2.40342e-44
1.49602e-44
9.30207e-45
5.77768e-45
3.58476e-45
2.22177e-45
1.37554e-45
8.50703e-46
5.25554e-46
3.24333e-46
1.9994e-46
1.23123e-46
7.57386e-47
4.65402e-47
2.85677e-47
1.75169e-47
1.07294e-47
6.56488e-48
4.0125e-48
2.44986e-48
1.49418e-48
9.10332e-49
5.54032e-49
3.36827e-49
2.04558e-49
1.24097e-49
7.52051e-50
4.55271e-50
2.75316e-50
1.66315e-50
1.00362e-50
6.04987e-51
3.64303e-51
2.19138e-51
1.31678e-51
7.90408e-52
4.73949e-52
2.83897e-52
1.69886e-52
1.0157e-52
6.06898e-53
3.62733e-53
2.17388e-53
1.31527e-53
8.18199e-54
5.47131e-54
4.27929e-54
)
;

boundaryField
{
    sides
    {
        type            zeroGradient;
    }
    empty
    {
        type            empty;
    }
}


// ************************************************************************* //
