/*--------------------------------*- C++ -*----------------------------------*\
  =========                 |
  \\      /  F ield         | OpenFOAM: The Open Source CFD Toolbox
   \\    /   O peration     | Website:  https://openfoam.org
    \\  /    A nd           | Version:  13
     \\/     M anipulation  |
\*---------------------------------------------------------------------------*/
FoamFile
{
    format      ascii;
    class       volScalarField;
    location    "1.95";
    object      T;
}
// * * * * * * * * * * * * * * * * * * * * * * * * * * * * * * * * * * * * * //

dimensions      [0 0 0 1 0 0 0];

internalField   nonuniform List<scalar> 
1000
(
3.4927e-105
7.11825e-105
1.81028e-104
4.77271e-104
1.2631e-103
3.33985e-103
8.81756e-103
2.32412e-102
6.11578e-102
1.60666e-101
4.21384e-101
1.10334e-100
2.88416e-100
7.52672e-100
1.96096e-99
5.1004e-99
1.32439e-98
3.4332e-98
8.88493e-98
2.29552e-97
5.92075e-97
1.52455e-96
3.91901e-96
1.00572e-95
2.57658e-95
6.58984e-95
1.68256e-94
4.28875e-94
1.09132e-93
2.77226e-93
7.03035e-93
1.77983e-92
4.49821e-92
1.1349e-91
2.85846e-91
7.18722e-91
1.80403e-90
4.52045e-90
1.13076e-89
2.82365e-89
7.03886e-89
1.75163e-88
4.35142e-88
1.07911e-87
2.67147e-87
6.60203e-87
1.62873e-86
4.01111e-86
9.86103e-86
2.42003e-85
5.92872e-85
1.4499e-84
3.53962e-84
8.62602e-84
2.09846e-83
5.09597e-83
1.23534e-82
2.98937e-82
7.22112e-82
1.74125e-81
4.19129e-81
1.00708e-80
2.4155e-80
5.78333e-80
1.38221e-79
3.29759e-79
7.85312e-79
1.86686e-78
4.42998e-78
1.04933e-77
2.4811e-77
5.85591e-77
1.37963e-76
3.24449e-76
7.61634e-76
1.78468e-75
4.17436e-75
9.74609e-75
2.27134e-74
5.28379e-74
1.22692e-73
2.8438e-73
6.5794e-73
1.51943e-72
3.50251e-72
8.05904e-72
1.85093e-71
4.24325e-71
9.70974e-71
2.21777e-70
5.05621e-70
1.15062e-69
2.61357e-69
5.9256e-69
1.34099e-68
3.02909e-68
6.82953e-68
1.53695e-67
3.4524e-67
7.74054e-67
1.73225e-66
3.86932e-66
8.62672e-66
1.91974e-65
4.26405e-65
9.45333e-65
2.09185e-64
4.62014e-64
1.0185e-63
2.24101e-63
4.92157e-63
1.0788e-62
2.36022e-62
5.15395e-62
1.12331e-61
2.44361e-61
5.30559e-61
1.14976e-60
2.48684e-60
5.36854e-60
1.15673e-59
2.48755e-59
5.33922e-59
1.14379e-58
2.44555e-58
5.21878e-58
1.11153e-57
2.36283e-57
5.01303e-57
1.06151e-56
2.2434e-56
4.73198e-56
9.96166e-56
2.09302e-55
4.389e-55
9.18563e-55
1.91867e-54
3.99982e-54
8.322e-54
1.72807e-53
3.58127e-53
7.40727e-53
1.52905e-52
3.15011e-52
6.47695e-52
1.32909e-51
2.72193e-51
5.56334e-51
1.13483e-50
2.31026e-50
4.69379e-50
9.51742e-50
1.92596e-49
3.88959e-49
7.83954e-49
1.5769e-48
3.16554e-48
6.34184e-48
1.26797e-47
2.53002e-47
5.03805e-47
1.0012e-46
1.98565e-46
3.93009e-46
7.76285e-46
1.53023e-45
3.01028e-45
5.9098e-45
1.15785e-44
2.26383e-44
4.41721e-44
8.60126e-44
1.67142e-43
3.24128e-43
6.27272e-43
1.21144e-42
2.3348e-42
4.49059e-42
8.61904e-42
1.65088e-41
3.15555e-41
6.01911e-41
1.14574e-40
2.17641e-40
4.12562e-40
7.80428e-40
1.47323e-39
2.77524e-39
5.21703e-39
9.78669e-39
1.83205e-38
3.42238e-38
6.37978e-38
1.18678e-37
2.20302e-37
4.08086e-37
7.54341e-37
1.39144e-36
2.5612e-36
4.70437e-36
8.6226e-36
1.57707e-35
2.87834e-35
5.24213e-35
9.52681e-35
1.72767e-34
3.12641e-34
5.64548e-34
1.01725e-33
1.82903e-33
3.28158e-33
5.87506e-33
1.04956e-32
1.87096e-32
3.32803e-32
5.90707e-32
1.04621e-31
1.84894e-31
3.26053e-31
5.73736e-31
1.00738e-30
1.76493e-30
3.08545e-30
5.38225e-30
9.36832e-30
1.62709e-29
2.81975e-29
4.87596e-29
8.41315e-29
1.44845e-28
2.48826e-28
4.26515e-28
7.29485e-28
1.24492e-27
2.11987e-27
3.60179e-27
6.10616e-27
1.0329e-26
1.74335e-26
2.93594e-26
4.93342e-26
8.27148e-26
1.38374e-25
2.3097e-25
3.84672e-25
6.3923e-25
1.05987e-24
1.75339e-24
2.89422e-24
4.76664e-24
7.83284e-24
1.28426e-23
2.10091e-23
3.42916e-23
5.58456e-23
9.07427e-23
1.47114e-22
2.37968e-22
3.8406e-22
6.18439e-22
9.93601e-22
1.59273e-21
2.54734e-21
4.06486e-21
6.47168e-21
1.02802e-20
1.62927e-20
2.57631e-20
4.06453e-20
6.39781e-20
1.00475e-19
1.57432e-19
2.46112e-19
3.83864e-19
5.97345e-19
9.27417e-19
1.43657e-18
2.22014e-18
3.42321e-18
5.26605e-18
8.08231e-18
1.23761e-17
1.89072e-17
2.88183e-17
4.38231e-17
6.64863e-17
1.00636e-16
1.51974e-16
2.28968e-16
3.4417e-16
5.16131e-16
7.72211e-16
1.15266e-15
1.71654e-15
2.5503e-15
3.78022e-15
5.5902e-15
8.2475e-15
1.21395e-14
1.78264e-14
2.6116e-14
3.81709e-14
5.56595e-14
8.09703e-14
1.17515e-13
1.70152e-13
2.45787e-13
3.54209e-13
5.09256e-13
7.30447e-13
1.04524e-12
1.49218e-12
2.12519e-12
3.01958e-12
4.28026e-12
6.05293e-12
8.53951e-12
1.20191e-11
1.68764e-11
2.36406e-11
3.30374e-11
4.60598e-11
6.40629e-11
8.88913e-11
1.23049e-10
1.69928e-10
2.34109e-10
3.21763e-10
4.41183e-10
6.03486e-10
8.2353e-10
1.12113e-09
1.52263e-09
2.063e-09
2.78846e-09
3.76004e-09
5.05804e-09
6.78787e-09
9.08753e-09
1.21372e-08
1.61716e-08
2.14955e-08
2.85038e-08
3.77066e-08
4.97613e-08
6.55126e-08
8.60434e-08
1.12738e-07
1.4736e-07
1.92153e-07
2.49963e-07
3.24385e-07
4.19957e-07
5.42384e-07
6.98824e-07
8.98227e-07
1.15176e-06
1.47332e-06
1.88014e-06
2.39355e-06
3.03984e-06
3.85141e-06
4.86795e-06
6.13806e-06
7.72103e-06
9.68899e-06
1.21295e-05
1.51483e-05
1.88732e-05
2.34579e-05
2.90865e-05
3.59796e-05
4.43999e-05
5.466e-05
6.71304e-05
8.22493e-05
0.000100533
0.000122588
0.000149127
0.000180978
0.000219111
0.000264647
0.000318889
0.000383337
0.000459717
0.000550011
0.000656484
0.000781716
0.00092864
0.00110058
0.00130128
0.00153496
0.00180636
0.00212075
0.00248403
0.00290274
0.00338411
0.0039361
0.00456748
0.00528782
0.00610758
0.0070381
0.00809166
0.0092815
0.0106218
0.0121278
0.0138157
0.0157025
0.0178064
0.0201463
0.0227422
0.0256146
0.028785
0.0322752
0.0361078
0.0403056
0.0448916
0.049889
0.0553207
0.0612095
0.0675774
0.0744458
0.0818352
0.0897647
0.0982521
0.107313
0.116962
0.127211
0.138069
0.149543
0.161637
0.174351
0.187684
0.201629
0.216177
0.231316
0.247029
0.263296
0.280094
0.297395
0.315168
0.33338
0.351995
0.370971
0.390266
0.409836
0.429633
0.449609
0.469714
0.489896
0.510104
0.530286
0.55039
0.570366
0.590163
0.609733
0.629028
0.648004
0.666618
0.68483
0.702602
0.719902
0.736699
0.752965
0.768676
0.783813
0.798359
0.812301
0.82563
0.83834
0.850428
0.861895
0.872744
0.882983
0.89262
0.901666
0.910135
0.918042
0.925405
0.932242
0.938571
0.944415
0.949792
0.954725
0.959235
0.963342
0.967068
0.970433
0.973457
0.976157
0.978552
0.980659
0.982491
0.984064
0.985388
0.986475
0.987334
0.987972
0.988394
0.988605
0.988605
0.988394
0.987972
0.987334
0.986475
0.985388
0.984064
0.982491
0.980659
0.978552
0.976157
0.973457
0.970433
0.967068
0.963342
0.959235
0.954725
0.949792
0.944415
0.938571
0.932242
0.925405
0.918042
0.910135
0.901666
0.89262
0.882983
0.872744
0.861895
0.850428
0.83834
0.82563
0.812301
0.798359
0.783813
0.768676
0.752965
0.736699
0.719902
0.702602
0.68483
0.666618
0.648004
0.629028
0.609733
0.590163
0.570366
0.55039
0.530286
0.510104
0.489896
0.469714
0.449609
0.429633
0.409836
0.390266
0.370971
0.351995
0.33338
0.315168
0.297395
0.280094
0.263296
0.247029
0.231316
0.216177
0.201629
0.187684
0.174351
0.161637
0.149543
0.138069
0.127211
0.116962
0.107313
0.0982521
0.0897647
0.0818352
0.0744458
0.0675774
0.0612095
0.0553207
0.049889
0.0448916
0.0403056
0.0361078
0.0322752
0.028785
0.0256146
0.0227422
0.0201463
0.0178064
0.0157025
0.0138157
0.0121278
0.0106218
0.0092815
0.00809166
0.0070381
0.00610758
0.00528782
0.00456748
0.0039361
0.00338411
0.00290274
0.00248403
0.00212075
0.00180636
0.00153496
0.00130128
0.00110058
0.00092864
0.000781716
0.000656484
0.000550011
0.000459717
0.000383337
0.000318889
0.000264647
0.000219111
0.000180978
0.000149127
0.000122588
0.000100533
8.22493e-05
6.71304e-05
5.466e-05
4.43999e-05
3.59796e-05
2.90865e-05
2.34579e-05
1.88732e-05
1.51483e-05
1.21295e-05
9.68899e-06
7.72103e-06
6.13806e-06
4.86795e-06
3.85141e-06
3.03984e-06
2.39355e-06
1.88014e-06
1.47332e-06
1.15176e-06
8.98227e-07
6.98824e-07
5.42384e-07
4.19957e-07
3.24385e-07
2.49963e-07
1.92153e-07
1.4736e-07
1.12738e-07
8.60434e-08
6.55126e-08
4.97613e-08
3.77066e-08
2.85038e-08
2.14955e-08
1.61716e-08
1.21372e-08
9.08753e-09
6.78787e-09
5.05804e-09
3.76004e-09
2.78846e-09
2.063e-09
1.52263e-09
1.12113e-09
8.2353e-10
6.03486e-10
4.41183e-10
3.21763e-10
2.34109e-10
1.69928e-10
1.23049e-10
8.88913e-11
6.40629e-11
4.60598e-11
3.30374e-11
2.36406e-11
1.68764e-11
1.20191e-11
8.53951e-12
6.05293e-12
4.28026e-12
3.01958e-12
2.12519e-12
1.49218e-12
1.04524e-12
7.30447e-13
5.09256e-13
3.54209e-13
2.45787e-13
1.70152e-13
1.17515e-13
8.09703e-14
5.56595e-14
3.81709e-14
2.6116e-14
1.78264e-14
1.21395e-14
8.2475e-15
5.5902e-15
3.78022e-15
2.5503e-15
1.71654e-15
1.15266e-15
7.72211e-16
5.16131e-16
3.4417e-16
2.28968e-16
1.51974e-16
1.00636e-16
6.64863e-17
4.38231e-17
2.88183e-17
1.89072e-17
1.23761e-17
8.08231e-18
5.26605e-18
3.42321e-18
2.22014e-18
1.43657e-18
9.27417e-19
5.97345e-19
3.83864e-19
2.46112e-19
1.57432e-19
1.00475e-19
6.39781e-20
4.06453e-20
2.57631e-20
1.62927e-20
1.02802e-20
6.47168e-21
4.06486e-21
2.54734e-21
1.59273e-21
9.93601e-22
6.18439e-22
3.8406e-22
2.37968e-22
1.47114e-22
9.07427e-23
5.58456e-23
3.42916e-23
2.10091e-23
1.28426e-23
7.83284e-24
4.76664e-24
2.89422e-24
1.75339e-24
1.05987e-24
6.3923e-25
3.84672e-25
2.3097e-25
1.38374e-25
8.27148e-26
4.93342e-26
2.93594e-26
1.74335e-26
1.0329e-26
6.10616e-27
3.60179e-27
2.11987e-27
1.24492e-27
7.29485e-28
4.26515e-28
2.48826e-28
1.44845e-28
8.41315e-29
4.87596e-29
2.81975e-29
1.62709e-29
9.36832e-30
5.38225e-30
3.08545e-30
1.76493e-30
1.00738e-30
5.73736e-31
3.26053e-31
1.84894e-31
1.04621e-31
5.90707e-32
3.32803e-32
1.87096e-32
1.04956e-32
5.87506e-33
3.28158e-33
1.82903e-33
1.01725e-33
5.64548e-34
3.12641e-34
1.72767e-34
9.52681e-35
5.24213e-35
2.87834e-35
1.57707e-35
8.6226e-36
4.70437e-36
2.5612e-36
1.39144e-36
7.54341e-37
4.08086e-37
2.20302e-37
1.18678e-37
6.37978e-38
3.42238e-38
1.83205e-38
9.78669e-39
5.21703e-39
2.77524e-39
1.47323e-39
7.80428e-40
4.12562e-40
2.17641e-40
1.14574e-40
6.01911e-41
3.15555e-41
1.65088e-41
8.61904e-42
4.49059e-42
2.3348e-42
1.21144e-42
6.27272e-43
3.24128e-43
1.67142e-43
8.60126e-44
4.41721e-44
2.26383e-44
1.15785e-44
5.9098e-45
3.01028e-45
1.53023e-45
7.76285e-46
3.93009e-46
1.98565e-46
1.0012e-46
5.03805e-47
2.53002e-47
1.26797e-47
6.34184e-48
3.16554e-48
1.5769e-48
7.83954e-49
3.88959e-49
1.92596e-49
9.51742e-50
4.69379e-50
2.31026e-50
1.13483e-50
5.56334e-51
2.72193e-51
1.32909e-51
6.47695e-52
3.15011e-52
1.52905e-52
7.40727e-53
3.58127e-53
1.72807e-53
8.322e-54
3.99982e-54
1.91867e-54
9.18563e-55
4.389e-55
2.09302e-55
9.96166e-56
4.73198e-56
2.2434e-56
1.06151e-56
5.01303e-57
2.36283e-57
1.11153e-57
5.21878e-58
2.44555e-58
1.14379e-58
5.33922e-59
2.48755e-59
1.15673e-59
5.36854e-60
2.48684e-60
1.14976e-60
5.30559e-61
2.44361e-61
1.12331e-61
5.15395e-62
2.36022e-62
1.0788e-62
4.92157e-63
2.24101e-63
1.0185e-63
4.62014e-64
2.09185e-64
9.45333e-65
4.26405e-65
1.91974e-65
8.62672e-66
3.86932e-66
1.73225e-66
7.74054e-67
3.4524e-67
1.53695e-67
6.82953e-68
3.02909e-68
1.34099e-68
5.9256e-69
2.61357e-69
1.15062e-69
5.05621e-70
2.21777e-70
9.70974e-71
4.24325e-71
1.85093e-71
8.05904e-72
3.50251e-72
1.51943e-72
6.5794e-73
2.8438e-73
1.22692e-73
5.28379e-74
2.27134e-74
9.74609e-75
4.17436e-75
1.78468e-75
7.61634e-76
3.24449e-76
1.37963e-76
5.85591e-77
2.4811e-77
1.04933e-77
4.42998e-78
1.86686e-78
7.85312e-79
3.29759e-79
1.38221e-79
5.78333e-80
2.4155e-80
1.00708e-80
4.19129e-81
1.74125e-81
7.22112e-82
2.98937e-82
1.23534e-82
5.09597e-83
2.09846e-83
8.62602e-84
3.53962e-84
1.4499e-84
5.92872e-85
2.42003e-85
9.86103e-86
4.01111e-86
1.62873e-86
6.60203e-87
2.67147e-87
1.07911e-87
4.35142e-88
1.75163e-88
7.03886e-89
2.82365e-89
1.13076e-89
4.52045e-90
1.80403e-90
7.18722e-91
2.85846e-91
1.1349e-91
4.49821e-92
1.77983e-92
7.03035e-93
2.77226e-93
1.09132e-93
4.28875e-94
1.68256e-94
6.58984e-95
2.57658e-95
1.00572e-95
3.91901e-96
1.52455e-96
5.92075e-97
2.29552e-97
8.88493e-98
3.4332e-98
1.32439e-98
5.1004e-99
1.96096e-99
7.52672e-100
2.88416e-100
1.10334e-100
4.21384e-101
1.60666e-101
6.11578e-102
2.32412e-102
8.81756e-103
3.33985e-103
1.2631e-103
4.77271e-104
1.81028e-104
7.11825e-105
3.4927e-105
)
;

boundaryField
{
    sides
    {
        type            zeroGradient;
    }
    empty
    {
        type            empty;
    }
}


// ************************************************************************* //
