/*--------------------------------*- C++ -*----------------------------------*\
  =========                 |
  \\      /  F ield         | OpenFOAM: The Open Source CFD Toolbox
   \\    /   O peration     | Website:  https://openfoam.org
    \\  /    A nd           | Version:  13
     \\/     M anipulation  |
\*---------------------------------------------------------------------------*/
FoamFile
{
    format      ascii;
    class       volScalarField;
    location    "71";
    object      p;
}
// * * * * * * * * * * * * * * * * * * * * * * * * * * * * * * * * * * * * * //

dimensions      [0 2 -2 0 0 0 0];

internalField   nonuniform List<scalar> 
918
(
0.556992
1.18108
0.000655528
0.556445
-0.00949937
1.14805
-0.511928
0.656351
0.537195
-0.107471
-0.0532994
0.539593
1.00891
0.77434
-1.12395
-0.0114968
0.65142
-0.381891
0.536312
-0.0610313
0.685993
0.543731
0.546756
0.537333
0.597429
0.747407
0.890166
0.0249578
0.0127026
0.00571349
-0.0144717
-0.0360093
-0.0308656
1.03169
1.08278
1.10548
0.504935
0.333537
-0.377343
-0.450422
-0.43745
-0.544951
0.65552
0.6552
-0.213976
0.659168
0.660149
0.524212
0.536564
0.537476
0.538492
0.537479
0.538858
0.403584
-0.108017
-0.139323
-0.0881861
-0.081852
0.0516016
-0.0542773
-0.0568411
-0.051717
-0.0507159
0.454031
0.533818
0.530288
0.543844
0.553116
1.12063
1.09255
1.11869
1.0324
1.04884
0.986896
0.9595
0.795117
0.81732
0.759896
0.74536
-1.55488
-2.50462
-0.534942
-0.284753
-0.0153684
-0.00947262
-0.00365543
0.648692
0.650028
0.650855
0.652757
1.07913
-0.379445
-0.480172
0.536455
0.535267
0.54358
0.544282
0.540302
0.539392
-0.0520435
-0.0487223
-0.0519299
-0.0568517
-0.0552563
0.670825
0.67237
0.537861
0.534863
0.560769
0.581154
0.571238
0.277206
0.608254
0.624139
0.581098
0.740117
0.73442
0.743197
0.863867
0.827723
0.926993
0.950239
0.0181156
-0.00152331
-0.0160547
-0.019589
-0.0183427
0.500762
0.493297
0.520872
0.508374
0.510884
0.250389
0.117154
0.418429
0.443241
-0.296625
-0.363624
-0.429907
-0.46058
-0.568964
0.612468
0.655035
0.653742
-0.223758
-0.152004
-0.285625
-0.0789196
-0.14202
0.514467
0.521488
0.516482
0.532047
0.526511
0.528475
0.540837
0.537906
0.539466
0.465675
0.589148
0.329855
0.294364
-0.242944
-0.15474
-0.242417
-0.0716272
-0.0694553
0.0657622
0.0914687
0.0383033
0.0264212
-0.0653533
-0.059444
-0.0620604
-0.0490465
-0.0483251
0.446762
0.43552
0.466733
0.474303
0.520144
0.52165
0.52617
0.524036
0.910299
0.932769
0.940228
0.913879
-3.49259
-6.27146
0.0392237
0.175319
-0.00670537
-0.0110224
0.00439882
-0.0105708
-0.00338832
-0.00450531
-0.00910468
-0.0102932
-0.00495342
-0.00394019
0.643334
0.644259
1.00144
1.00849
0.97692
0.929839
0.524682
0.526751
0.532244
0.528129
-0.0478072
-0.0477806
-0.0474966
0.663082
0.668314
0.665878
0.238604
0.148632
0.328397
0.357616
0.636631
0.625395
0.634902
0.642325
0.678356
0.957683
0.975843
0.974078
0.98231
1.02628
1.04262
1.00807
0.480155
0.490167
0.485097
0.523878
0.521683
0.522564
0.51895
0.519892
0.518126
-0.0331439
-0.412741
0.490593
0.507352
0.492868
0.495135
0.692561
0.771134
0.65227
0.653539
0.653224
-0.00949848
-0.06801
0.24948
0.215329
0.386162
0.422668
0.401593
0.88167
0.841623
0.891867
0.865186
0.826328
0.852814
-0.364369
-1.86209
-0.982226
0.524167
0.339135
0.426406
0.00824548
-0.00849229
-0.00392371
1.00119
1.07338
0.644919
0.819768
0.822368
0.712366
0.74155
0.801927
0.727441
0.762498
0.796332
0.774196
0.568396
0.503703
0.519752
0.840146
0.895811
0.118264
0.0562794
0.0125047
0.110473
0.168083
0.142003
1.03335
0.949476
1.0196
0.534625
0.535348
-0.00483706
-0.0174152
0.539599
0.539655
-0.0169542
-0.00426979
0.40874
-0.831828
0.0969342
0.528189
0.518068
0.535212
-0.0931709
0.355101
-0.0532176
0.0472844
-0.00923014
0.529753
0.465172
0.424198
-0.00102228
-0.0204915
-0.0516946
-0.213402
0.532295
0.5306
0.53468
0.535619
0.536301
-0.0192431
-0.0147649
-0.0104634
-0.0484929
-0.0411665
-0.053855
0.499097
0.518554
-0.171196
0.534826
0.536962
0.53678
0.530048
0.535676
0.53393
-0.0118929
-0.0175826
-0.0188852
0.218645
0.351178
0.647124
0.73304
0.619888
0.396234
0.161665
0.551184
0.613769
0.520254
0.672922
0.650547
0.655864
0.162448
0.0120642
0.171331
0.113124
0.526052
0.524778
0.51632
0.513278
0.53008
0.528196
0.532752
0.529778
0.532728
0.534107
-0.0495638
-0.0758773
-0.0852053
-0.152076
0.309826
0.570844
0.254394
0.28378
0.141504
-0.0475572
-0.049371
-0.0509718
-0.0594116
0.000524619
-0.025013
0.0419474
0.0421371
0.0140104
-0.0116041
-0.00943535
-0.0204332
-0.0147775
0.523002
0.523005
0.527476
0.536191
0.47485
0.478636
0.443422
0.4642
0.449435
0.388047
0.423441
0.398624
-0.00891638
0.000689298
-0.00590654
-0.0184222
-0.0144491
-0.0344909
-0.0311144
-0.026545
-0.0223717
-0.0293174
-0.0461931
-0.048717
-0.171475
-0.28739
0.98786
0.908643
0.136803
0.52144
0.527899
0.524658
0.529592
0.53272
0.533516
0.531221
0.527768
0.518779
0.520216
0.517048
0.518154
-0.102422
-0.244061
-0.072419
-0.147273
0.145429
0.627869
0.363073
0.298269
0.293656
0.522657
0.91546
0.698297
0.666852
0.664891
-0.344117
0.0444177
-0.280537
0.333851
0.161461
0.64874
0.696202
0.715759
0.665305
0.619127
-0.100565
0.555742
-0.0750317
-0.0225697
0.179209
0.0546003
0.658351
0.638604
0.646077
0.649467
0.662266
0.64149
0.623951
0.62403
0.644341
0.64862
0.482102
0.249297
0.199816
0.161357
0.642458
0.515597
0.565095
0.489144
0.521375
0.523888
0.522542
0.503936
0.511534
0.507047
0.513623
0.517275
0.525802
0.526284
0.521537
0.523665
-0.0564644
-0.0628491
-0.0252149
-0.135701
-0.128434
-0.190615
-0.0592819
0.0738351
0.0355769
0.236728
0.340615
0.0514476
-0.0571782
-0.0297532
0.0120809
0.179218
0.207778
0.0737439
0.161601
0.152838
0.133813
0.236786
0.240113
-0.0302369
-0.031677
-0.0365313
-0.0387678
0.0183737
0.0898826
0.0990305
-0.00808948
-0.0136081
-0.045691
-0.0456147
-0.0227383
-0.0280221
-0.0229692
0.00442034
-0.053425
-0.021041
-0.00715172
-0.00556348
-0.0063549
-0.0117553
0.51796
0.51953
0.519881
0.527592
0.539987
0.554558
0.520974
0.4971
0.487873
0.490887
0.463795
0.474076
0.469924
0.483477
0.504665
0.513342
0.511661
0.514496
0.496743
0.498522
0.485028
0.488668
0.463807
0.444373
0.432406
-0.0434612
-0.00558453
-0.0131918
-0.039204
-0.0103773
-0.0220003
-0.0113371
0.00717514
-0.00920581
-0.0101624
-0.0199174
-0.0269412
-0.0266947
-0.0734341
0.0133115
-0.185004
-0.220346
-0.293531
0.890088
1.01431
0.809331
0.582258
0.602627
0.846058
0.930434
0.542496
0.734852
0.757996
0.587231
0.854384
0.52629
0.525885
0.523486
0.522965
0.524185
-0.00734301
0.0991348
0.0968592
0.160597
0.277148
0.38871
0.319861
0.194503
0.324459
0.326902
0.620938
0.633114
0.588221
0.612251
0.612769
0.424715
0.50035
0.552013
0.513242
0.565098
0.586753
0.540758
0.573725
0.523124
0.478678
0.474866
0.424354
0.444027
0.419572
0.402693
0.515976
0.493137
0.503941
0.494319
0.515315
0.543147
0.539978
0.561808
0.57702
0.497698
0.452559
0.46196
0.492138
0.453615
0.469219
0.485213
0.233046
0.135214
0.218055
-0.0667304
0.0035832
-0.00883347
-0.0575291
-0.0060646
0.278093
-0.412559
-0.389508
-1.01621
0.504272
0.953479
0.588804
0.565033
0.663516
0.649573
0.655863
0.67288
0.670416
0.631074
0.64006
0.644833
0.594782
0.615477
0.634947
0.630839
0.524261
0.381244
0.380794
0.328316
0.19843
0.238443
0.434245
0.35859
0.283721
0.283813
0.456
0.342462
0.412613
0.44583
0.377065
0.331774
0.534514
0.600661
0.594119
0.567528
0.477953
0.489968
0.514511
0.54792
0.571623
0.604443
0.513043
0.518991
0.520222
0.51769
0.514959
0.518064
0.518357
0.520937
0.521511
0.524537
0.523609
-0.0531114
-0.0386747
-0.0511602
-0.0633501
-0.0185898
-0.0208846
0.0228876
0.0112171
-0.0159159
-0.0117725
-0.0333971
-0.0374541
-0.0340611
-0.0261806
0.10253
0.115296
0.100675
0.0605616
0.250055
0.380158
0.454463
0.329491
0.223431
0.248175
0.266551
-0.0125502
0.0131213
0.000356724
0.040051
0.0319031
-0.0397134
-0.0435082
-0.0395891
-0.0315594
-0.0234339
-0.039019
-0.0444858
-0.0354953
-0.040062
-0.04272
-0.0464423
0.499376
0.492844
0.494406
0.488343
0.487075
0.501357
0.505689
0.507635
0.513115
0.515524
0.50549
0.510893
0.514895
-0.0126837
-0.0358699
-0.0392543
-0.030491
-0.0324169
-0.0297559
-0.0312972
0.123285
0.0541807
0.0579385
0.0107737
-0.121563
-0.063573
0.491853
0.490699
0.479999
0.720997
0.570224
0.491153
0.588292
0.693919
0.276032
0.472652
0.307837
0.888118
0.784827
0.931112
0.541985
0.245901
0.410412
0.452615
0.266424
0.342393
0.323994
0.213117
0.243793
0.282316
0.381095
0.266037
0.242942
-0.00064127
0.19023
0.301999
0.283864
0.408294
0.468887
0.267055
0.186777
0.141723
0.605385
0.625051
0.638141
0.610683
0.632491
0.581086
0.573344
0.588482
0.596504
0.590716
-0.744419
-0.450692
-1.39775
-0.720919
-0.265242
0.534859
0.507351
0.769417
0.645214
0.679341
0.663933
0.623279
0.593238
0.618092
0.640251
0.339315
0.449812
0.425032
0.43085
0.33367
0.263828
0.562088
0.559365
0.592584
0.616098
0.58772
0.618024
0.510856
0.510582
0.510042
0.506278
0.504539
0.506897
0.0585848
0.0262266
0.0673108
0.0497571
0.0272898
0.0151105
-0.0115939
-0.0215944
-0.0285984
-0.0281013
-0.0137242
-0.00963807
0.171975
0.109211
0.0296949
0.0585061
-0.0022797
-0.0706651
-0.0898917
0.0156729
0.111794
0.101984
0.405119
0.654504
0.474564
0.641988
0.484642
0.540368
0.468418
0.459706
0.48461
0.379931
0.460325
0.251361
-0.25698
-0.166201
0.794872
0.805413
0.581154
0.406606
0.174236
0.351354
0.540556
0.470145
0.505534
0.574659
0.561636
0.0305026
0.0877005
0.375966
0.602726
0.241391
0.232379
0.225761
0.410568
0.328501
)
;

boundaryField
{
    wall-4
    {
        type            zeroGradient;
    }
    velocity-inlet-5
    {
        type            zeroGradient;
    }
    velocity-inlet-6
    {
        type            zeroGradient;
    }
    pressure-outlet-7
    {
        type            fixedValue;
        value           uniform 0;
    }
    wall-8
    {
        type            zeroGradient;
    }
    frontAndBackPlanes
    {
        type            empty;
    }
}


// ************************************************************************* //
