/*--------------------------------*- C++ -*----------------------------------*\
  =========                 |
  \\      /  F ield         | OpenFOAM: The Open Source CFD Toolbox
   \\    /   O peration     | Website:  https://openfoam.org
    \\  /    A nd           | Version:  13
     \\/     M anipulation  |
\*---------------------------------------------------------------------------*/
FoamFile
{
    format      ascii;
    class       surfaceScalarField;
    location    "71";
    object      phi;
}
// * * * * * * * * * * * * * * * * * * * * * * * * * * * * * * * * * * * * * //

dimensions      [0 3 -1 0 0 0 0];

internalField   nonuniform List<scalar> 
1300
(
3.75095
5.62643
-3.32234
3.75095
-7.73279
5.62643
-4.39177
4.39177
-0.356653
0.356653
1.87639
1.87457
-2.68793
2.68793
-2.08025
2.08025
-2.52353
2.52353
-5.24639
5.24639
-5.06839
5.06839
4.65413
-4.65413
-6.31408
6.31408
-0.939538
0.939538
-3.68421
3.68421
3.16961
-3.16961
-2.05944
2.05944
0.0412968
-0.0412968
-0.553473
4.30443
3.19748
3.19748
-2.0143
2.0143
-4.86859
4.86859
6.21797
-6.21797
5.30242
-5.30242
-1.98007
-2.45392
1.78659
-11.5029
-5.9462
-5.9462
-8.44039
8.44039
-2.81396
2.81247
2.94629
-2.94629
-1.77269
1.77269
-4.35353
-0.0382379
-4.35353
4.36202
0.0297466
4.36202
-0.449677
0.0930245
-0.449677
3.99677
-3.99677
0.267124
0.0895282
0.267124
3.06536
-3.06536
-1.87712
3.7535
1.87384
-1.8719
6.17632
-1.87906
3.75362
-6.01441
6.01441
-2.93364
0.245703
-2.93364
2.47424
0.213695
2.47424
-6.85086
6.85086
-2.112
0.031754
-2.112
2.05337
0.0268747
2.05337
2.88141
-2.88141
-2.63049
0.106962
-2.63049
2.39223
0.131303
2.39223
0.353525
5.2729
-5.97996
8.79243
-5.2729
0.0265101
5.20834
0.0380517
5.20834
-5.10582
0.0374249
-5.10582
5.01336
0.0550388
5.01336
4.73932
-0.0851876
4.73932
-4.77223
0.118099
-4.77223
-3.38601
-4.05242
-6.46558
0.1515
-6.46558
-1.03354
0.0940037
-1.03354
0.822813
0.116725
0.822812
-3.68564
3.68564
-4.10447
0.420264
-4.10447
3.12397
0.0456389
3.12397
1.86849
1.88246
5.61944
-5.61944
2.44984
-2.02887
-0.0305652
-2.02887
-2.12617
-3.17624
2.12617
-0.0667345
-0.183536
0.224833
-0.183537
3.15944
0.0380421
3.15944
2.23572
0.156502
-2.23572
0.221429
3.2766
-3.2766
1.33934
0.674958
1.33934
-5.56511
5.56511
4.95594
0.0574152
-4.95594
0.0873471
6.15606
0.0619158
6.15606
-6.19951
-0.0184594
-6.19951
2.5309
-4.98482
-2.62213
6.13089
0.183197
-6.13089
0.184686
2.91823
0.0280644
2.91823
-2.91971
2.91971
-2.98475
0.0384577
-2.98475
-2.17134
0.398644
-2.17134
1.47429
0.298406
1.47429
-4.25486
-0.0986677
-4.25486
-4.25195
0.147478
4.25195
0.110069
1.12972
-1.12972
-0.583341
0.133664
-0.583341
-4.12021
-0.134647
4.12021
-0.123443
-3.88661
-0.110163
-3.88661
-3.02455
0.0398036
3.02455
0.0408068
3.11289
0.04655
-3.11289
0.0475269
-1.87082
3.75328
-1.88014
3.75398
-5.63456
-0.37985
-5.63456
6.32548
-0.311065
6.32548
3.32596
0.358246
-3.32596
0.392329
2.3042
0.170035
2.3042
-6.81238
-0.0384778
-6.81238
6.83637
0.0144947
6.83637
2.18485
0.119352
-2.18485
0.072849
2.03528
0.0180888
2.03528
2.90139
-0.0199772
2.90139
-2.87554
-0.00587703
-2.87554
2.79328
-2.79328
2.71775
0.0755233
-2.71775
0.087262
-11.133
11.1145
-0.0351238
-11.0979
5.17322
5.17322
4.16587
0.573448
4.16587
-4.99022
0.217986
-4.99022
2.68129
-5.30342
3.06672
-6.45272
4.66477
-16.1677
4.30363
-8.35605
6.70435
-6.70435
6.59407
0.110286
-6.59407
0.128482
-1.15231
0.118771
-1.15231
-3.08364
-0.601999
-3.08364
4.32767
-0.642031
4.32767
-3.02812
3.02812
-3.07742
0.0493029
3.07742
0.0465469
2.02125
0.0140386
-2.02125
-0.00762806
0.214397
0.0527271
-0.214397
0.0308607
3.48973
-0.213127
3.48973
-3.07836
-0.198247
-3.07836
-1.24968
0.0973651
1.24968
0.0896601
-5.81427
0.249154
-5.81427
-11.1908
0.0929742
-11.1528
-6.10654
-6.10654
2.33385
11.1263
-2.89353
0.0179889
2.89353
0.0247026
2.97519
0.0529288
-2.97519
0.0554767
-2.85973
0.0664548
2.85973
0.0599799
-2.54599
0.374649
-2.54599
-1.07279
1.07279
-1.23829
0.165504
1.23829
0.235997
1.40172
-0.27201
1.40172
0.708299
0.114513
-0.708299
0.124959
-3.78711
-0.0994997
-3.78711
6.56065
-0.235173
6.56065
-2.96343
-0.114924
2.96343
-0.0620412
-0.0333545
11.1479
-5.13986
0.0340451
5.13986
-11.2098
11.2438
-3.21634
0.67035
3.21634
0.949533
5.28429
0.280823
-5.28429
0.294072
6.78738
0.0489924
-6.78738
0.0830244
-2.59112
-0.492528
-2.59112
-5.05291
-0.581656
5.05291
-0.725234
-11.4747
-0.203402
11.6781
-11.4197
6.01767
0.138389
-6.01767
11.3822
-1.03058
-0.0991355
1.03058
0.0422078
1.72928
-0.327556
1.72928
3.68576
-0.196026
-3.68576
-0.101353
-6.71516
-0.0972226
6.71516
-0.15451
-2.1463
-0.444814
2.1463
-0.41702
-4.26712
4.30516
1.9092
-2.3856
-2.59922
-5.56184
1.85185
1.90143
4.30169
-10.1471
-6.02063
-9.96239
7.26177
-6.9677
-9.24228
9.15709
7.88835
-7.99851
-5.78483
5.83138
6.48289
-6.44209
1.87881
1.87469
8.02201
-7.77631
-15.5947
15.2149
7.54077
-7.50901
15.7431
-15.7816
-17.8243
17.8733
-5.70521
5.81217
-6.7402
6.73433
-6.9755
6.91346
-2.83893
-3.61379
13.1021
-12.9506
8.57424
-8.60481
-8.616
9.03627
3.3826
0.922566
3.42915
-1.88215
3.76096
-1.87147
3.78068
2.71635
-5.55528
2.58707
-5.18629
4.3531
4.22114
-4.28637
-1.27548
-5.92477
5.95283
-5.81311
5.87309
9.13284
-9.17107
-1.88517
3.75986
-1.86881
3.77024
-3.42502
-2.35982
3.37938
0.922309
8.06422
5.03792
-8.24741
-1.71498
-8.03961
7.84358
-8.23045
8.0322
-0.433754
5.81889
-5.38514
4.43484
-1.56285
7.38175
5.69892
5.9169
5.86632
-5.5855
1.10138
-6.48651
-6.39917
-2.26747
2.40113
2.17966
-2.09013
6.13892
1.74943
6.01548
-5.76045
-2.23806
-5.85995
3.82064
2.01074
3.86994
4.07843
2.40446
4.11824
3.03045
-3.03596
0.00551068
-3.05663
6.08708
0.723901
-5.41645
-4.49414
4.97648
3.04553
5.19018
-5.55449
-2.22182
-5.16216
-9.53305
-6.06168
-10.1147
10.0756
5.13927
9.76455
-11.9447
11.7902
4.80271
2.73806
4.82959
-4.944
-2.56501
-4.87115
11.6356
-2.63937
-8.99619
-10.3046
-7.51969
10.2901
5.45297
10.9475
6.9258
11.0305
4.42013
7.21543
-9.8731
2.35341
-3.86786
-1.83735
-3.7806
3.67089
2.14128
3.80219
-4.21749
-2.52272
-4.1995
-4.29573
-2.67977
4.31571
2.41862
-4.4171
-3.81334
4.53203
2.38143
4.03521
-10.0558
4.32084
-7.93463
-9.18547
-3.76517
-9.05699
3.51661
2.61088
-6.12749
-2.03867
8.50044
-4.2793
7.22496
-5.18063
-3.42418
-5.18826
-6.8805
-1.7355
-6.73302
-8.87515
8.38262
-9.17064
8.5286
12.5116
-5.64242
-6.86916
-3.96845
-2.47364
3.92092
-0.491773
-3.71048
3.71599
0.0504748
3.83115
4.75372
4.26195
-3.88405
-1.92906
-3.82858
3.82397
2.04912
3.89042
6.8364
2.29643
6.86615
-6.60816
-2.56292
-6.70683
9.03715
-8.6385
2.83421
-2.73684
5.39715
2.63505
-5.18402
-2.85559
6.21163
-3.21842
-2.99321
-12.1984
10.5286
1.66982
-4.81669
-0.381854
-0.423151
-5.48833
-3.75395
5.37023
0.546677
11.0753
7.32134
-5.51263
5.76178
6.16547
6.22288
-0.176283
5.80538
-5.13503
5.25508
-2.5971
-2.65798
5.46998
-5.60462
-1.23685
-5.51868
4.28183
0.410853
1.48589
-1.26106
-1.78894
-0.478531
-1.66398
1.28261
0.897054
1.33533
0.950038
1.45109
-2.96004
0.546013
2.41403
-2.01
-1.54412
-3.81966
-1.14644
4.9661
5.73738
2.10621
-5.63602
-0.223931
2.53005
-2.41332
-0.775783
-3.04388
2.25375
-3.02953
-3.6721
-2.07668
5.74878
-3.36963
-0.458943
3.31671
0.553235
-3.82719
-2.09758
3.78873
0.329506
-3.12838
6.19113
-3.06275
-5.05743
2.52758
3.5595
4.53832
-4.78951
2.44765
2.34185
-1.23001
4.24682
0.943357
4.41686
-6.93356
4.71174
5.80336
3.23291
-6.1616
0.999438
-5.93412
8.55178
-7.3738
-1.17798
4.17263
4.37915
7.0612
5.45038
-5.67245
12.7336
-1.20365
-6.17014
7.13778
-3.90487
4.84769
-8.75256
-10.2981
4.12793
-9.12926
10.9006
-1.77132
-3.61939
-8.32532
12.7487
-1.20406
-11.5446
8.56049
-4.27952
-4.38327
8.66279
-6.91889
6.94828
-1.99357
-4.95471
-10.092
-5.6896
10.1892
1.60099
-9.92065
12.2741
-2.70522
4.11594
0.713651
4.13402
3.30076
-5.48498
2.18423
3.61814
-5.61171
2.08033
-7.56532
-6.72272
12.0567
-5.33394
-10.4879
-9.50469
-0.983192
2.53516
9.73891
-9.46096
7.42085
2.04011
3.29986
0.59056
-3.37539
-0.405211
0.238061
4.51909
-4.75715
4.04026
4.19676
3.27092
1.24817
3.84546
2.10737
-3.87016
-0.329338
-4.16393
1.48416
-1.74531
-3.69423
5.17839
-4.0677
0.373466
-2.74576
-3.49741
6.24317
-4.58311
3.03551
3.15562
5.08464
-4.913
1.41559
-2.39268
-2.52032
2.65211
-4.39742
1.99277
3.18562
4.3742
0.560858
5.87106
6.1856
-8.48193
0.547297
11.2235
-9.50854
2.46131
8.56923
-9.88217
0.377473
-8.67952
0.997002
-5.2763
-5.13048
5.1912
-6.9267
-3.56136
6.21187
0.654283
-6.32193
-0.411087
-6.03251
-2.84264
-6.47733
-3.04167
-6.12896
-8.71412
-1.65166
-7.06246
6.73096
-6.67775
-3.43695
7.40299
1.12562
-7.40808
7.30895
-7.4864
7.15884
0.0954021
3.62059
4.35735
1.88371
-2.39058
4.27429
-5.11964
7.41607
-8.71598
3.59635
4.19878
-6.7617
-4.5172
5.02098
4.01616
5.31939
8.88066
-10.3465
1.46583
-10.6498
11.9829
-1.33316
-16.4085
5.7587
-7.5278
2.43694
0.397269
2.55571
0.54338
2.49846
-3.04184
-2.19346
-2.1038
-2.43836
-3.46595
5.90431
1.09229
-3.52909
2.4368
-3.5667
4.65899
-0.214643
-3.31445
5.27301
-2.77454
5.67028
-3.78134
1.88893
3.43709
5.75281
-2.31572
4.39515
-1.76009
1.92639
-4.24212
-1.53956
-2.9604
5.10168
-3.28278
3.65624
-0.344525
4.00077
-4.04762
0.829201
-0.776702
3.42006
3.64148
4.31625
-3.06808
2.91907
-4.67917
-1.32304
-4.11831
-0.932688
-0.257949
-3.70185
3.9598
5.97863
-6.23658
-5.23248
9.52448
-4.292
7.69096
-5.37985
-2.31111
-4.25122
-4.38729
3.87657
1.92881
9.61977
0.209284
-5.58914
-4.92574
-3.97621
3.10426
2.15082
-1.75045
3.42027
2.1736
-0.68771
0.426529
0.908803
1.7835
-1.35697
0.321396
1.46211
-0.939664
1.72039
0.809656
-1.8349
0.170924
-1.31012
3.56387
1.1039
-2.00096
0.643988
0.97665
-3.57375
5.05346
-2.68345
-2.37001
6.03011
1.13836
-3.82181
4.38032
-3.96946
2.38833
-3.53477
-1.43348
-5.40294
-3.65351
-2.52183
4.95864
-3.38248
5.48869
1.28653
-5.26475
6.55129
-3.72736
1.65068
-3.05695
3.86661
-0.931631
-2.12532
2.90351
2.84527
-3.07366
0.0297808
-0.170147
2.41079
-2.58094
-0.618745
-2.62875
-4.5735
4.903
-2.10525
4.5529
2.16904
-1.91704
6.46994
1.80881
-3.72585
-3.24862
-3.70756
-1.384
3.15433
-0.583564
-4.28759
-5.53827
4.16824
0.24862
-7.06133
7.87767
-0.816345
-4.01579
-0.695947
4.86858
-6.08375
0.472046
-4.00342
3.87425
4.81761
5.06623
-11.3263
-0.218256
-6.18707
1.12351
-7.31058
5.50266
-3.53872
7.66665
-10.3205
6.88359
-9.19493
6.48867
-0.821909
6.24189
-4.05767
2.7543
-8.4439
-6.84291
5.53255
-2.7945
6.24621
-3.16307
9.40927
-5.86829
5.31957
4.0897
-1.02785
-4.16041
-5.30723
4.27938
0.012344
4.14637
4.98037
-2.873
4.65103
2.26911
-4.66179
-2.12832
-6.49523
1.83345
-3.33962
-1.92102
3.75446
3.16362
3.75418
1.23414
-3.34897
7.19026
-8.17346
-1.85633
-3.27416
5.28867
-1.00929
3.41181
-6.68597
-1.86449
4.79324
-0.782392
-4.01085
0.849177
-4.41054
1.67482
-6.08536
5.25188
-5.66297
2.22181
-9.74961
-5.18627
-5.14406
-2.25854
-5.22786
-7.56778
5.30924
-1.80908
5.49987
-8.50227
7.71988
-3.48065
8.78989
-5.42722
-1.05011
5.84424
1.31461
10.1045
0.219792
-4.737
-1.9175
3.84841
-1.93091
1.18675
-3.48206
0.366351
2.49102
3.53909
-6.77285
0.0111485
-4.72585
-3.91632
7.93248
5.60816
11.5868
1.2403
9.11313
-1.18065
10.3534
4.13874
4.37474
-2.9887
4.45453
0.971108
4.56745
-0.925905
2.81484
1.6298
1.7238
0.689516
2.30322
1.33826
3.13242
0.090579
-2.01322
4.62044
-8.59665
-0.9687
-8.0232
1.13389
5.70758
-4.57369
2.94686
-0.796033
1.01595
-0.1049
-1.24171
1.34661
-2.76288
-1.92942
-0.467318
-1.69417
2.33816
1.8697
-1.87084
-0.892038
0.358287
-4.0118
3.17648
-3.1467
-0.301431
6.24986
-2.82102
0.240088
-1.17035
-2.38866
-2.86719
2.69626
6.17603
0.293905
3.11328
5.19691
3.09933
0.226334
3.88254
-5.65386
-3.68278
-5.87211
-0.369453
4.49913
1.75898
7.97993
5.84868
4.83939
-1.84658
-10.02
6.51572
-2.06119
5.18256
-1.17171
-4.91365
5.04639
2.36968
-5.70067
0.0377033
-4.87595
-6.93714
-0.512881
8.23276
-9.59161
8.5415
5.69886
1.3636
-4.40425
-0.739808
4.23875
0.135991
10.4894
-1.12874
-6.7185
7.84725
-4.57884
3.61014
0.746366
2.67391
2.09298
1.29695
-5.42156
-9.99525
-2.05718
-1.51657
-4.42719
0.538911
-2.40861
6.22129
-2.61115
3.91018
5.2361
6.25205
-2.13058
-4.106
6.42258
-2.5124
3.73965
)
;

boundaryField
{
    wall-4
    {
        type            calculated;
        value           uniform 0;
    }
    velocity-inlet-5
    {
        type            calculated;
        value           uniform -3.75095;
    }
    velocity-inlet-6
    {
        type            calculated;
        value           uniform -5.62643;
    }
    pressure-outlet-7
    {
        type            calculated;
        value           nonuniform List<scalar> 8(3.32234 7.73279 4.434 9.71635 7.43842 5.15303 5.74801 8.9684);
    }
    wall-8
    {
        type            calculated;
        value           uniform 0;
    }
    frontAndBackPlanes
    {
        type            empty;
    }
}


// ************************************************************************* //
