/*--------------------------------*- C++ -*----------------------------------*\
  =========                 |
  \\      /  F ield         | OpenFOAM: The Open Source CFD Toolbox
   \\    /   O peration     | Website:  https://openfoam.org
    \\  /    A nd           | Version:  13
     \\/     M anipulation  |
\*---------------------------------------------------------------------------*/
FoamFile
{
    format      ascii;
    class       volVectorField;
    location    "71";
    object      U;
}
// * * * * * * * * * * * * * * * * * * * * * * * * * * * * * * * * * * * * * //

dimensions      [0 1 -1 0 0 0 0];

internalField   nonuniform List<vector> 
918
(
(0.98516 -0.000507574 0)
(0.00501371 2.96625 0)
(0.00560474 0.885822 0)
(0.979704 0.00214549 0)
(-0.0147002 2.0612 3.29549e-20)
(-0.00704695 2.94879 -2.45726e-18)
(0.820237 1.16434 4.50279e-19)
(0.103852 0.0665784 -1.46334e-20)
(0.999909 -0.000276241 0)
(0.0668767 0.734116 0)
(0.00955972 0.494755 0)
(0.732673 0.000263125 0)
(0.0111176 2.93033 0)
(0.00298582 2.79488 0)
(-0.0177647 3.1486 7.80602e-19)
(-0.0185354 1.91961 9.8596e-21)
(0.284053 0.0532662 1.0177e-18)
(0.188748 1.14322 3.16848e-19)
(0.962721 0.00501595 0)
(0.00764585 0.469061 0)
(-0.0155607 0.0713657 -6.87854e-19)
(1.00197 -0.00497495 0)
(1.00023 -0.00978423 0)
(0.975739 -0.00643884 0)
(0.598806 0.0281911 0)
(0.014142 2.6418 0)
(-0.0147822 2.90995 9.03405e-19)
(0.0104391 0.933284 0)
(-0.0174863 1.18175 0)
(0.0110848 0.916028 0)
(-0.0174712 2.59078 0)
(-0.00353036 2.11219 -2.63191e-20)
(-0.0103325 1.89811 0)
(-0.0206039 2.9876 -8.82893e-23)
(-0.016685 3.0053 1.9097e-18)
(0.00210362 3.00018 0)
(0.871424 -0.00965849 0)
(0.402498 0.932731 1.8046e-19)
(0.80588 1.17838 -5.14597e-19)
(0.957195 1.02437 5.5926e-19)
(0.67413 1.27018 -1.04364e-19)
(0.6749 1.24413 6.00415e-19)
(0.139346 0.121073 1.42755e-20)
(0.133619 0.0541738 0)
(1.16205 0.563925 0)
(0.112998 0.0954978 6.47612e-20)
(0.0752291 0.0514643 -6.7202e-20)
(0.919916 -0.00745866 0)
(1.00027 0.000161384 0)
(0.999909 0.000338595 0)
(1.00363 -0.00775882 0)
(1.00096 -0.00091908 0)
(1.00017 3.73853e-05 0)
(0.0730997 1.82597 -7.71467e-19)
(0.0327911 0.947199 0)
(0.0988411 0.814235 0)
(0.0145055 0.895687 0)
(0.0409779 0.65088 0)
(0.00712806 2.01524 0)
(-0.00392494 0.786991 0)
(0.0110176 0.50743 0)
(-0.00651232 0.781699 0)
(0.0101141 0.483567 0)
(0.841933 -0.0156722 0)
(0.841662 0.0282055 0)
(0.760249 -0.0022477 0)
(0.800898 0.0300316 0)
(0.701568 0.0129882 0)
(0.0146878 3.0004 9.10729e-19)
(0.0115024 3.00805 0)
(0.00611294 3.00276 0)
(0.013551 2.99736 1.03318e-23)
(0.00796375 2.95847 -1.35357e-18)
(0.0144877 2.98199 0)
(0.0108491 2.90361 0)
(0.0247424 2.93057 2.06515e-24)
(0.00459734 2.82483 0)
(0.0306995 2.91631 0)
(-0.00531343 2.74613 0)
(0.30486 3.54111 0)
(-0.131535 3.62175 0)
(0.137625 3.23847 -7.26421e-19)
(-0.0135194 2.97675 0)
(-0.0227016 1.98372 0)
(-0.00781081 2.16855 -9.72446e-21)
(-0.0125025 1.92732 3.92866e-21)
(0.341893 0.141207 -3.53487e-19)
(0.31539 0.0309021 -3.436e-19)
(0.296224 0.146212 -1.0579e-18)
(0.246137 0.0607199 -6.87226e-19)
(0.229384 0.983832 0)
(0.272239 1.29353 -3.68377e-19)
(0.365899 1.22773 6.14425e-19)
(0.987432 0.00857449 0)
(0.94185 0.0058248 0)
(1.0003 0.000581166 0)
(1.00286 0.00930969 0)
(1.00301 0.00847231 -2.74411e-18)
(0.991907 0.00969534 2.07225e-18)
(-0.0102234 0.77988 0)
(0.00945223 0.476841 0)
(-0.0472881 1.00715 0)
(-0.0267991 0.824256 0)
(0.00490191 0.470862 0)
(-0.046068 0.100994 2.13189e-19)
(0.0566637 0.0616807 0)
(0.993554 -0.00836983 0)
(0.954469 -0.00653286 0)
(0.744367 0.0282894 0)
(0.680159 0.0249808 0)
(0.66084 0.022635 0)
(0.971778 -0.00723982 0)
(0.59134 0.0731856 0)
(0.453295 -0.00763807 1.54089e-18)
(-0.0370456 2.86262 6.64769e-19)
(0.0413479 2.91014 0)
(0.0536544 2.88591 0)
(-0.00418903 2.70058 0)
(-0.0134298 2.98503 8.55257e-19)
(-0.0178778 2.8949 0)
(-0.0154678 2.98806 -2.65237e-18)
(-0.0132944 2.92515 9.08144e-19)
(-0.0275116 1.34524 0)
(-0.00302803 1.37403 0)
(-0.0081914 2.13317 5.21775e-22)
(-0.00747133 2.09468 0)
(-0.020932 1.90667 0)
(0.938665 -0.00736746 0)
(0.857606 -0.0099791 0)
(0.863296 0.00521748 0)
(0.949641 -0.00779679 0)
(0.884108 -0.00819678 0)
(0.513855 1.1256 -2.27856e-19)
(0.563028 1.17657 0)
(0.36716 0.877769 3.36531e-20)
(0.309873 0.736467 0)
(0.918765 1.06122 -1.54387e-19)
(1.03741 0.87083 3.14556e-19)
(0.358793 1.35495 0)
(0.526526 1.3258 0)
(0.549187 1.26442 0)
(0.121142 0.185023 -3.02463e-19)
(0.167342 0.125569 0)
(0.176119 0.0786309 1.90719e-19)
(1.00828 0.925276 0)
(1.08252 0.779138 0)
(1.10773 0.720771 -2.50749e-19)
(1.14146 0.623365 0)
(1.19201 0.407049 5.7478e-20)
(0.957787 -0.00868918 0)
(0.96253 -0.0100256 0)
(0.901785 -0.00798858 0)
(0.984208 -0.00914264 0)
(0.97472 -0.00932616 0)
(0.937146 -0.00637458 0)
(1.00019 0.00234028 0)
(1.0009 0.00141538 0)
(0.999909 0.000855628 0)
(0.0355868 2.07279 4.27555e-19)
(0.11869 1.76888 0)
(0.0181906 2.18651 6.5706e-19)
(0.0461338 1.88034 -5.4762e-19)
(0.106347 1.14893 -2.59451e-19)
(0.0491125 1.02818 0)
(0.143041 0.979989 0)
(0.00695302 0.850865 0)
(0.0191789 0.584287 0)
(-0.000921992 2.24202 -8.08691e-22)
(0.0162108 2.01923 0)
(-0.00184634 2.24462 -2.81924e-20)
(0.00871214 2.02493 4.31833e-20)
(0.00105872 0.823727 0)
(-0.00189744 0.801693 0)
(0.0133045 0.535344 0)
(-0.00932245 0.778467 0)
(0.00518293 0.476544 0)
(0.938665 0.0098416 0)
(0.850587 -0.0145882 0)
(0.927793 0.000474991 0)
(0.842765 -0.0128677 0)
(0.8116 -0.00287839 0)
(0.898168 0.0232352 0)
(0.87412 0.0262627 0)
(0.785901 -0.00425133 0)
(0.00573096 3.06491 -8.48446e-21)
(0.016608 3.05763 0)
(0.0146361 2.96903 0)
(0.00871248 2.87627 0)
(0.920051 3.95312 0)
(1.23327 3.28671 9.25717e-19)
(0.0690404 3.06911 0)
(-0.0294695 2.90192 0)
(-0.00973251 1.39703 0)
(-0.0263841 1.69626 0)
(-0.0152803 1.53193 0)
(-0.0293464 2.55185 -1.22029e-20)
(-0.0136416 2.24507 0)
(-0.0193546 2.39105 0)
(0.000427295 1.95267 7.89317e-22)
(-0.00407446 2.24097 -8.3963e-21)
(-0.00599254 2.20345 -4.15467e-21)
(-0.00680636 1.939 0)
(0.395068 0.123817 5.40122e-19)
(0.363655 0.0192612 -5.30032e-19)
(0.258693 1.58523 0)
(0.2777 0.756963 -3.15621e-19)
(0.176944 1.67246 -1.04762e-18)
(0.225879 1.2202 1.04991e-18)
(0.901979 0.00634005 0)
(0.96738 0.0111401 0)
(0.974531 0.0108173 0)
(0.923273 0.006405 0)
(-0.00911388 0.775542 0)
(-0.0105411 0.774774 0)
(0.0052658 0.472675 0)
(0.103569 0.0780476 5.98924e-19)
(0.0950884 0.0629665 -7.09307e-19)
(0.0578544 0.0474905 0)
(1.10026 0.0866587 2.69978e-20)
(1.08233 0.0397461 0)
(1.01403 0.0401991 0)
(0.907876 -0.00529537 0)
(0.448346 0.104081 0)
(0.508292 0.0871815 -2.46232e-18)
(0.407793 0.0129357 9.20831e-19)
(0.00868061 2.98102 7.1579e-19)
(-0.0325249 2.86527 4.64928e-20)
(0.00359606 3.05033 -1.797e-20)
(0.0201738 3.04328 6.38415e-19)
(-0.0149778 2.99657 2.98302e-20)
(-0.0129413 2.94944 -1.19996e-22)
(-0.0172805 3.01193 -5.52042e-19)
(0.0149047 3.02372 4.00215e-19)
(0.00742674 3.03695 -6.33699e-19)
(0.934152 -0.00116653 0)
(0.939574 -0.00316429 0)
(0.846149 -0.00945474 0)
(0.956493 0.0119577 0)
(0.942528 0.013431 0)
(0.881575 0.00571761 0)
(0.91596 0.0186204 0)
(0.92545 0.0155965 0)
(0.838342 0.00106453 0)
(0.716256 1.40255 3.94799e-20)
(0.749517 1.51113 0)
(0.18119 0.314895 7.06104e-20)
(0.228943 0.669174 5.68265e-19)
(0.262422 0.72031 -3.32053e-19)
(0.262863 0.520544 6.60798e-19)
(0.346335 0.811694 1.59169e-18)
(0.140766 0.230397 3.75717e-19)
(0.251849 0.147806 7.27026e-19)
(0.20852 0.14274 1.88498e-19)
(0.212436 0.0705335 3.56897e-19)
(1.181 0.465073 6.5609e-20)
(1.19631 0.257614 6.08035e-20)
(0.0103901 2.23508 2.52784e-19)
(0.0403692 1.94851 0)
(0.971165 0.0294827 0)
(0.943684 0.014019 0)
(0.869523 -0.0178189 0)
(0.0114137 3.07435 0)
(0.0198017 2.94421 1.16871e-18)
(0.0163956 2.95637 0)
(0.00637662 2.85048 -1.1593e-18)
(0.0063724 3.09177 2.83651e-19)
(0.00696634 3.08216 0)
(0.782267 1.81243 -1.58572e-19)
(1.24111 2.48771 4.02647e-19)
(0.764195 1.9517 -1.22768e-18)
(0.0195413 2.98085 -6.15383e-19)
(0.0348185 2.99896 0)
(-0.0348778 2.87634 0)
(-0.00399517 2.22425 -1.30609e-20)
(-0.00342257 2.24534 1.31486e-20)
(0.00247771 1.9872 -7.21738e-21)
(0.278235 1.39459 1.02443e-18)
(0.239147 0.551638 -7.02428e-19)
(0.0637657 1.99767 7.61811e-19)
(0.135195 1.88405 -9.09447e-19)
(0.180076 1.51164 9.49876e-20)
(0.00544001 3.11847 -1.57666e-18)
(0.01134 3.11928 1.72685e-18)
(-0.00930424 2.98053 7.87396e-19)
(-0.00443181 2.97719 -7.42754e-19)
(-0.0213677 2.88051 -8.01953e-19)
(0.00841133 3.09927 -2.10689e-18)
(0.00146912 3.10546 2.12478e-18)
(0.282495 0.69574 0)
(0.248694 0.684577 -1.18156e-18)
(0.0960014 0.225228 5.24558e-19)
(0.357931 0.938829 1.11277e-18)
(0.195879 0.276439 -1.71567e-18)
(1.18743 0.175579 6.23912e-20)
(1.1967 0.31235 0)
(1.17584 0.123155 -5.54785e-21)
(0.00162719 2.25363 -1.46044e-21)
(0.0050649 2.24501 0)
(0.0248314 1.98443 0)
(0.340035 1.30351 -3.67813e-19)
(0.37494 1.15062 -7.99826e-19)
(0.210564 0.378469 1.42617e-18)
(1.00588 -0.0108263 0)
(1.00767 -0.00763285 5.06209e-19)
(-0.0247028 1.32623 0)
(-0.0381957 1.32617 0)
(1.00221 0.00351495 1.81197e-21)
(1.00366 0.00947159 1.03361e-18)
(-0.0203598 2.53621 1.54699e-20)
(-0.0246611 2.57831 0)
(0.0338145 3.17676 4.05638e-19)
(0.390204 3.48336 0)
(1.17657 0.664995 -5.64254e-20)
(1.01285 0.0131481 -2.13226e-21)
(1.02135 -0.0102779 0)
(1.0017 0.000130659 7.82661e-23)
(0.112787 1.37077 0)
(0.143394 2.56769 0)
(0.0289379 1.31445 0)
(0.000345825 2.61873 2.73792e-20)
(-0.0209154 2.57573 2.78464e-21)
(0.998741 0.0303093 2.35698e-21)
(1.06324 0.00475968 0)
(1.09784 0.0252963 0)
(-0.0281522 1.73895 0)
(-0.0181232 2.57767 0)
(-0.00613864 1.3141 0)
(0.311276 1.48222 -1.68416e-19)
(1.01131 -0.00961233 0)
(1.0094 -0.0149144 0)
(1.00237 0.000754413 6.46924e-19)
(1.00547 -0.00479832 -7.60368e-19)
(1.00118 -0.000966775 0)
(-0.0143265 1.46491 0)
(-0.00648666 1.37658 0)
(-0.00663153 1.42206 0)
(-0.0100487 1.30165 0)
(-0.0197902 1.2887 0)
(-0.0109895 1.27177 0)
(1.03508 -0.00600663 0)
(1.01952 0.015511 -8.95011e-22)
(0.822353 1.2743 2.61482e-19)
(1.00224 0.000320898 -6.44491e-19)
(1.00406 0.00526351 7.54505e-19)
(1.00118 0.0020765 0)
(1.01272 0.0103672 6.41388e-19)
(1.00798 0.00831605 -7.77141e-19)
(1.00856 0.0146989 0)
(-0.023461 2.60557 0)
(-0.0257409 2.58555 -2.06531e-20)
(-0.0230721 2.59928 1.45628e-20)
(1.23853 0.268748 5.78667e-19)
(1.16298 0.0874001 0)
(0.0396074 3.07829 -9.07153e-19)
(0.0647952 2.85669 -6.59899e-20)
(0.138263 3.19195 1.39087e-18)
(0.133308 3.21957 -1.95806e-19)
(0.132971 3.23043 0)
(0.0185771 3.13728 2.34245e-19)
(0.0738309 3.15982 8.94599e-19)
(0.066653 3.18494 -4.41608e-19)
(0.0215127 3.12979 0)
(0.573721 0.282278 0)
(0.510758 0.303127 0)
(1.14828 0.701105 1.27549e-19)
(1.14166 0.822549 -1.10452e-19)
(1.20451 0.587991 0)
(1.232 0.522218 0)
(1.01603 0.0133847 -1.19557e-18)
(1.01499 0.0142744 1.50084e-18)
(1.0254 -0.00979149 0)
(1.02346 -0.0118404 0)
(1.00642 0.0026455 0)
(1.01041 0.00375081 0)
(1.00458 0.00186822 0)
(1.00978 0.00625878 0)
(1.00781 0.00596835 0)
(1.00451 0.00472475 0)
(0.101575 1.36926 0)
(0.0997858 1.332 0)
(0.13111 1.40496 0)
(0.150072 1.41033 0)
(0.145259 2.59285 0)
(0.184924 2.6632 -4.22879e-19)
(0.101447 2.6479 0)
(0.0853291 2.65081 1.97752e-19)
(0.0388426 2.67339 -1.48079e-19)
(0.0161372 1.32562 0)
(0.022902 1.24736 0)
(0.0206274 1.33612 0)
(0.0417315 1.2723 0)
(0.00408745 1.9823 4.39267e-21)
(-0.019861 2.6035 -2.05057e-20)
(-0.00795155 2.66002 1.21105e-20)
(-0.0176464 2.67934 0)
(-0.0226565 2.6092 -2.27204e-21)
(-0.0224944 2.60419 1.43644e-20)
(0.0129742 1.98055 -5.32621e-25)
(-0.00719656 2.39083 2.75097e-20)
(-0.0129259 2.41351 -1.37351e-20)
(1.012 0.0393802 1.21075e-18)
(1.00503 0.0195234 -1.50668e-18)
(1.0044 0.0466204 -1.2337e-18)
(0.977315 0.0385741 1.55241e-18)
(1.06446 0.00859062 0)
(1.04954 -0.00817134 0)
(1.0948 0.0354773 0)
(1.07462 0.013154 0)
(1.07244 0.000671947 0)
(1.14076 0.0839243 0)
(1.1123 0.0450502 0)
(1.11625 0.0328428 0)
(-0.0250836 2.42916 1.63417e-21)
(-0.0131172 2.01326 0)
(-0.0153635 2.2149 0)
(-0.020072 2.59819 -1.16803e-20)
(-0.0171188 2.60801 2.12402e-22)
(0.00328943 1.57679 -3.76319e-20)
(-0.00597655 1.5048 3.83539e-20)
(-0.0159673 1.39415 0)
(-0.0192779 1.40062 0)
(-0.0246808 1.39515 0)
(-0.00454832 1.31537 0)
(0.00795063 1.2381 0)
(0.386715 1.49968 2.7425e-19)
(0.43001 1.50035 1.4532e-19)
(0.597423 2.44367 -2.40284e-19)
(0.397985 2.54071 7.0691e-19)
(0.349069 2.05185 7.13789e-20)
(1.02109 -0.00809548 0)
(1.01552 -0.00973665 0)
(1.01493 -0.0154997 0)
(1.0074 -0.00106128 0)
(1.00493 -0.000905407 0)
(1.00779 -0.0046766 0)
(1.00928 -0.00359524 0)
(1.01423 -0.00435628 0)
(1.02024 0.0164008 1.17179e-18)
(1.01758 0.0154153 -1.49563e-18)
(1.02055 0.0185559 -1.18123e-18)
(1.01817 0.0167159 1.48087e-18)
(0.78563 1.32521 0)
(0.721599 1.37577 2.47519e-19)
(0.898136 1.22515 9.89534e-20)
(0.944074 1.17051 -1.31682e-19)
(1.15427 2.59856 2.8015e-19)
(0.766015 0.122911 5.99542e-19)
(1.1641 0.109888 0)
(1.21341 0.195682 -4.65787e-19)
(1.2007 0.15612 -1.98443e-20)
(1.00634 0.158011 0)
(0.128207 2.95846 5.28863e-19)
(0.104241 2.86442 -1.15067e-18)
(0.010852 2.37551 7.67601e-19)
(0.100088 -0.163386 -3.22342e-19)
(0.335376 3.41367 -2.16028e-19)
(0.190956 3.30837 0)
(0.234828 3.34883 2.81347e-19)
(0.239084 3.03095 -1.77073e-18)
(0.332162 3.18906 0)
(0.00663198 3.12081 4.58761e-20)
(0.0173224 3.12946 -5.38748e-19)
(0.0152255 3.12558 7.92945e-19)
(0.034439 3.13953 0)
(0.0325201 3.15028 0)
(1.20967 2.59587 0)
(0.547428 0.801572 -5.27495e-19)
(1.06788 0.995241 -1.01043e-20)
(1.00286 1.07965 0)
(0.856147 0.974668 -1.09148e-19)
(1.09416 0.896362 2.78465e-20)
(0.304474 0.325384 -8.41317e-19)
(0.651942 0.325603 -1.68752e-20)
(0.542724 0.220899 4.05454e-19)
(0.53505 0.336557 2.94422e-20)
(0.428334 0.271892 -1.18243e-18)
(0.608621 0.327477 0)
(0.7139 0.426265 6.64854e-19)
(0.711668 0.427004 0)
(0.57498 0.342025 0)
(0.493981 0.245905 0)
(0.829895 0.626476 4.08193e-19)
(1.23982 0.291205 -4.86732e-19)
(1.24017 0.430328 0)
(1.24843 0.370613 0)
(0.679043 0.195883 6.20253e-19)
(0.875587 0.555964 -3.723e-19)
(0.774552 0.531855 6.64156e-19)
(0.963399 0.448596 -7.33354e-19)
(1.01904 0.0150137 8.01812e-19)
(1.01751 0.0143757 -8.07766e-19)
(1.01592 0.0152959 0)
(1.03655 -0.00554889 0)
(1.02994 -0.00834013 -7.57147e-19)
(1.02799 -0.0119366 7.49619e-19)
(1.02488 0.0106698 0)
(1.02331 0.0145165 0)
(1.01141 0.00418055 0)
(1.01418 0.00917481 0)
(1.01515 0.00421238 0)
(1.01426 0.00291519 0)
(0.0728051 1.35327 0)
(0.0810401 1.29898 0)
(0.147932 1.38514 7.00286e-21)
(0.281631 1.48075 8.94446e-20)
(0.176636 1.45166 1.88006e-19)
(0.209677 1.45702 -3.06663e-19)
(0.17694 1.41057 0)
(0.135126 1.60011 -6.97099e-20)
(0.119931 1.57886 0)
(0.345041 2.00132 -1.03789e-19)
(0.341664 2.33764 6.13595e-19)
(0.195552 1.4648 6.07776e-20)
(0.26867 1.39675 2.32829e-20)
(0.20214 1.3899 -1.87834e-20)
(0.278435 1.33968 -1.03106e-19)
(0.242086 1.57909 0)
(0.268635 1.61601 1.12226e-19)
(0.0310141 2.25723 -2.88215e-20)
(0.0436741 2.66266 0)
(0.0667785 2.39384 1.35657e-19)
(0.063406 2.41456 0)
(0.0696151 2.66446 -2.19148e-19)
(0.0492834 2.69294 0)
(0.0281894 1.4449 3.50481e-20)
(0.0364933 1.49351 0)
(0.0313046 1.41096 0)
(0.0262522 1.41725 -3.95493e-20)
(0.000957086 2.64627 -1.67706e-20)
(0.0298038 2.69177 1.66205e-19)
(0.0107023 2.71698 1.16466e-21)
(0.00460489 1.83809 -4.99975e-21)
(-0.00136409 1.69242 -4.08797e-21)
(0.0110439 1.30372 0)
(0.0197684 1.22012 0)
(0.0463217 1.59499 -2.80716e-20)
(0.0350768 1.47454 -3.44543e-20)
(0.0387475 1.53687 4.28514e-20)
(0.0408861 1.61856 0)
(-0.0292064 2.26802 9.95045e-20)
(-0.0301798 2.54508 -4.1734e-20)
(-0.0160048 2.44297 4.37766e-21)
(-0.00258095 1.85362 6.05639e-21)
(-0.0250623 2.49485 2.7981e-21)
(-0.0200411 2.4388 -1.77168e-21)
(1.01846 0.021937 -8.02516e-19)
(1.01541 0.0280031 8.06048e-19)
(1.01283 0.0170684 0)
(1.01045 0.0711835 1.12765e-18)
(0.991933 0.0606935 -1.26057e-18)
(0.951132 0.0573595 1.409e-18)
(1.01415 0.112089 -1.50381e-19)
(1.04301 -0.00552785 0)
(1.05143 -0.00112315 7.21999e-19)
(1.03928 -0.00971394 -7.23482e-19)
(1.0721 0.0431015 -4.29303e-20)
(1.06515 0.024262 3.70297e-19)
(1.06316 0.057166 0)
(1.05428 0.050543 -1.33173e-19)
(1.03217 0.0425892 0)
(1.02617 0.0393441 0)
(1.02796 0.0138319 0)
(1.02388 0.0164559 0)
(1.04038 0.0334854 2.74285e-19)
(1.03873 0.0272931 -6.06533e-19)
(1.05142 0.034706 -2.90677e-19)
(1.0484 0.0349585 -3.2023e-19)
(1.07183 0.0654593 6.249e-19)
(1.09728 0.0533569 0)
(1.10653 0.0976567 0)
(-0.0245616 2.27314 5.61932e-20)
(-0.0236816 2.01808 1.24454e-21)
(-0.0196252 2.02558 0)
(-0.0268621 2.44181 -5.59379e-20)
(-0.0222735 2.39854 -2.80256e-21)
(-0.032304 2.46952 6.06355e-21)
(-0.0200797 2.61675 -1.27761e-20)
(-0.022746 2.5587 1.77862e-22)
(-0.0210243 2.51049 -3.60598e-21)
(-0.0152976 2.61085 1.07716e-20)
(-0.0201033 2.61277 -1.1628e-20)
(-0.00584983 1.5007 -6.46212e-22)
(0.00384028 1.62495 -3.59091e-20)
(0.371676 1.4484 -1.15997e-19)
(0.371489 1.38171 3.65488e-20)
(0.662126 1.42609 -2.39448e-19)
(0.528995 1.49304 -1.42836e-19)
(0.587311 1.45871 0)
(0.593145 2.42079 2.06849e-19)
(0.661632 2.41643 3.37479e-19)
(0.410978 2.51009 8.79634e-20)
(0.402135 2.53441 -6.08149e-19)
(0.509907 2.47544 6.13302e-19)
(0.553125 2.45748 0)
(0.487816 2.51509 -5.58967e-19)
(0.248068 2.58714 1.14213e-18)
(0.354531 2.55931 -7.7286e-20)
(0.283711 2.64883 -1.58469e-18)
(0.948103 2.37393 7.2771e-19)
(0.838182 2.3793 0)
(1.01108 0.000536315 2.62451e-20)
(1.01537 -0.00535544 -2.1288e-20)
(1.01768 -0.00345793 -3.88804e-19)
(1.01505 -0.000821655 3.90922e-19)
(1.01247 0.00128348 0)
(0.64887 1.29098 0)
(0.672769 1.18478 0)
(0.786693 1.1033 0)
(0.665857 1.14835 0)
(1.18431 2.61209 5.98289e-20)
(1.07239 2.35955 0)
(0.833638 2.16222 3.84984e-21)
(0.823444 2.42899 0)
(0.921559 2.52286 -4.22164e-19)
(0.956799 2.47894 2.80807e-19)
(0.796521 0.184277 0)
(0.737665 0.156792 1.629e-19)
(0.907013 0.152574 9.47686e-19)
(0.822484 0.156685 -3.54782e-19)
(0.777859 0.0912349 -1.09544e-18)
(1.08317 0.242675 -8.91035e-19)
(1.00037 0.30626 -1.8039e-20)
(0.927708 0.310024 8.58646e-19)
(1.00694 0.236149 7.21433e-19)
(0.947979 0.200178 -1.25366e-18)
(0.910141 0.204718 1.56813e-19)
(0.946314 0.272223 -3.32801e-19)
(0.925479 0.23195 0)
(0.996407 0.196631 6.18344e-19)
(1.04727 0.195452 0)
(1.04492 0.223954 0)
(1.10782 0.122042 2.89614e-19)
(1.07181 0.182171 -1.50962e-20)
(1.07646 0.242608 -1.57709e-19)
(1.10196 0.208377 0)
(1.02239 0.0467637 6.17678e-19)
(1.03926 0.0602765 7.71709e-19)
(1.03397 0.0457918 -6.13453e-19)
(1.04282 0.0682466 -5.17693e-19)
(1.01988 0.0762588 -7.94709e-19)
(0.98491 0.160318 0)
(0.98941 0.106179 0)
(0.965295 0.0756282 -5.01085e-19)
(0.904468 0.0980969 1.99665e-19)
(1.04039 0.108449 7.16051e-19)
(1.06964 0.125633 -8.35416e-19)
(1.07676 0.157964 7.46108e-19)
(1.0316 0.152279 0)
(1.07518 0.112919 0)
(1.05403 0.0936904 -3.42486e-19)
(1.04352 0.0987259 -5.84331e-19)
(0.578895 1.05343 1.40479e-19)
(0.603504 1.37707 -4.19358e-20)
(1.15422 2.72746 -2.28514e-19)
(1.21981 3.06994 2.34932e-21)
(1.24593 2.71076 -1.25101e-19)
(1.27432 2.69386 -3.09721e-20)
(1.20162 2.33423 -1.1141e-20)
(1.20755 2.97383 -9.47256e-20)
(1.22773 2.9394 2.36226e-19)
(1.20984 3.22274 -1.4224e-19)
(1.36933 2.95354 1.9653e-19)
(1.35775 2.8716 0)
(0.565729 0.810487 -5.04342e-20)
(0.107103 1.22159 5.69255e-19)
(0.560092 0.347408 5.50552e-19)
(0.399044 0.0937024 5.95389e-19)
(0.474931 0.311666 6.70961e-19)
(0.547001 0.429755 -1.08886e-18)
(0.54884 0.425637 8.91936e-19)
(0.464204 0.304983 -3.38893e-19)
(0.338256 0.232975 7.63186e-19)
(0.705984 0.270786 -3.58424e-19)
(0.664404 0.292431 0)
(0.598635 0.20794 6.2893e-21)
(0.745675 0.508884 3.60987e-19)
(0.726729 0.478916 -1.31191e-18)
(0.625246 0.445109 1.0496e-20)
(0.621009 0.436175 0)
(0.695046 0.717601 3.96004e-19)
(0.857955 0.780386 3.93002e-19)
(0.781468 0.862852 -4.59926e-19)
(0.903069 0.817444 -1.5333e-19)
(0.934093 0.862883 -3.69192e-20)
(0.941131 0.86255 3.7809e-20)
(0.869788 0.661584 -6.75787e-19)
(0.949582 0.714982 1.4237e-19)
(1.00884 0.729713 0)
(0.999831 0.706211 -1.92209e-19)
(1.03028 0.346828 2.11364e-19)
(1.15063 0.307892 2.8669e-19)
(1.0713 0.280174 3.64117e-19)
(1.02037 0.37932 -4.2973e-19)
(1.06869 0.441488 0)
(1.12464 0.422428 0)
(0.922254 0.382912 1.28487e-21)
(0.838464 0.318446 0)
(0.886163 0.31634 4.06168e-19)
(0.909902 0.318576 -8.31394e-21)
(0.958347 0.45217 2.04282e-18)
(0.919746 0.507343 5.24884e-19)
(0.924173 0.473837 -5.59888e-19)
(0.83951 0.462641 6.01014e-19)
(0.824585 0.456413 3.60225e-19)
(0.794718 0.43827 -3.54125e-19)
(1.02744 -0.000164959 6.477e-19)
(1.02001 0.000122824 0)
(1.01855 0.00104812 4.22347e-19)
(1.02175 -0.00148836 -9.56723e-19)
(1.02239 0.00458232 4.64784e-19)
(1.0203 0.0116263 -9.7326e-19)
(1.02119 0.0109819 0)
(1.02039 0.0111973 -2.02851e-19)
(1.01593 0.00789192 5.0895e-19)
(1.01656 0.0106896 -2.53949e-19)
(1.01727 0.0100333 1.87001e-19)
(0.0339283 1.32998 0)
(0.0394293 1.38473 0)
(0.0524612 1.33037 0)
(0.0586654 1.27795 0)
(0.0746052 1.40221 -4.972e-20)
(0.0847867 1.36748 2.24584e-20)
(0.111667 1.54732 -1.48863e-20)
(0.106259 1.38913 -3.92203e-21)
(0.0401205 1.47981 2.03824e-20)
(0.0436591 1.47378 -1.56913e-20)
(0.0674817 1.38956 -1.08172e-20)
(0.0608956 1.3907 4.69285e-20)
(0.0527548 1.36786 6.94937e-21)
(0.044967 1.39007 3.91554e-21)
(0.107592 2.36162 -1.49825e-19)
(0.0960999 2.41009 0)
(0.16907 2.03536 1.09011e-19)
(0.113937 1.70228 4.04832e-20)
(0.234383 2.03361 -8.94853e-20)
(0.199578 2.42428 0)
(0.262269 2.37429 -6.05111e-19)
(0.30206 2.37209 4.27565e-19)
(0.228105 1.99337 -2.49804e-19)
(0.154155 2.15191 1.68696e-19)
(0.141647 2.25907 0)
(0.0187191 1.87767 6.9045e-21)
(0.000872064 2.38564 -3.2652e-20)
(0.00635271 2.14302 0)
(0.0117298 2.44962 -1.36559e-20)
(0.0292876 2.29251 8.35274e-21)
(0.0160402 1.42394 -7.5493e-21)
(0.0129518 1.40513 1.25805e-19)
(0.012511 1.41231 -4.18354e-20)
(0.0219311 1.41807 -3.47775e-20)
(0.0262449 1.44865 0)
(0.00809695 1.39368 0)
(-0.000255755 1.29994 -4.93779e-20)
(0.00435001 1.38563 1.41987e-20)
(0.00841473 1.38497 0)
(0.00593207 1.29163 -3.69291e-20)
(0.0163223 1.21017 7.49553e-20)
(1.04086 0.0121837 0)
(1.04707 0.00843233 -6.77471e-20)
(1.03883 0.0225754 -4.88839e-19)
(1.04867 0.02129 0)
(1.05255 0.0211336 0)
(1.03647 0.0123917 -6.84129e-21)
(1.03108 0.0122295 7.85834e-19)
(1.03165 0.0172919 9.52528e-19)
(1.02555 0.0212022 0)
(1.02241 0.0216823 0)
(1.03532 0.0261622 4.87544e-19)
(1.02607 0.0280188 0)
(1.02374 0.0281346 0)
(-0.0175302 2.0229 0)
(0.000595173 1.65536 -4.38604e-21)
(-0.00378676 1.76206 -3.08806e-20)
(-0.0018762 1.39301 0)
(-0.00646655 1.55779 -1.99468e-20)
(-0.0092916 1.4691 1.22729e-20)
(-0.00668713 1.40726 0)
(0.388628 1.64202 0)
(0.374213 1.30754 -7.18909e-20)
(0.300794 1.34018 0)
(0.426243 1.3066 7.20581e-21)
(0.476941 1.47073 0)
(0.457324 1.41511 2.48878e-20)
(1.03635 2.67427 -1.53834e-20)
(0.968465 2.40255 -9.14584e-19)
(0.921725 2.19117 1.02575e-18)
(0.852219 2.37119 2.42112e-19)
(0.847721 2.48362 0)
(0.917434 2.4797 0)
(0.931452 2.36749 0)
(0.910412 2.35687 -9.45079e-19)
(0.686609 2.44727 -3.94375e-19)
(0.799789 2.43669 -9.77335e-20)
(0.810122 2.41082 7.42374e-20)
(0.695516 2.3895 0)
(0.800786 2.38486 0)
(0.758901 2.39833 -3.68749e-19)
(0.767342 2.47339 0)
(0.633438 1.09395 0)
(0.48015 0.897478 -5.14785e-19)
(0.568989 0.942551 -3.25593e-20)
(0.519007 1.03192 0)
(0.519409 0.974302 7.70724e-19)
(0.802117 0.885862 -1.29525e-19)
(0.810471 1.0216 0)
(0.785701 0.987988 1.84751e-19)
(0.670267 1.0342 0)
(0.671427 0.935298 0)
(1.16327 2.75078 -2.30453e-19)
(1.14073 2.81409 -9.77499e-20)
(0.928625 2.32762 1.01579e-19)
(0.896442 2.30723 -8.36374e-20)
(1.12893 2.72385 0)
(1.0828 2.69328 1.00618e-19)
(1.08879 2.4774 -3.14106e-19)
(0.983422 2.2307 -3.03492e-20)
(0.491911 1.32839 0)
(0.507834 1.05901 -1.23813e-19)
(0.577792 1.16721 0)
(0.85269 0.250456 0)
(0.757646 0.200571 0)
(0.665841 0.156431 0)
(0.843473 0.252617 -6.37151e-19)
(0.729222 0.244592 3.73681e-19)
(0.921812 0.0912024 -4.11519e-19)
(0.924805 0.133261 0)
(0.913177 0.141733 1.77804e-19)
(0.849118 0.119649 7.10809e-19)
(0.813698 0.0802537 -4.45678e-19)
(1.15481 3.34771 -7.1651e-19)
(1.20401 3.2672 0)
(1.15231 3.37678 -1.48642e-18)
(0.640727 3.53838 1.2608e-18)
(0.861905 3.10726 7.06522e-20)
(0.522766 0.795317 6.06422e-19)
(0.423136 0.792808 0)
(0.305223 0.374539 -1.48487e-19)
(0.474993 0.647933 8.56082e-19)
(0.564733 0.351413 -1.94192e-19)
(0.516716 0.462588 2.30177e-19)
(0.675666 0.511277 4.88888e-19)
(0.716563 0.551116 0)
(0.666224 0.572368 0)
(0.632308 0.524835 0)
(1.01014 0.616373 8.76386e-20)
(0.925193 0.557169 -5.11062e-19)
(0.95056 0.588462 3.84765e-19)
(0.980714 0.528587 -3.95889e-19)
(1.08825 0.496456 0)
(1.09679 0.587585 -9.62069e-20)
(0.859198 0.414831 -8.28614e-19)
(0.857027 0.403052 -1.0274e-18)
(0.789647 0.396445 6.31667e-19)
(0.798691 0.384684 -6.41536e-19)
(0.845234 0.341586 -5.18862e-19)
(0.792391 0.338512 6.34475e-19)
(1.0267 0.00617377 -4.93216e-19)
(1.02641 0.00639064 1.00251e-18)
(1.02949 0.000290394 6.27638e-19)
(1.03373 0.0012089 -7.55913e-19)
(1.03386 0.00935893 0)
(1.03011 0.0100669 -1.23052e-18)
(0.0627103 1.63849 1.88768e-20)
(0.0523618 1.58947 0)
(0.0901996 1.68748 1.26713e-19)
(0.0970416 1.66853 -1.12257e-19)
(0.0926465 1.54771 2.65684e-20)
(0.0921116 1.5487 0)
(0.0126768 1.68973 0)
(-0.00431047 1.50049 8.21643e-21)
(-0.00222305 1.44645 -7.39181e-21)
(-0.00760156 1.55503 5.3798e-21)
(0.00280744 1.88529 1.22603e-20)
(-0.00932167 1.9381 -2.26449e-21)
(0.496894 1.35593 -2.76275e-19)
(0.490472 1.35624 3.03617e-19)
(0.453807 1.30207 -3.15193e-20)
(0.436746 1.28317 7.75065e-21)
(0.641132 1.30889 0)
(0.556095 1.39926 1.05248e-19)
(0.571841 1.40636 -1.02465e-19)
(0.467567 1.29271 3.07426e-20)
(0.522732 1.24155 0)
(0.574303 1.20424 0)
(0.653576 2.40691 5.7934e-19)
(0.669166 2.44865 1.25881e-18)
(0.713632 2.45936 -8.67406e-19)
(0.609753 2.43328 -2.0174e-19)
(0.559777 2.52338 2.83484e-19)
(0.508986 2.49822 -7.56139e-19)
(0.978176 2.37409 -5.74075e-19)
(1.01225 2.38617 0)
(0.925841 2.16924 -6.59468e-19)
(1.05382 2.67233 0)
(1.05613 2.65894 0)
(0.597229 2.25531 -1.29846e-19)
(1.03594 3.15285 1.26169e-19)
(0.906994 3.02333 -2.90565e-20)
(0.26223 0.84141 0)
(0.287839 0.683495 -3.17544e-19)
(0.458594 0.643742 -3.1992e-19)
(0.377197 1.99931 0)
(0.461342 2.77815 -4.9183e-20)
(0.414658 2.54063 0)
(0.719158 0.667973 -8.36274e-19)
(0.804444 0.687418 1.11809e-18)
(0.824018 0.627703 -1.10453e-18)
(0.695692 0.630941 -1.07089e-19)
(0.750939 0.589262 -4.38504e-19)
(1.00012 2.75138 -9.59585e-20)
(1.04142 2.81302 -1.67043e-19)
(0.630722 2.11772 7.03713e-19)
(0.582898 1.68667 -5.0119e-19)
(0.692965 1.88678 -4.09127e-19)
(0.986346 2.43529 -1.12898e-19)
(0.993523 2.42814 2.97858e-19)
(0.6482 1.81955 2.84305e-20)
(0.439808 1.30743 1.45137e-19)
)
;

boundaryField
{
    wall-4
    {
        type            noSlip;
    }
    velocity-inlet-5
    {
        type            fixedValue;
        value           uniform (1 0 0);
    }
    velocity-inlet-6
    {
        type            fixedValue;
        value           uniform (0 3 0);
    }
    pressure-outlet-7
    {
        type            zeroGradient;
    }
    wall-8
    {
        type            noSlip;
    }
    frontAndBackPlanes
    {
        type            empty;
    }
}


// ************************************************************************* //
