/*--------------------------------*- C++ -*----------------------------------*\
  =========                 |
  \\      /  F ield         | OpenFOAM: The Open Source CFD Toolbox
   \\    /   O peration     | Website:  https://openfoam.org
    \\  /    A nd           | Version:  13
     \\/     M anipulation  |
\*---------------------------------------------------------------------------*/
FoamFile
{
    format      ascii;
    class       volScalarField;
    location    "2.85";
    object      T;
}
// * * * * * * * * * * * * * * * * * * * * * * * * * * * * * * * * * * * * * //

dimensions      [0 0 0 1 0 0 0];

internalField   nonuniform List<scalar> 
1000
(
1.20931e-75
1.86782e-75
3.53935e-75
7.12162e-75
1.4532e-74
2.97222e-74
6.07606e-74
1.24068e-73
2.53004e-73
5.15237e-73
1.04784e-72
2.12808e-72
4.31607e-72
8.74165e-72
1.76809e-71
3.57123e-71
7.20338e-71
1.45097e-70
2.91865e-70
5.86285e-70
1.17608e-69
2.35595e-69
4.71299e-69
9.41513e-69
1.87826e-68
3.74184e-68
7.4441e-68
1.4789e-67
2.934e-67
5.81274e-67
1.15e-66
2.27201e-66
4.48247e-66
8.8312e-66
1.73747e-65
3.41356e-65
6.69718e-65
1.31211e-64
2.56707e-64
5.01533e-64
9.7848e-64
1.90632e-63
3.70875e-63
7.20528e-63
1.39786e-62
2.70809e-62
5.23905e-62
1.01211e-61
1.95251e-61
3.76134e-61
7.23567e-61
1.38995e-60
2.66628e-60
5.10737e-60
9.7695e-60
1.86608e-59
3.55936e-59
6.77946e-59
1.28944e-58
2.44899e-58
4.64467e-58
8.79635e-58
1.66353e-57
3.1415e-57
5.9241e-57
1.11554e-56
2.09762e-56
3.93864e-56
7.38484e-56
1.38265e-55
2.58499e-55
4.82593e-55
8.99658e-55
1.67474e-54
3.11309e-54
5.77841e-54
1.07102e-53
1.98226e-53
3.66347e-53
6.76077e-53
1.24586e-52
2.29253e-52
4.21238e-52
7.72877e-52
1.41599e-51
2.59047e-51
4.73222e-51
8.63212e-51
1.5723e-50
2.8597e-50
5.19363e-50
9.41857e-50
1.70555e-49
3.08394e-49
5.56816e-49
1.00388e-48
1.80722e-48
3.24865e-48
5.83117e-48
1.04513e-47
1.87044e-47
3.34254e-47
5.96444e-47
1.06273e-46
1.89073e-46
3.3589e-46
5.95828e-46
1.05536e-45
1.86654e-45
3.29632e-45
5.81268e-45
1.02348e-44
1.79942e-44
3.15895e-44
5.53738e-44
9.69212e-44
1.69389e-43
2.95599e-43
5.15077e-43
8.96172e-43
1.5569e-42
2.70072e-42
4.67786e-42
8.09027e-42
1.3971e-41
2.40901e-41
4.14761e-41
7.13021e-41
1.22392e-40
2.09773e-40
3.58997e-40
6.13447e-40
1.04666e-39
1.78312e-39
3.03317e-39
5.15176e-39
8.73689e-39
1.47945e-38
2.5014e-38
4.22286e-38
7.11821e-38
1.19805e-37
2.01334e-37
3.3783e-37
5.66001e-37
9.46835e-37
1.5815e-36
2.63754e-36
4.39203e-36
7.30244e-36
1.21229e-35
2.00946e-35
3.32571e-35
5.49573e-35
9.06774e-35
1.49384e-34
2.45722e-34
4.03566e-34
6.61785e-34
1.08355e-33
1.77138e-33
2.89139e-33
4.71226e-33
7.66797e-33
1.24584e-32
2.02101e-32
3.27344e-32
5.29381e-32
8.54787e-32
1.37808e-31
2.21827e-31
3.56519e-31
5.72103e-31
9.16621e-31
1.46632e-30
2.34204e-30
3.73491e-30
5.94688e-30
9.45409e-30
1.50063e-29
2.37819e-29
3.76306e-29
5.94505e-29
9.37757e-29
1.47688e-28
2.32229e-28
3.64593e-28
5.71503e-28
8.94428e-28
1.39762e-27
2.18047e-27
3.39647e-27
5.28227e-27
8.20218e-27
1.27161e-26
1.9683e-26
3.04189e-26
4.69363e-26
7.23083e-26
1.11219e-25
1.70799e-25
2.61879e-25
4.00893e-25
6.12727e-25
9.35012e-25
1.42455e-24
2.16694e-24
3.29099e-24
4.99016e-24
7.55461e-24
1.14187e-23
1.72318e-23
2.59628e-23
3.90552e-23
5.8656e-23
8.79535e-23
1.31674e-22
1.96812e-22
2.93703e-22
4.37592e-22
6.50931e-22
9.66728e-22
1.43343e-21
2.12204e-21
3.1364e-21
4.62821e-21
6.81861e-21
1.00295e-20
1.47287e-20
2.15949e-20
3.16111e-20
4.61983e-20
6.74082e-20
9.8197e-20
1.42818e-19
2.0738e-19
3.00641e-19
4.35139e-19
6.2879e-19
9.07151e-19
1.30662e-18
1.87896e-18
2.69763e-18
3.86671e-18
5.53346e-18
7.90582e-18
1.12769e-17
1.60595e-17
2.28331e-17
3.24109e-17
4.59317e-17
6.49869e-17
9.17979e-17
1.29459e-16
1.82273e-16
2.56216e-16
3.59568e-16
5.03787e-16
7.04699e-16
9.84127e-16
1.37211e-15
1.90993e-15
2.65421e-15
3.68249e-15
5.1008e-15
7.0538e-15
9.73861e-15
1.34233e-14
1.84718e-14
2.53774e-14
3.48075e-14
4.76635e-14
6.51607e-14
8.89349e-14
1.21184e-13
1.64856e-13
2.23898e-13
3.03586e-13
4.10958e-13
5.55392e-13
7.49353e-13
1.00939e-12
1.35742e-12
1.82245e-12
2.44276e-12
3.26881e-12
4.36698e-12
5.82449e-12
7.75563e-12
1.031e-11
1.36831e-11
1.81298e-11
2.3982e-11
3.16707e-11
4.17555e-11
5.49605e-11
7.22222e-11
9.47483e-11
1.24095e-10
1.62263e-10
2.11819e-10
2.76052e-10
3.59169e-10
4.66538e-10
6.05002e-10
7.83261e-10
1.01236e-09
1.30632e-09
1.68283e-09
2.16427e-09
2.77883e-09
3.562e-09
4.55833e-09
5.82368e-09
7.42795e-09
9.45845e-09
1.20241e-08
1.52603e-08
1.93354e-08
2.44581e-08
3.08867e-08
3.89404e-08
4.90128e-08
6.15882e-08
7.72619e-08
9.67637e-08
1.20987e-07
1.51024e-07
1.88206e-07
2.34152e-07
2.90833e-07
3.60637e-07
4.46452e-07
5.51773e-07
6.8081e-07
8.38633e-07
1.03133e-06
1.2662e-06
1.552e-06
1.89915e-06
2.3201e-06
2.82967e-06
3.44545e-06
4.1883e-06
5.08289e-06
6.15837e-06
7.44908e-06
8.99542e-06
1.08448e-05
1.30529e-05
1.56846e-05
1.88158e-05
2.2535e-05
2.69448e-05
3.21644e-05
3.8332e-05
4.56071e-05
5.41736e-05
6.42435e-05
7.606e-05
8.99021e-05
0.000106089
0.000124985
0.000147005
0.000172622
0.000202371
0.000236859
0.000276771
0.00032288
0.000376057
0.000437277
0.000507636
0.000588357
0.000680805
0.0007865
0.000907129
0.00104456
0.00120088
0.00137834
0.00157948
0.00180706
0.00206409
0.00235388
0.00268005
0.00304651
0.00345754
0.00391774
0.0044321
0.005006
0.0056452
0.00635589
0.00714471
0.00801869
0.00898536
0.0100527
0.011229
0.0125234
0.013945
0.0155037
0.0172096
0.0190736
0.0211066
0.0233201
0.0257259
0.0283361
0.0311631
0.0342197
0.0375187
0.041073
0.0448958
0.0490001
0.0533989
0.0581051
0.0631314
0.0684901
0.0741933
0.0802525
0.0866785
0.0934818
0.100672
0.108257
0.116245
0.124644
0.133457
0.14269
0.152346
0.162426
0.172931
0.183859
0.195208
0.206972
0.219146
0.231721
0.24469
0.258039
0.271757
0.285828
0.300237
0.314965
0.329994
0.345302
0.360868
0.376668
0.392677
0.40887
0.42522
0.441699
0.45828
0.474933
0.49163
0.508341
0.525037
0.541689
0.558266
0.574742
0.591086
0.607273
0.623274
0.639065
0.654619
0.669914
0.684927
0.699637
0.714024
0.72807
0.741758
0.755073
0.768001
0.780531
0.792652
0.804355
0.815633
0.82648
0.836893
0.846867
0.856402
0.865498
0.874155
0.882376
0.890163
0.897521
0.904454
0.910968
0.917067
0.92276
0.928052
0.932951
0.937463
0.941595
0.945355
0.948748
0.951782
0.954463
0.956795
0.958784
0.960435
0.961751
0.962735
0.96339
0.963717
0.963717
0.96339
0.962735
0.961751
0.960435
0.958784
0.956795
0.954463
0.951782
0.948748
0.945355
0.941595
0.937463
0.932951
0.928052
0.92276
0.917067
0.910968
0.904454
0.897521
0.890163
0.882376
0.874155
0.865498
0.856402
0.846867
0.836893
0.82648
0.815633
0.804355
0.792652
0.780531
0.768001
0.755073
0.741758
0.72807
0.714024
0.699637
0.684927
0.669914
0.654619
0.639065
0.623274
0.607273
0.591086
0.574742
0.558266
0.541689
0.525037
0.508341
0.49163
0.474933
0.45828
0.441699
0.42522
0.40887
0.392677
0.376668
0.360868
0.345302
0.329994
0.314965
0.300237
0.285828
0.271757
0.258039
0.24469
0.231721
0.219146
0.206972
0.195208
0.183859
0.172931
0.162426
0.152346
0.14269
0.133457
0.124644
0.116245
0.108257
0.100672
0.0934818
0.0866785
0.0802525
0.0741933
0.0684901
0.0631314
0.0581051
0.0533989
0.0490001
0.0448958
0.041073
0.0375187
0.0342197
0.0311631
0.0283361
0.0257259
0.0233201
0.0211066
0.0190736
0.0172096
0.0155037
0.013945
0.0125234
0.011229
0.0100527
0.00898536
0.00801869
0.00714471
0.00635589
0.0056452
0.005006
0.0044321
0.00391774
0.00345754
0.00304651
0.00268005
0.00235388
0.00206409
0.00180706
0.00157948
0.00137834
0.00120088
0.00104456
0.000907129
0.0007865
0.000680805
0.000588357
0.000507636
0.000437277
0.000376057
0.00032288
0.000276771
0.000236859
0.000202371
0.000172622
0.000147005
0.000124985
0.000106089
8.99021e-05
7.606e-05
6.42435e-05
5.41736e-05
4.56071e-05
3.8332e-05
3.21644e-05
2.69448e-05
2.2535e-05
1.88158e-05
1.56846e-05
1.30529e-05
1.08448e-05
8.99542e-06
7.44908e-06
6.15837e-06
5.08289e-06
4.1883e-06
3.44545e-06
2.82967e-06
2.3201e-06
1.89915e-06
1.552e-06
1.2662e-06
1.03133e-06
8.38633e-07
6.8081e-07
5.51773e-07
4.46452e-07
3.60637e-07
2.90833e-07
2.34152e-07
1.88206e-07
1.51024e-07
1.20987e-07
9.67637e-08
7.72619e-08
6.15882e-08
4.90128e-08
3.89404e-08
3.08867e-08
2.44581e-08
1.93354e-08
1.52603e-08
1.20241e-08
9.45845e-09
7.42795e-09
5.82368e-09
4.55833e-09
3.562e-09
2.77883e-09
2.16427e-09
1.68283e-09
1.30632e-09
1.01236e-09
7.83261e-10
6.05002e-10
4.66538e-10
3.59169e-10
2.76052e-10
2.11819e-10
1.62263e-10
1.24095e-10
9.47483e-11
7.22222e-11
5.49605e-11
4.17555e-11
3.16707e-11
2.3982e-11
1.81298e-11
1.36831e-11
1.031e-11
7.75563e-12
5.82449e-12
4.36698e-12
3.26881e-12
2.44276e-12
1.82245e-12
1.35742e-12
1.00939e-12
7.49353e-13
5.55392e-13
4.10958e-13
3.03586e-13
2.23898e-13
1.64856e-13
1.21184e-13
8.89349e-14
6.51607e-14
4.76635e-14
3.48075e-14
2.53774e-14
1.84718e-14
1.34233e-14
9.73861e-15
7.0538e-15
5.1008e-15
3.68249e-15
2.65421e-15
1.90993e-15
1.37211e-15
9.84127e-16
7.04699e-16
5.03787e-16
3.59568e-16
2.56216e-16
1.82273e-16
1.29459e-16
9.17979e-17
6.49869e-17
4.59317e-17
3.24109e-17
2.28331e-17
1.60595e-17
1.12769e-17
7.90582e-18
5.53346e-18
3.86671e-18
2.69763e-18
1.87896e-18
1.30662e-18
9.07151e-19
6.2879e-19
4.35139e-19
3.00641e-19
2.0738e-19
1.42818e-19
9.8197e-20
6.74082e-20
4.61983e-20
3.16111e-20
2.15949e-20
1.47287e-20
1.00295e-20
6.81861e-21
4.62821e-21
3.1364e-21
2.12204e-21
1.43343e-21
9.66728e-22
6.50931e-22
4.37592e-22
2.93703e-22
1.96812e-22
1.31674e-22
8.79535e-23
5.8656e-23
3.90552e-23
2.59628e-23
1.72318e-23
1.14187e-23
7.55461e-24
4.99016e-24
3.29099e-24
2.16694e-24
1.42455e-24
9.35012e-25
6.12727e-25
4.00893e-25
2.61879e-25
1.70799e-25
1.11219e-25
7.23083e-26
4.69363e-26
3.04189e-26
1.9683e-26
1.27161e-26
8.20218e-27
5.28227e-27
3.39647e-27
2.18047e-27
1.39762e-27
8.94428e-28
5.71503e-28
3.64593e-28
2.32229e-28
1.47688e-28
9.37757e-29
5.94505e-29
3.76306e-29
2.37819e-29
1.50063e-29
9.45409e-30
5.94688e-30
3.73491e-30
2.34204e-30
1.46632e-30
9.16621e-31
5.72103e-31
3.56519e-31
2.21827e-31
1.37808e-31
8.54787e-32
5.29381e-32
3.27344e-32
2.02101e-32
1.24584e-32
7.66797e-33
4.71226e-33
2.89139e-33
1.77138e-33
1.08355e-33
6.61785e-34
4.03566e-34
2.45722e-34
1.49384e-34
9.06774e-35
5.49573e-35
3.32571e-35
2.00946e-35
1.21229e-35
7.30244e-36
4.39203e-36
2.63754e-36
1.5815e-36
9.46835e-37
5.66001e-37
3.3783e-37
2.01334e-37
1.19805e-37
7.11821e-38
4.22286e-38
2.5014e-38
1.47945e-38
8.73689e-39
5.15176e-39
3.03317e-39
1.78312e-39
1.04666e-39
6.13447e-40
3.58997e-40
2.09773e-40
1.22392e-40
7.13021e-41
4.14761e-41
2.40901e-41
1.3971e-41
8.09027e-42
4.67786e-42
2.70072e-42
1.5569e-42
8.96172e-43
5.15077e-43
2.95599e-43
1.69389e-43
9.69212e-44
5.53738e-44
3.15895e-44
1.79942e-44
1.02348e-44
5.81268e-45
3.29632e-45
1.86654e-45
1.05536e-45
5.95828e-46
3.3589e-46
1.89073e-46
1.06273e-46
5.96444e-47
3.34254e-47
1.87044e-47
1.04513e-47
5.83117e-48
3.24865e-48
1.80722e-48
1.00388e-48
5.56816e-49
3.08394e-49
1.70555e-49
9.41857e-50
5.19363e-50
2.8597e-50
1.5723e-50
8.63212e-51
4.73222e-51
2.59047e-51
1.41599e-51
7.72877e-52
4.21238e-52
2.29253e-52
1.24586e-52
6.76077e-53
3.66347e-53
1.98226e-53
1.07102e-53
5.77841e-54
3.11309e-54
1.67474e-54
8.99658e-55
4.82593e-55
2.58499e-55
1.38265e-55
7.38484e-56
3.93864e-56
2.09762e-56
1.11554e-56
5.9241e-57
3.1415e-57
1.66353e-57
8.79635e-58
4.64467e-58
2.44899e-58
1.28944e-58
6.77946e-59
3.55936e-59
1.86608e-59
9.7695e-60
5.10737e-60
2.66628e-60
1.38995e-60
7.23567e-61
3.76134e-61
1.95251e-61
1.01211e-61
5.23905e-62
2.70809e-62
1.39786e-62
7.20528e-63
3.70875e-63
1.90632e-63
9.7848e-64
5.01533e-64
2.56707e-64
1.31211e-64
6.69718e-65
3.41356e-65
1.73747e-65
8.8312e-66
4.48247e-66
2.27201e-66
1.15e-66
5.81274e-67
2.934e-67
1.4789e-67
7.4441e-68
3.74184e-68
1.87826e-68
9.41513e-69
4.71299e-69
2.35595e-69
1.17608e-69
5.86285e-70
2.91865e-70
1.45097e-70
7.20338e-71
3.57123e-71
1.76809e-71
8.74165e-72
4.31607e-72
2.12808e-72
1.04784e-72
5.15237e-73
2.53004e-73
1.24068e-73
6.07606e-74
2.97222e-74
1.4532e-74
7.12162e-75
3.53935e-75
1.86782e-75
1.20931e-75
)
;

boundaryField
{
    sides
    {
        type            zeroGradient;
    }
    empty
    {
        type            empty;
    }
}


// ************************************************************************* //
