/*--------------------------------*- C++ -*----------------------------------*\
  =========                 |
  \\      /  F ield         | OpenFOAM: The Open Source CFD Toolbox
   \\    /   O peration     | Website:  https://openfoam.org
    \\  /    A nd           | Version:  13
     \\/     M anipulation  |
\*---------------------------------------------------------------------------*/
FoamFile
{
    format      ascii;
    class       volScalarField;
    location    "18";
    object      p;
}
// * * * * * * * * * * * * * * * * * * * * * * * * * * * * * * * * * * * * * //

dimensions      [0 2 -2 0 0 0 0];

internalField   nonuniform List<scalar> 
918
(
0.256557
0.942251
0.0174205
0.255609
2.44687e-06
0.909342
-0.810627
0.437917
0.236599
-0.403883
-0.00721678
0.225947
0.769952
0.53546
-1.43773
0.0104049
0.392551
-0.683718
0.235382
0.00340019
0.513838
0.24335
0.246319
0.236866
0.295713
0.525941
0.650391
0.00699616
-0.00220421
0.000466219
0.00542897
-0.00364125
0.00326144
0.792972
0.84407
0.866733
0.206196
0.0353716
-0.659611
-0.738898
-0.723606
-0.861892
0.425667
0.430174
-0.45772
0.441119
0.456873
0.224081
0.235878
0.236765
0.238136
0.236955
0.238391
0.154195
-0.432177
-0.456419
-0.367133
-0.315267
0.0345806
-0.0206925
-0.0401808
0.00691545
0.00682937
0.16415
0.222735
0.221649
0.231645
0.24111
0.881799
0.853697
0.879828
0.793592
0.810053
0.747898
0.720345
0.556627
0.578194
0.519964
0.508601
-1.88072
-2.85423
-0.835646
-0.575504
0.000176147
0.0147959
0.0199174
0.37886
0.387385
0.389068
0.400957
0.807892
-0.674951
-0.80418
0.235358
0.234071
0.242818
0.243449
0.239443
0.238536
0.010171
0.0157613
-0.0051701
0.000987917
4.22867e-05
0.49613
0.491805
0.237376
0.234414
0.248991
0.270944
0.259908
0.00721119
0.307074
0.329046
0.329952
0.506234
0.505392
0.512416
0.623917
0.586372
0.687696
0.711117
0.0133696
0.00379351
0.00703803
0.00588692
0.0060284
0.201947
0.194877
0.218799
0.20951
0.211753
-0.0487912
-0.184022
0.120031
0.142891
-0.566391
-0.633895
-0.737491
-0.755093
-0.892494
0.250667
0.413411
0.417019
-0.472979
-0.389743
-0.537891
-0.316245
-0.388671
0.215708
0.221863
0.217421
0.231654
0.226176
0.228189
0.240108
0.23717
0.238742
0.21822
0.3209
0.099639
0.0769773
-0.554027
-0.475241
-0.545454
-0.251332
-0.197752
0.0267556
0.0189238
0.0187331
0.0298654
-0.150767
-0.0666397
-0.109262
0.0135338
0.0129585
0.157313
0.148317
0.17284
0.179083
0.21413
0.215116
0.218786
0.216946
0.671078
0.693543
0.700956
0.674612
-3.86586
-6.68949
-0.241261
-0.0967473
0.00335617
0.00294927
0.0021352
0.00496922
0.00272591
0.00111028
0.0211587
0.0201291
0.0204414
0.0232657
0.36251
0.367527
0.728611
0.71632
0.713514
0.674621
0.223325
0.225362
0.231153
0.227004
0.018132
0.0187575
0.0187436
0.458006
0.47788
0.475615
-0.0280471
-0.11647
0.0544278
0.0809234
0.349637
0.334639
0.35177
0.394766
0.431082
0.718578
0.736868
0.735172
0.74356
0.787561
0.803936
0.769274
0.184129
0.190911
0.187358
0.222583
0.220156
0.220905
0.214863
0.21744
0.214107
-0.338109
-0.72429
0.206888
0.220417
0.186492
0.192506
0.341311
0.413636
0.394164
0.40478
0.407935
-0.252429
-0.318825
0.0322962
0.0191522
0.105873
0.137275
0.121147
0.642293
0.602542
0.652533
0.626088
0.587533
0.613798
-0.676321
-2.20667
-1.3071
0.270032
0.0746243
0.166567
0.0328029
0.0188059
0.0252388
0.686922
0.757892
0.392698
0.588504
0.57094
0.47297
0.504455
0.559426
0.48085
0.517991
0.556727
0.538238
0.203676
0.204655
0.181201
0.482051
0.539413
-0.14229
-0.190548
-0.247356
-0.00593224
0.00213509
0.00606769
0.724312
0.604416
0.686006
0.234276
0.234947
0.0144403
0.0243051
0.238858
0.238773
0.00747396
0.00748296
0.146535
-1.15059
-0.147015
0.227348
0.217912
0.234471
-0.4371
0.062351
-0.0304597
0.108018
0.0701649
0.225388
0.173622
0.140201
0.00734597
0.0180504
0.00535087
-0.513695
0.231964
0.230305
0.234086
0.235099
0.235795
0.00838569
0.0105681
0.00726355
0.00587138
0.00751929
0.00448036
0.200859
0.215159
-0.459954
0.234012
0.236294
0.236022
0.22918
0.234636
0.232888
0.0144009
0.00889276
0.00879099
-0.0414363
0.0726441
0.405316
0.51582
0.356452
0.127527
-0.118877
0.300262
0.369763
0.265748
0.434563
0.398123
0.424947
-0.0872493
-0.233895
-0.0804706
-0.137494
0.225019
0.223665
0.216237
0.214192
0.229402
0.227574
0.23197
0.229044
0.231788
0.23322
-0.44934
-0.360421
-0.440858
-0.451435
0.00989261
0.294347
-0.0773156
0.0294821
0.00372886
-0.0129728
0.00101545
-0.0534982
-0.0653568
0.00271172
0.056804
0.0860776
0.0373005
0.0631812
0.0250987
0.00555134
0.0301364
0.014143
0.220115
0.216946
0.224562
0.231469
0.181134
0.183691
0.155852
0.17136
0.160802
0.104722
0.137371
0.116192
0.00780794
0.00873091
0.00622103
0.0212336
0.0223716
0.00983442
0.00936153
0.014676
0.0103181
0.00917638
0.00867446
0.0141879
-0.477248
-0.58353
0.691316
0.642545
-0.047633
0.221081
0.227503
0.224294
0.228869
0.232144
0.232972
0.230843
0.227193
0.215776
0.217853
0.213907
0.213515
-0.404904
-0.537827
-0.356888
-0.41896
-0.158171
0.339463
0.0847891
0.0259897
0.0216708
0.231142
0.616686
0.428598
0.468445
0.495326
-0.650748
-0.247657
-0.579825
0.0361322
-0.146327
0.40476
0.457704
0.480232
0.426027
0.374281
-0.411059
0.227287
-0.331582
-0.291178
-0.10282
-0.201934
0.450913
0.382209
0.389854
0.415014
0.439632
0.390444
0.370892
0.367345
0.404061
0.408417
0.205286
-0.00887345
-0.0552077
-0.0904583
0.370515
0.245083
0.301505
0.219497
0.219599
0.222903
0.221416
0.204876
0.212042
0.207962
0.21177
0.215266
0.225173
0.224816
0.22054
0.223003
-0.294198
-0.252156
-0.429269
-0.441176
-0.45897
-0.493389
-0.414644
-0.515259
-0.644101
-0.0195889
0.0238661
-0.414681
-0.378057
-0.383634
-0.341196
-0.176868
-0.100648
-0.18873
-0.00610168
-0.169071
-0.13343
-0.00988055
-0.0196466
-0.0335854
-0.0486249
-0.119889
-0.0587505
0.058238
0.00384356
0.0165589
0.0236473
0.0165201
0.00293014
0.010127
-0.148933
-0.158219
-0.121595
-0.197657
0.0184527
0.0214859
0.0243764
0.0280288
0.0346918
0.0360362
0.212879
0.213531
0.212551
0.227527
0.238733
0.25356
0.221905
0.199663
0.192032
0.192463
0.170787
0.178107
0.175954
0.187159
0.204588
0.212153
0.209886
0.212723
0.198249
0.199632
0.187759
0.191543
0.172026
0.15476
0.144907
0.0142809
0.00932669
0.0105352
0.0114791
0.00922139
0.00998764
0.0356614
0.0307945
0.0348081
0.0273606
0.0230361
0.0163968
0.0150421
-0.389092
-0.301915
-0.485069
-0.520846
-0.583449
0.596518
0.724487
0.547092
0.300334
0.322117
0.544149
0.668563
0.278731
0.463655
0.516894
0.201645
0.500864
0.225644
0.225389
0.223463
0.222293
0.223454
-0.308646
-0.207529
-0.198019
-0.144492
-0.0271217
0.0863344
-0.0159278
-0.15137
-0.00613338
0.00717893
0.334344
0.348591
0.292536
0.319394
0.319031
0.146732
0.220359
0.276268
0.230752
0.272308
0.294166
0.259532
0.286291
0.233627
0.193607
0.192643
0.141961
0.159576
0.137047
0.120842
0.215058
0.195518
0.204749
0.197363
0.2162
0.244172
0.239092
0.261618
0.275468
0.204091
0.167085
0.175296
0.201857
0.165599
0.177315
0.190819
-0.0812094
-0.171422
-0.0950572
-0.39866
-0.304833
-0.319988
-0.366563
-0.329068
-0.0403509
-0.751501
-0.71401
-1.35239
0.16647
0.648325
0.401658
0.37133
0.43666
0.411924
0.412606
0.448288
0.45604
0.358705
0.375493
0.377549
0.33422
0.3598
0.387461
0.385484
0.208834
0.0955434
0.0819063
0.0524544
-0.0665553
-0.036576
0.163614
0.0860888
0.0167152
0.0233328
0.181205
0.077867
0.139695
0.175184
0.109389
0.0676669
0.259911
0.328524
0.31804
0.292765
0.209464
0.22235
0.245691
0.280787
0.308017
0.3406
0.213485
0.218039
0.218968
0.217178
0.214122
0.216804
0.21667
0.219409
0.22039
0.223116
0.222248
-0.1078
-0.138561
-0.208438
-0.147238
-0.518136
-0.551093
-0.580142
-0.50503
-0.206313
-0.253564
-0.400275
-0.312623
-0.238133
-0.202555
-0.356449
-0.317944
-0.320676
-0.448286
-0.0728303
0.0815344
0.185577
0.076005
-0.128182
-0.0983682
-0.0617994
-0.103119
-0.00616209
-0.00659184
-0.0467646
-0.10066
0.00442751
-0.000628867
-0.00357354
0.00236612
-0.00871501
0.00310986
0.0153288
0.0132391
0.0123848
0.0122879
0.0149821
0.202357
0.195554
0.195069
0.191181
0.190778
0.200213
0.204892
0.206514
0.211005
0.212855
0.205049
0.209583
0.212224
0.0226563
0.0201096
0.0233193
0.013467
0.01628
0.016566
0.0138119
-0.185939
-0.209887
-0.175904
-0.290847
-0.416474
-0.371465
0.151986
0.124107
0.168921
0.374549
0.2371
0.149037
0.212933
0.324157
-0.0499584
0.16724
-0.0184471
0.582255
0.458336
0.59671
0.245137
-0.0721411
0.0702344
0.126875
-0.0670542
0.00518125
0.0223099
-0.0848728
-0.0514566
-0.0224134
0.0738451
-0.0404171
-0.0650226
-0.314856
-0.140936
-0.00377736
-0.0258063
0.103168
0.164668
-0.0665495
-0.130863
-0.17639
0.322213
0.34308
0.360239
0.329283
0.354323
0.280187
0.272089
0.289569
0.300288
0.294156
-1.08708
-0.800646
-1.74064
-1.05522
-0.613921
0.192245
0.153119
0.432292
0.330789
0.413732
0.39748
0.361538
0.324702
0.33061
0.367829
0.0777694
0.183291
0.159875
0.163515
0.070925
0.00790305
0.293929
0.288191
0.323229
0.347818
0.316975
0.34941
0.210439
0.209774
0.210893
0.207377
0.207201
0.208328
-0.334665
-0.294664
-0.409292
-0.439277
-0.494981
-0.452137
0.0290582
0.0162633
0.0150904
0.0166367
0.0289524
0.0302075
-0.160172
-0.207576
-0.27093
-0.250323
-0.307404
-0.369517
-0.388118
-0.290546
-0.213117
-0.21525
0.111297
0.370524
0.192361
0.371752
0.235165
0.281888
0.173829
0.168048
0.202538
0.0665164
0.134511
-0.127133
-0.614949
-0.527176
0.445521
0.46545
0.247052
0.0480808
-0.171836
0.0277951
0.242721
0.183826
0.224059
0.290463
0.283246
-0.321157
-0.241342
-0.0179118
0.213707
-0.0763406
-0.0904979
-0.0930088
0.0693314
0.0023738
)
;

boundaryField
{
    wall-4
    {
        type            zeroGradient;
    }
    velocity-inlet-5
    {
        type            zeroGradient;
    }
    velocity-inlet-6
    {
        type            zeroGradient;
    }
    pressure-outlet-7
    {
        type            fixedValue;
        value           uniform 0;
    }
    wall-8
    {
        type            zeroGradient;
    }
    frontAndBackPlanes
    {
        type            empty;
    }
}


// ************************************************************************* //
