/*--------------------------------*- C++ -*----------------------------------*\
  =========                 |
  \\      /  F ield         | OpenFOAM: The Open Source CFD Toolbox
   \\    /   O peration     | Website:  https://openfoam.org
    \\  /    A nd           | Version:  13
     \\/     M anipulation  |
\*---------------------------------------------------------------------------*/
FoamFile
{
    format      ascii;
    class       surfaceScalarField;
    location    "18";
    object      phi;
}
// * * * * * * * * * * * * * * * * * * * * * * * * * * * * * * * * * * * * * //

dimensions      [0 3 -1 0 0 0 0];

internalField   nonuniform List<scalar> 
1300
(
3.75095
5.62643
-6.0571
3.75095
-5.90575
5.62643
-4.55498
4.55498
-1.32178
1.32178
1.87668
1.87428
-2.80423
2.80423
-4.28498
4.28498
-2.70562
2.70562
-5.2464
5.2464
-5.06776
5.06776
4.68509
-4.68509
-4.81565
4.81565
-1.79181
1.79181
-3.7747
3.7747
3.1709
-3.1709
-4.71666
4.71666
-0.459006
0.459006
-0.553315
4.30427
3.19764
3.19764
-2.4181
2.4181
-4.85204
4.85204
6.21819
-6.21819
9.1845
-9.1845
-3.12741
-3.41937
1.32009
-8.1875
-4.58566
-4.58566
-8.44041
8.44041
-2.81398
2.81245
2.93294
-2.93294
-1.75186
1.75186
-4.50986
-0.0451157
-4.50986
4.52958
0.0253933
4.52958
-1.42282
0.101038
-1.42282
4.03755
-4.03755
1.16864
0.153139
1.16864
3.06423
-3.06423
-1.87709
3.75377
1.87387
-1.87159
6.17586
-1.87936
3.75364
-5.46961
5.46961
-2.95828
0.154052
-2.95828
2.91281
-0.108577
2.91281
-5.3184
5.3184
-4.06303
-0.221956
-4.06303
4.43863
-0.153642
4.43863
2.92984
-2.92984
-2.73895
0.0333298
-2.73895
2.65313
0.0524844
2.65313
0.353574
5.27286
-5.98
8.79245
-5.27286
0.0264612
5.20846
0.0379339
5.20846
-5.10601
0.0382466
-5.10601
5.01051
0.057253
5.01051
4.77884
-0.0937489
4.77884
-4.79843
0.113343
-4.79843
-3.33309
-3.4499
-4.90776
0.0921173
-4.90776
-1.78713
-0.00467394
-1.78713
1.73201
0.0597922
1.73201
-3.5426
3.5426
-4.24458
0.469876
-4.24458
3.12631
0.0445927
3.12631
1.86869
1.88226
5.61965
-5.61965
2.44874
-4.6467
-0.0699632
-4.6467
-4.81499
-4.36951
4.81499
-0.0983329
-0.773975
0.314969
-0.773975
3.15948
0.0381563
3.15948
2.57714
0.0759967
-2.57714
0.159032
3.37025
-3.37025
1.78188
0.636224
1.78188
-5.57174
5.57174
4.94906
0.0614404
-4.94907
0.0970294
6.15712
0.0610727
6.15712
-6.19959
-0.0186046
-6.19959
3.35326
-6.77264
-3.4376
4.70587
0.109778
-4.70587
0.120206
2.89656
0.0363739
2.89656
-2.91666
2.91666
-2.98198
0.0490449
-2.98198
-2.16768
0.41582
-2.16768
1.43328
0.318579
1.43328
-4.37912
-0.130737
-4.37912
-4.43022
0.185641
4.43022
0.099365
0.906137
-0.906137
-1.54935
0.126527
-1.54935
-4.19425
-0.184873
4.19425
-0.156699
-3.92023
-0.117323
-3.92023
-3.02385
0.0418663
3.02385
0.0403821
3.11203
0.0474496
-3.11203
0.0478016
-1.87082
3.75308
-1.88013
3.754
-5.30254
-0.167066
-5.30254
5.46431
0.00530185
5.46431
3.38021
0.394495
-3.38021
0.421923
3.29882
-0.386016
3.29882
-5.29474
-0.0236666
-5.29474
5.25519
0.0632175
5.25519
3.72054
-0.421713
-3.72054
-0.342491
4.52613
-0.0875033
4.52613
2.9856
-0.0557534
2.9856
-2.88841
-0.0414325
-2.88841
2.79065
-2.79065
2.75472
0.035925
-2.75472
0.0157763
-11.1326
11.114
-0.0349219
-11.0977
5.17354
5.17354
4.20238
0.576452
4.20238
-5.00921
0.210782
-5.00921
3.31706
-6.75466
3.43792
-6.77101
3.44477
-11.6323
3.3627
-6.81259
5.08213
-5.08213
4.988
0.0941315
-4.988
0.0802381
-1.78994
0.00280876
-1.78994
-2.86807
-0.674533
-2.86807
4.18695
-0.644351
4.18695
-3.03332
3.03332
-3.08156
0.0482398
3.08156
0.0447532
4.5872
-0.0610692
-4.5872
-0.0594995
0.985032
0.18361
-0.985032
0.211057
3.57281
-0.202554
3.57281
-3.18304
-0.187217
-3.18304
-1.79125
0.00131135
1.79125
-0.00937248
-5.81737
0.245633
-5.81737
-11.1908
0.0930857
-11.1528
-6.1065
-6.1065
2.33391
11.1264
-2.87314
-0.0152661
2.87314
0.0234191
2.97737
0.0559439
-2.97737
0.060713
-2.85319
0.0625458
2.85319
0.0634679
-2.55604
0.388363
-2.55604
-1.01278
1.01278
-1.20143
0.188651
1.20143
0.231849
1.16645
-0.260318
1.16645
1.65437
0.0776474
-1.65437
0.10502
-3.82218
-0.0980508
-3.82218
5.33511
0.1292
5.33511
-3.06197
-0.121063
3.06197
-0.0763784
-0.0333141
11.1473
-5.14023
0.0342204
5.14023
-11.2084
11.2426
-3.23955
0.683507
3.23955
0.962837
5.29614
0.275602
-5.29614
0.286928
5.18629
0.0688971
-5.18629
0.104157
-2.3466
-0.521461
-2.3466
-4.86903
-0.433517
4.86903
-0.682079
-11.4752
-0.202671
11.6778
-11.4179
6.02005
0.137074
-6.02005
11.3797
-0.875151
-0.0309863
0.875151
0.137625
1.47534
-0.308889
1.47534
3.73347
-0.16066
-3.73347
-0.0887089
-5.29033
-0.00441171
5.29033
0.0447829
-1.89692
-0.449682
1.89692
-0.421578
-4.26638
4.30453
1.90948
-3.305
-3.46764
-7.67451
1.85157
1.90152
4.30031
-7.19492
-4.43736
-7.07471
7.27477
-6.98785
-9.30717
9.21342
7.47374
-7.59106
-5.78222
5.82697
6.48195
-6.44157
1.87832
1.87545
6.30492
-6.15087
-16.1898
16.0227
8.96712
-9.18907
12.5925
-12.6161
-13.3694
13.4383
-5.76115
5.79448
-6.64082
6.59938
-6.80938
6.733
-3.26381
-3.5072
9.32008
-9.22796
11.6794
-11.7494
-8.25153
8.72141
3.38258
0.92195
3.43003
-1.88205
3.76037
-1.87159
3.78107
3.45236
-6.71617
3.3023
-6.76994
6.07497
5.60443
-5.97664
-1.69787
-5.86451
5.90088
-5.81935
5.88281
8.97495
-9.02006
-1.8864
3.76185
-1.86759
3.76911
-3.4245
-2.35772
3.37991
0.920405
5.69629
3.62379
-5.80607
-1.26864
-7.6827
7.52204
-7.98003
7.79282
-0.455974
5.82567
-5.3697
4.39606
-1.55328
7.37895
5.7215
5.93228
5.86889
-5.59329
1.11895
-6.48865
-6.39162
-2.60666
2.73319
2.64525
-2.49211
5.89164
1.58209
5.73494
-5.48651
-2.10455
-5.58456
3.81721
2.00977
3.86545
4.07363
2.40832
4.11549
3.02916
-3.03645
0.00729625
-3.05719
6.08635
0.725395
-5.41491
-4.49451
3.921
2.38392
3.81242
-4.7033
-1.44757
-4.28138
-9.83725
-6.35254
-10.2708
10.1144
5.90827
10.1197
-10.8335
10.8783
6.31287
2.65425
6.15922
-5.37586
-3.81322
-5.71835
10.912
-1.32448
-9.58752
-7.86395
-5.50548
7.80073
4.79175
7.98295
5.45537
8.08711
3.31193
7.60007
-8.10368
2.5982
-3.84945
-1.9117
-3.83367
3.74298
2.0515
3.79546
-4.13448
-2.50634
-4.14974
-4.19467
-2.61471
4.25043
2.34896
-4.29655
-3.68348
4.41761
2.31539
3.15803
-7.59539
3.65456
-7.16177
-6.53349
-2.69447
-6.45325
4.23174
2.58998
-6.82173
-2.48442
10.9522
-5.3478
9.25436
-7.19222
-4.55715
-7.25172
-6.74877
-1.50276
-6.56313
-8.75312
8.23166
-9.10735
8.463
12.7224
-5.85722
-6.8652
-3.9698
-2.47177
3.922
-0.491964
-3.71071
3.71801
0.0496596
3.83073
4.75268
4.26072
-3.88936
-1.92999
-3.82865
3.8294
2.05342
3.89194
6.76103
2.21391
6.78643
-6.40438
-2.61569
-6.53511
9.07594
-8.66012
2.95978
-2.95847
5.21308
2.57974
-5.01052
-2.67218
6.0181
-3.03514
-2.98295
-12.2259
10.6013
1.62465
-4.847
-0.450934
0.00807191
-5.51636
-3.79081
5.40301
0.529265
11.1306
7.33975
-5.51516
5.76079
6.16268
6.22412
-0.167501
5.8468
-5.16329
5.2134
-2.23483
-2.97857
5.25331
-5.43818
-1.2818
-5.22985
3.94805
0.296763
1.9024
-1.58743
-2.07552
-0.531138
-1.9705
1.61964
1.02561
1.80325
0.954735
1.77845
-2.99566
0.612615
2.38305
-2.04093
-1.87949
-3.5344
-0.941433
4.47584
5.47476
2.04728
-5.38605
-0.198513
2.74116
-2.68136
-0.71193
-2.82247
2.1236
-2.83553
-3.51671
-1.84556
5.36227
-3.36895
-0.459693
3.31301
0.552435
-3.81205
-2.05246
3.763
0.352489
-3.13637
6.23098
-3.09461
-5.06636
2.52955
3.5568
4.53932
-4.78938
2.44182
2.34755
-1.23258
3.9502
-0.13778
3.56419
-5.80203
4.35446
5.28512
3.43629
-5.67962
1.39824
-4.40379
9.27078
-8.41627
-0.854512
4.63031
4.64048
7.38439
5.33803
-5.68561
13.07
-2.48902
-5.92725
6.89281
-3.45652
5.50273
-8.95926
-10.8408
4.91351
-11.1661
10.9227
0.243302
-2.58303
-8.25048
13.7491
-1.99846
-11.7506
8.12128
-6.25863
-4.17973
10.4384
-7.58311
7.99294
-3.69855
-4.29439
-8.46905
-4.1471
8.47346
2.40484
-9.54112
12.1393
-1.94105
5.65218
0.507039
5.56468
5.26879
-5.67582
0.407029
2.31433
-6.01288
4.601
-10.2768
-5.08822
9.81203
-4.72381
-7.78269
-7.11325
-0.669439
1.82872
10.3106
-7.28409
5.38526
1.89883
3.32833
0.563618
-3.36425
-0.469418
0.353202
4.47265
-4.82585
4.14866
4.22466
3.3946
1.07804
3.78891
2.11197
-3.81233
-0.337411
-4.08133
1.46662
-1.73237
-3.5969
5.06353
-4.02487
0.427962
-2.68378
-3.53729
6.22107
-4.59548
3.0706
3.16038
5.12402
-4.92435
1.38706
-2.42956
-2.49479
2.63781
-4.37018
1.93406
3.12947
4.24945
0.565966
5.02408
4.78795
-7.61406
0.45229
8.41174
-7.1431
1.93154
6.15557
-7.3168
0.203551
-6.2497
1.05316
-6.40096
-5.76856
5.36411
-6.86688
-3.59514
6.10158
0.684843
-6.20095
-0.362182
-5.90588
-2.84723
-6.35557
-3.13392
-5.97343
-8.81953
-1.58369
-7.23584
6.64796
-6.68929
-3.58147
7.37137
1.09162
-7.35493
7.32395
-7.3934
7.08451
0.0944624
3.62354
4.35518
1.88341
-2.39096
4.27437
-4.99222
7.20613
-8.45179
3.45957
3.94493
-6.56061
-4.50686
5.01446
4.06147
5.33304
9.04379
-10.5672
1.52345
-10.9667
12.2127
-1.24607
-16.751
5.78438
-7.70726
2.69861
0.261168
2.70142
0.6654
2.41153
-3.07693
-2.29307
-2.30244
-2.24822
-3.29877
5.54698
1.08721
-3.32511
2.2379
-3.42391
4.51112
-0.0885286
-3.23658
5.21883
-2.8073
5.48
-3.51244
1.96756
3.2108
5.4848
-2.274
4.22272
-1.64297
1.74823
-4.02223
-1.55054
-2.99656
5.04807
-3.2245
3.65246
-0.22222
3.87468
-4.0115
0.976358
-0.616896
3.60776
3.76679
4.13239
-3.05435
2.87279
-4.51577
-1.14944
-3.9498
-0.820336
-0.325935
-3.70112
4.02706
6.07835
-6.40428
-5.30151
9.59845
-4.29693
7.72647
-5.4324
-2.29407
-4.27529
-4.38482
3.88693
1.95987
9.68634
0.196485
-5.62888
-4.96681
-4.00397
3.20018
2.01322
-2.08133
3.70598
2.07326
-0.170862
0.60727
1.19598
1.92274
-1.31547
0.180392
1.74234
-1.40703
1.98732
0.753833
-2.06497
0.0944672
-1.31166
3.43526
1.07138
-2.09699
0.781526
1.12622
-3.36106
4.66626
-2.34898
-2.31728
5.79248
1.17752
-3.5265
4.05233
-3.75557
2.28812
-3.22955
-1.23838
-4.99394
-3.41185
-2.43981
4.67771
-3.10717
5.15445
1.161
-4.95594
6.11694
-3.52287
1.67732
-2.9712
3.72503
-0.98825
-1.98295
2.7405
2.62177
-2.82972
0.00724689
-0.0892235
2.32058
-2.40981
-0.514944
-2.55587
-4.56045
4.91294
-2.12224
4.56407
2.15213
-1.91325
6.47732
1.81408
-3.72733
-3.25228
-3.71197
-1.37978
3.15954
-1.72342
-3.99493
-6.01781
4.41664
-0.852452
-6.31809
8.41992
-2.10183
-3.93417
-0.420292
5.0506
-7.90088
1.888
-3.29988
5.12004
4.98226
4.12981
-12.6538
0.903179
-6.74553
1.5411
-8.28662
6.18157
-3.3195
8.23302
-10.8421
7.26065
-9.7505
7.37851
-0.908118
5.78963
-5.3826
3.79789
-7.94499
-5.54015
6.69077
-4.03651
7.19781
-4.4608
11.6586
-6.40185
7.03623
4.62237
-1.50076
-5.75096
-6.78889
5.28813
0.247345
5.81203
4.95425
-2.84229
4.61684
2.25968
-4.68923
-2.11051
-6.56128
1.87205
-3.40091
-1.91704
3.78909
3.20698
3.7706
1.2943
-3.30118
6.95932
-7.62876
-2.23551
-3.53306
6.77464
-1.48651
4.18348
-7.71653
-2.21749
5.00258
-1.02644
-3.97614
0.854639
-4.44978
1.68662
-6.1364
5.18026
-5.54244
2.17365
-9.8809
-5.18129
-5.04366
-2.23191
-5.16149
-7.68652
5.45461
-1.90214
5.42181
-8.73464
7.7082
-3.47809
8.9327
-5.32257
-1.03299
5.74415
1.34036
10.2731
0.100883
-4.60774
-1.77236
3.88355
-2.11119
1.42782
-3.60024
0.283313
2.47131
3.32118
-6.41936
-0.141253
-4.749
-3.90636
7.96783
5.69209
11.7704
1.20319
9.18229
-1.21446
10.3855
4.11858
4.35043
-3.04225
4.56571
0.984802
4.44437
-0.826028
2.79359
1.87539
1.87072
0.810644
2.29893
1.46786
3.27529
0.198356
-2.10409
4.66554
-8.66951
-0.963346
-8.09306
1.12036
5.75604
-4.63567
3.11807
-1.10485
1.00688
0.21092
-1.81811
1.60719
-2.76765
-1.98897
-0.246631
-1.57308
2.3546
1.86218
-2.10797
-0.659679
0.30366
-3.71551
2.92589
-2.91865
-0.296879
5.82006
-2.72356
0.313757
-1.04625
-2.24211
-2.77325
2.67878
6.21167
0.265646
3.11707
5.17859
3.12613
0.283841
7.06635
-6.82305
-3.21046
-5.91987
0.261701
5.3123
2.39788
7.91272
7.02025
5.53374
-2.18279
-9.81155
6.53233
-1.96663
5.28627
-1.31013
-4.82627
4.89735
2.30878
-5.58219
0.0397491
-4.78652
-6.75315
-0.631574
8.33978
-9.64149
8.6085
5.76126
1.47458
-4.36443
-0.679234
4.17578
0.174659
10.5601
-1.14403
-6.9124
8.05643
-4.61201
3.64866
0.903532
2.80244
2.51072
1.40587
-5.50652
-10.1422
-1.76674
-1.59432
-4.08402
0.391813
-2.254
6.27571
-2.62705
3.98164
5.42938
6.43626
-2.21034
-4.19394
6.50727
-2.52563
3.91063
)
;

boundaryField
{
    wall-4
    {
        type            calculated;
        value           uniform 0;
    }
    velocity-inlet-5
    {
        type            calculated;
        value           uniform -3.75095;
    }
    velocity-inlet-6
    {
        type            calculated;
        value           uniform -5.62643;
    }
    pressure-outlet-7
    {
        type            calculated;
        value           nonuniform List<scalar> 8(6.0571 5.90575 6.54678 6.86742 6.78299 6.79087 6.75498 6.80747);
    }
    wall-8
    {
        type            calculated;
        value           uniform 0;
    }
    frontAndBackPlanes
    {
        type            empty;
    }
}


// ************************************************************************* //
