/*--------------------------------*- C++ -*----------------------------------*\
  =========                 |
  \\      /  F ield         | OpenFOAM: The Open Source CFD Toolbox
   \\    /   O peration     | Website:  https://openfoam.org
    \\  /    A nd           | Version:  13
     \\/     M anipulation  |
\*---------------------------------------------------------------------------*/
FoamFile
{
    format      ascii;
    class       volVectorField;
    location    "18";
    object      U;
}
// * * * * * * * * * * * * * * * * * * * * * * * * * * * * * * * * * * * * * //

dimensions      [0 1 -1 0 0 0 0];

internalField   nonuniform List<vector> 
918
(
(0.985148 -0.000523547 0)
(0.00500253 2.96626 0)
(-0.00603378 1.61405 0)
(0.979702 0.00214136 0)
(-0.00380514 1.57438 2.50404e-21)
(-0.00703308 2.94878 -1.93302e-18)
(0.854135 1.20544 7.11982e-19)
(0.449988 0.207109 -9.5904e-21)
(0.999909 -0.000313221 0)
(0.023811 0.822006 0)
(-0.0141511 1.23866 0)
(0.787922 -0.00860315 0)
(0.0111305 2.93031 0)
(0.00183886 2.79469 0)
(-0.0181585 3.1691 1.0646e-18)
(-0.0051556 1.48229 -1.17673e-20)
(0.568376 0.0967445 6.05562e-19)
(0.188003 1.16818 6.17369e-19)
(0.963079 0.00505847 0)
(-0.00373763 1.36802 0)
(0.148974 0.259106 -5.08403e-19)
(1.00196 -0.00501125 0)
(1.00026 -0.00972372 0)
(0.9758 -0.00647255 0)
(0.703595 -0.0321828 0)
(0.0181073 2.63049 0)
(-0.0151217 2.91018 6.73499e-19)
(-0.0207627 1.62883 0)
(-0.0209606 1.74566 0)
(-0.0193819 1.62348 0)
(-0.00578519 1.83078 0)
(-0.00228193 1.59749 -1.98102e-21)
(-0.00462836 1.48699 0)
(-0.020616 2.98759 -6.78601e-23)
(-0.0167029 3.00531 1.50251e-18)
(0.00210694 3.00021 0)
(0.86751 -0.00851921 0)
(0.390951 0.927155 -1.32768e-20)
(0.8423 1.21805 -9.86617e-19)
(0.991903 1.06056 9.3368e-19)
(0.70813 1.31145 -1.65324e-19)
(0.702017 1.2939 9.25926e-19)
(0.476809 0.280895 9.35726e-21)
(0.467466 0.186166 0)
(1.17371 0.568018 0)
(0.450008 0.304301 4.39874e-20)
(0.410219 0.206366 -4.56446e-20)
(0.919643 -0.00751179 0)
(1.00035 8.51484e-05 0)
(0.999915 0.000316542 0)
(1.00342 -0.00777255 0)
(1.00095 -0.00106674 0)
(1.00018 -1.30197e-05 0)
(0.040026 1.68688 -3.06461e-19)
(0.0359563 0.920036 0)
(0.0664427 0.851637 0)
(-0.0174147 0.914502 0)
(-0.0166915 0.850993 0)
(0.0143484 1.57232 0)
(-0.0235876 1.36204 0)
(-0.0318636 1.18168 0)
(-0.0124075 1.43018 0)
(-0.00795777 1.27611 0)
(0.865234 -0.000614416 0)
(0.878305 0.009687 0)
(0.799814 -0.00356304 0)
(0.871406 0.0149981 0)
(0.772307 -0.00955742 0)
(0.0147028 3.00039 7.08834e-19)
(0.0115291 3.00792 0)
(0.00613301 3.00284 0)
(0.0135586 2.99734 7.92248e-24)
(0.00798856 2.95845 -1.0535e-18)
(0.0144942 2.98203 0)
(0.010792 2.90363 0)
(0.0251529 2.93008 1.44276e-24)
(0.00408304 2.82521 0)
(0.0321031 2.91532 0)
(-0.0066365 2.74445 0)
(0.310607 3.56842 0)
(-0.132567 3.65076 0)
(0.140451 3.2597 -9.9077e-19)
(-0.0109061 2.99207 0)
(-0.0153009 1.8084 0)
(-0.00207155 1.62808 1.16083e-20)
(-0.00379339 1.49122 -1.84288e-20)
(0.620616 0.15575 -2.08612e-19)
(0.568808 0.0532438 -2.04699e-19)
(0.596331 0.193087 -6.28908e-19)
(0.542696 0.123165 -4.17534e-19)
(0.243861 0.924659 0)
(0.279988 1.32349 -6.33126e-19)
(0.388347 1.2863 1.04163e-18)
(0.987721 0.00847119 0)
(0.943104 0.00604041 0)
(1.0003 0.000544797 0)
(1.00289 0.00927185 0)
(1.00303 0.00837759 -1.21491e-18)
(0.992 0.00975756 9.17312e-19)
(-0.0164222 1.51587 0)
(-0.00512721 1.35382 0)
(-0.0298486 1.6329 0)
(-0.0228976 1.5531 0)
(-0.00440858 1.4064 0)
(0.222302 0.276518 1.56711e-19)
(0.271267 0.255068 0)
(0.993594 -0.00824396 0)
(0.95443 -0.00656397 0)
(0.84334 0.0211343 0)
(0.809983 0.0338214 0)
(0.751707 -0.0228448 0)
(1.0052 -0.00548148 0)
(0.754529 0.0508882 0)
(0.617877 -0.014206 8.18418e-19)
(-0.0351315 2.8669 3.60123e-19)
(0.0434359 2.90817 0)
(0.0572307 2.88269 0)
(-0.00521037 2.69617 0)
(-0.0130303 2.9852 6.2131e-19)
(-0.0183328 2.89549 0)
(-0.0154159 2.98811 -1.96083e-18)
(-0.013395 2.92522 6.76652e-19)
(-0.0187327 1.81433 0)
(-0.0143743 1.81046 0)
(-0.0026821 1.62516 -2.36254e-22)
(-0.00190862 1.59627 0)
(-0.00596586 1.48587 0)
(0.932072 -0.00547494 0)
(0.85213 -0.00831664 0)
(0.86179 0.00910239 0)
(0.947041 -0.00666537 0)
(0.884514 -0.00735821 0)
(0.504835 1.12223 6.49776e-21)
(0.556832 1.17777 0)
(0.350016 0.86463 6.90566e-21)
(0.293299 0.72751 0)
(0.952106 1.09497 -2.68637e-19)
(1.06552 0.89633 5.47809e-19)
(0.401629 1.39419 0)
(0.556733 1.37058 0)
(0.563272 1.32084 0)
(0.0918568 0.134419 -1.36983e-19)
(0.511322 0.26392 0)
(0.49624 0.165909 1.19593e-19)
(1.03422 0.94706 0)
(1.09961 0.789119 0)
(1.12601 0.73247 -4.71923e-19)
(1.15306 0.626349 0)
(1.20463 0.407423 5.90747e-20)
(0.956769 -0.00830064 0)
(0.961975 -0.00969946 0)
(0.901503 -0.00799017 0)
(0.984239 -0.00908688 0)
(0.974707 -0.0094759 0)
(0.936736 -0.00620441 0)
(1.00012 0.00226697 0)
(1.00091 0.0014522 0)
(0.999892 0.000857513 0)
(-0.0267029 1.93601 1.8617e-19)
(0.0860389 1.64051 0)
(0.0103681 1.90974 2.09093e-19)
(0.0108657 1.66193 -1.35066e-19)
(0.112426 1.17281 -5.11801e-19)
(0.0737469 1.01949 0)
(0.129399 0.99923 0)
(-0.0571714 1.00044 0)
(-0.0487184 0.957914 0)
(0.0410274 1.73756 -7.54336e-22)
(0.0100913 1.57362 0)
(0.0110975 1.72627 -2.11598e-20)
(-0.00704842 1.56523 4.83401e-20)
(-0.0574635 1.14045 0)
(-0.0448996 1.26943 0)
(-0.044392 1.08391 0)
(-0.0100505 1.47577 0)
(-0.00580481 1.29866 0)
(0.948165 0.0148803 0)
(0.887236 0.00121467 0)
(0.92889 0.00938053 0)
(0.853228 -0.000915512 0)
(0.810012 0.00261238 0)
(0.902292 0.00828093 0)
(0.89083 0.00460151 0)
(0.799408 -0.00270144 0)
(0.00582708 3.06473 -6.27997e-21)
(0.0163247 3.05803 0)
(0.0146474 2.96916 0)
(0.00849216 2.87639 0)
(0.927684 3.98749 0)
(1.24306 3.31584 1.0093e-18)
(0.0715129 3.08443 0)
(-0.0262975 2.91211 0)
(-0.0183489 1.79937 0)
(-0.0191939 1.80364 0)
(-0.0167744 1.80084 0)
(-0.00973409 1.8185 5.33402e-21)
(-0.0145085 1.81661 0)
(-0.0126132 1.81489 0)
(-0.00420627 1.50496 -5.76832e-22)
(1.79066e-05 1.66528 1.8009e-20)
(0.000525794 1.64476 1.88399e-20)
(-0.00308652 1.48996 0)
(0.643369 0.117588 3.07814e-19)
(0.580075 0.0250214 -2.99683e-19)
(0.243898 1.5164 0)
(0.278033 0.683232 -2.24205e-19)
(0.169134 1.64234 -7.63816e-19)
(0.186631 1.17481 7.65076e-19)
(0.904328 0.00796914 0)
(0.968271 0.0109847 0)
(0.974999 0.0104809 0)
(0.925309 0.0068321 0)
(-0.0123572 1.49792 0)
(-0.0139418 1.50503 0)
(-0.00600965 1.3225 0)
(0.407875 0.313337 4.06247e-19)
(0.345385 0.294554 -4.95e-19)
(0.354374 0.228931 0)
(1.12614 0.0832337 -7.54152e-22)
(1.11158 0.0378874 0)
(1.04052 0.0362577 0)
(0.94897 0.00631414 0)
(0.663884 0.0903683 0)
(0.694539 0.0641673 -1.31754e-18)
(0.594998 0.0100588 5.02904e-19)
(0.00989402 2.98211 4.47387e-19)
(-0.0325454 2.86759 4.69652e-20)
(0.00383005 3.05022 -1.35344e-20)
(0.0199525 3.0435 4.86164e-19)
(-0.0150046 2.99655 2.24653e-20)
(-0.0130014 2.94943 -9.08532e-23)
(-0.0173002 3.01199 -4.24542e-19)
(0.0148314 3.02396 3.07175e-19)
(0.00732067 3.03682 -4.81096e-19)
(0.925926 0.00564825 0)
(0.930057 -0.00043417 0)
(0.843349 -0.00493452 0)
(0.957119 0.0126355 0)
(0.943396 0.0132283 0)
(0.88267 0.00816034 0)
(0.915373 0.0125594 0)
(0.925984 0.0145516 0)
(0.834855 0.00772154 0)
(0.71345 1.40776 3.04137e-19)
(0.749313 1.5196 0)
(0.220863 0.370167 2.92348e-20)
(0.171955 0.573244 2.36203e-19)
(0.259771 0.684988 -1.33362e-19)
(0.223501 0.571308 2.47827e-19)
(0.283927 0.675987 7.7862e-19)
(0.110275 0.171067 2.21262e-19)
(0.569628 0.221522 4.49026e-19)
(0.539747 0.245369 1.11563e-19)
(0.520962 0.149273 2.25993e-19)
(1.19305 0.463853 2.72024e-19)
(1.20877 0.257402 2.84957e-19)
(0.00368618 1.8412 5.09674e-20)
(-0.00301135 1.60061 0)
(0.99208 0.0269654 0)
(0.960405 0.0175526 0)
(0.91107 -0.00105224 0)
(0.0111203 3.07486 0)
(0.0201239 2.94415 8.41182e-19)
(0.0165399 2.95656 0)
(0.00600262 2.85072 -8.34546e-19)
(0.00605167 3.09161 2.00158e-19)
(0.00721889 3.08212 0)
(0.783081 1.82537 -2.32696e-19)
(1.24985 2.51089 6.37087e-19)
(0.7659 1.96742 -1.47362e-18)
(0.021328 2.98531 -3.33712e-19)
(0.0372989 3.00845 0)
(-0.032029 2.88314 0)
(0.00302243 1.69094 -1.85655e-21)
(-0.000817442 1.68603 -3.68751e-20)
(-0.00162153 1.53441 -6.07441e-21)
(0.257956 1.3169 7.12004e-19)
(0.240414 0.447721 -4.89477e-19)
(0.0110133 1.91764 5.02384e-19)
(0.111172 1.82974 -6.45227e-19)
(0.142981 1.43528 1.05686e-19)
(0.00396438 3.11894 -1.18357e-18)
(0.0122296 3.1192 1.29714e-18)
(-0.00859849 2.98117 5.42197e-19)
(-0.00365726 2.97797 -4.81474e-19)
(-0.0214578 2.88184 -5.52218e-19)
(0.00866539 3.10002 -1.47069e-18)
(0.00223376 3.10472 1.4661e-18)
(0.222056 0.5937 0)
(0.154231 0.574704 -4.50255e-19)
(0.128878 0.191874 1.98977e-19)
(0.319153 0.805258 6.64759e-19)
(0.170385 0.214033 -1.01922e-18)
(1.20719 0.170331 -4.5613e-20)
(1.20867 0.309321 0)
(1.19481 0.118472 1.09698e-19)
(0.0445862 1.75219 -6.08023e-23)
(0.0394266 1.77455 0)
(0.0290038 1.57957 0)
(0.309949 1.19719 -2.59896e-19)
(0.347462 1.01476 -5.41419e-19)
(0.193849 0.311885 9.31877e-19)
(1.00583 -0.0110874 0)
(1.00764 -0.00770107 2.22379e-19)
(-0.0194129 1.80137 0)
(-0.0295434 1.80906 0)
(1.00217 0.00347666 1.68583e-21)
(1.00387 0.00949706 4.56499e-19)
(-0.00955001 1.82277 -7.10143e-21)
(-0.00738707 1.82182 0)
(0.0399171 3.18497 1.37532e-19)
(0.40053 3.50501 0)
(1.10873 0.644255 5.06783e-20)
(1.01227 0.0125166 -2.21922e-21)
(1.0214 -0.0105247 0)
(1.00169 7.45524e-05 -3.91713e-23)
(0.0511799 1.0977 0)
(0.0943534 2.68901 0)
(-0.128329 1.59276 0)
(-0.0889091 2.07834 7.02463e-20)
(-0.0644105 1.93202 5.05676e-20)
(1.0048 0.00954455 2.34713e-21)
(1.04581 0.0157363 0)
(1.07038 0.0286427 0)
(-0.021283 1.806 0)
(-0.0100897 1.8401 0)
(-0.0254839 1.78874 0)
(0.321965 1.42093 -4.35468e-19)
(1.01115 -0.00958364 0)
(1.00946 -0.0155382 0)
(1.0023 0.000436909 2.80634e-19)
(1.00553 -0.00492605 -3.348e-19)
(1.00121 -0.00106882 0)
(-0.0237474 1.80164 0)
(-0.0218899 1.79787 0)
(-0.021349 1.80118 0)
(-0.0269421 1.78855 0)
(-0.0265592 1.78841 0)
(-0.0283608 1.78996 0)
(1.02801 -0.0154707 0)
(1.02066 0.0189317 -9.86107e-22)
(0.789298 1.26697 5.02092e-19)
(1.00301 0.000234899 -2.84141e-19)
(1.00318 0.00572767 3.39536e-19)
(1.00128 0.00215414 0)
(1.01276 0.0105805 2.7677e-19)
(1.00796 0.00823463 -3.42477e-19)
(1.00873 0.0142403 0)
(-0.0101908 1.83984 0)
(-0.00980702 1.83181 1.10942e-20)
(-0.00747255 1.83064 -7.84623e-21)
(1.18506 0.250662 -6.75217e-21)
(1.12434 0.0867647 0)
(0.0548588 3.07821 -5.56953e-19)
(0.0688922 2.85063 -4.42428e-20)
(0.148424 3.19844 8.58671e-19)
(0.142102 3.22727 -1.82312e-20)
(0.140604 3.24495 0)
(0.0218362 3.13897 1.2371e-19)
(0.081405 3.16256 5.44259e-19)
(0.0738686 3.19038 -2.38248e-19)
(0.0261787 3.12825 0)
(0.677731 0.327321 0)
(0.624678 0.377986 0)
(1.08326 0.672661 -2.05456e-19)
(1.07921 0.811158 3.29665e-19)
(1.14394 0.561657 0)
(1.17526 0.509404 0)
(1.01559 0.013153 -5.11978e-19)
(1.01376 0.0139338 6.39915e-19)
(1.02499 -0.00960919 0)
(1.02208 -0.0134073 0)
(1.00657 0.00294912 0)
(1.01034 0.00382057 0)
(1.00477 0.00175327 0)
(1.00954 0.00578073 0)
(1.00809 0.00569592 0)
(1.00506 0.00503511 0)
(0.0355253 1.09553 0)
(-0.041451 0.995701 0)
(0.168736 1.13067 0)
(0.151399 1.17557 0)
(0.0926794 2.69383 0)
(0.16287 2.70598 -2.17326e-19)
(-0.0280239 2.74221 0)
(-0.0927032 2.67665 5.03819e-21)
(-0.137515 2.41641 -4.45308e-21)
(-0.103938 1.6118 0)
(-0.0783892 1.64479 0)
(-0.159514 1.5403 0)
(-0.141461 1.44823 0)
(-0.272836 1.96982 -3.73869e-21)
(-0.0836842 1.97367 4.11645e-20)
(-0.0836656 2.07083 4.81147e-20)
(-0.0603637 2.02421 0)
(-0.0614081 1.93075 -1.04082e-19)
(-0.0461126 1.90905 -3.78509e-20)
(-0.245813 1.93493 -4.80008e-22)
(-0.136261 1.93438 -5.41037e-20)
(-0.138742 2.01011 -6.3196e-20)
(1.01331 0.0194221 5.09191e-19)
(1.01239 0.00378618 -6.28933e-19)
(1.0066 0.020596 -5.28229e-19)
(0.992587 0.0138992 6.65572e-19)
(1.0458 0.0179236 0)
(1.03423 0.0031017 0)
(1.06694 0.0383781 0)
(1.05315 0.0233764 0)
(1.05399 0.0142978 0)
(1.1077 0.0788643 0)
(1.08162 0.0478199 0)
(1.08714 0.0381505 0)
(-0.013266 1.82496 -1.41039e-21)
(-0.0212225 1.81536 0)
(-0.0160692 1.81739 0)
(-0.0134167 1.85051 1.36946e-20)
(-0.0126307 1.8521 -5.19012e-22)
(-0.0280827 1.81 1.13251e-20)
(-0.0278262 1.8051 -1.14516e-20)
(-0.0296136 1.79793 0)
(-0.0283259 1.80003 0)
(-0.02839 1.79987 0)
(-0.0275387 1.7841 0)
(-0.0201579 1.76417 0)
(0.398779 1.46065 8.07808e-19)
(0.39601 1.46713 3.139e-19)
(0.623203 2.39838 -1.6195e-19)
(0.4097 2.52874 4.72545e-19)
(0.390445 2.05474 -1.13299e-20)
(1.02116 -0.00796865 0)
(1.01521 -0.00969797 0)
(1.01552 -0.0154745 0)
(1.00735 -0.000823173 0)
(1.0046 -0.00147501 0)
(1.00743 -0.00468163 0)
(1.00947 -0.00398574 0)
(1.01391 -0.00430855 0)
(1.02264 0.0180808 5.0004e-19)
(1.01681 0.0181809 -6.28565e-19)
(1.02259 0.0213763 -4.98619e-19)
(1.01804 0.019984 6.24595e-19)
(0.763265 1.31151 0)
(0.692004 1.36935 5.91227e-19)
(0.860202 1.2036 3.37468e-19)
(0.902489 1.16357 -4.48646e-19)
(1.14587 2.61114 -4.74157e-19)
(0.834601 0.112108 3.1826e-19)
(1.12431 0.0974499 0)
(1.17028 0.173809 1.05004e-20)
(1.15975 0.156145 5.54762e-22)
(0.975667 0.123164 0)
(0.152109 2.96881 1.52974e-19)
(0.127844 2.87483 -7.09283e-19)
(0.041 2.35102 5.13931e-19)
(0.107106 0.113819 -2.16105e-19)
(0.344576 3.43278 -4.28055e-19)
(0.199567 3.32385 0)
(0.240651 3.36955 5.57463e-19)
(0.257064 3.04291 -8.06685e-19)
(0.352398 3.20233 0)
(0.00838953 3.12041 2.8416e-20)
(0.0189666 3.12956 -3.58563e-19)
(0.0170258 3.12539 5.27772e-19)
(0.038705 3.1398 0)
(0.0371463 3.1521 0)
(1.20962 2.6142 0)
(0.503103 0.847586 -2.51663e-19)
(1.01454 0.992174 -1.81901e-19)
(0.955153 1.04756 0)
(0.795771 0.951562 3.97062e-20)
(1.03445 0.865062 3.09455e-20)
(0.404968 0.478596 -5.78846e-19)
(0.709534 0.335459 -2.3546e-20)
(0.694497 0.284723 2.40368e-19)
(0.628562 0.415953 1.91588e-20)
(0.569293 0.406991 -7.87389e-19)
(0.691065 0.352896 0)
(0.722652 0.41797 4.02333e-19)
(0.719815 0.413074 0)
(0.666908 0.384791 0)
(0.649923 0.324816 0)
(0.744991 0.592292 1.58281e-19)
(1.18436 0.268219 -1.06259e-20)
(1.18129 0.403037 0)
(1.19079 0.357484 0)
(0.760556 0.217967 3.61948e-19)
(0.800754 0.510587 -2.03276e-19)
(0.725838 0.492744 3.34735e-19)
(0.911072 0.4062 -3.23874e-19)
(1.01999 0.0145842 3.38016e-19)
(1.01736 0.0141351 -3.45802e-19)
(1.01385 0.0162457 0)
(1.02916 -0.0150794 0)
(1.02707 -0.0131078 -3.14028e-19)
(1.02241 -0.0189929 3.10845e-19)
(1.03002 0.00654519 0)
(1.026 0.0166703 0)
(1.01126 0.00460394 0)
(1.01461 0.00866806 0)
(1.01557 0.00416048 0)
(1.01348 0.00196932 0)
(-0.141543 1.11122 0)
(-0.151734 1.12256 0)
(0.244668 1.08817 4.96354e-19)
(0.300531 1.41052 2.56294e-19)
(0.226999 1.28388 5.71644e-19)
(0.222356 1.31714 -9.07383e-19)
(0.354178 1.24162 0)
(0.339396 1.76991 5.09265e-19)
(0.223834 1.7442 0)
(0.417701 2.04712 1.64613e-20)
(0.384651 2.40453 2.27373e-19)
(0.492402 1.44095 -4.43547e-19)
(0.37838 1.38443 1.97351e-19)
(0.403223 1.24224 -1.60817e-19)
(0.408504 1.35145 3.1078e-19)
(0.391046 1.68493 0)
(0.412927 1.65658 -1.9855e-19)
(-0.350326 2.30808 1.19001e-19)
(-0.167625 2.53624 0)
(-0.184025 2.51743 -2.80953e-19)
(-0.264883 2.46297 0)
(-0.120034 2.65748 -6.65582e-21)
(-0.125429 2.59 0)
(-0.254594 1.72751 4.92039e-20)
(-0.338065 1.81222 0)
(-0.280018 1.59435 0)
(-0.246838 1.61459 -5.55037e-20)
(-0.132747 2.18023 -6.73642e-20)
(-0.126841 2.37881 -2.64072e-21)
(-0.0830932 2.24183 4.80074e-23)
(-0.143927 1.8575 1.96431e-20)
(-0.182533 1.84981 3.58737e-21)
(-0.0623374 1.68222 0)
(-0.0391624 1.70011 0)
(-0.417075 1.91404 -1.9031e-19)
(-0.349722 1.62658 -2.04986e-19)
(-0.353468 1.79653 2.50008e-19)
(-0.394066 1.84269 0)
(-0.0267548 1.83648 -4.98629e-20)
(-0.0274713 1.85041 2.14595e-20)
(-0.0336805 1.8555 -6.90229e-21)
(-0.116639 1.83475 -2.37922e-20)
(-0.065721 1.88384 -1.16411e-20)
(-0.0769493 1.89839 6.74206e-20)
(1.02183 0.0178941 -3.31326e-19)
(1.02124 0.0126887 3.34895e-19)
(1.01657 0.00984907 0)
(1.00108 0.0453816 4.81568e-19)
(0.993313 0.0328085 -5.54558e-19)
(0.967124 0.0223034 6.40235e-19)
(0.999598 0.0794398 -6.31641e-20)
(1.02933 -0.0127411 0)
(1.03461 0.00409938 2.82757e-19)
(1.02694 -0.0123028 -2.8432e-19)
(1.04803 0.0409403 -1.59828e-20)
(1.0502 0.0293805 1.4138e-19)
(1.04564 0.0486316 0)
(1.03734 0.0419337 -5.23096e-20)
(1.03206 0.0276367 0)
(1.02765 0.0191954 0)
(1.03523 0.00905276 0)
(1.03132 0.0127158 0)
(1.03957 0.0258539 1.07904e-19)
(1.04213 0.01901 -2.42041e-19)
(1.04055 0.0309936 -1.10819e-19)
(1.03856 0.0302137 -1.26823e-19)
(1.04333 0.0558231 2.33569e-19)
(1.07061 0.0509927 0)
(1.06966 0.0947567 0)
(-0.024677 1.83626 -1.72639e-20)
(-0.0225337 1.82039 -1.46237e-21)
(-0.0236163 1.82213 0)
(-0.0161385 1.83542 1.73815e-20)
(-0.0149483 1.82779 2.83472e-21)
(-0.0144315 1.83285 -2.90769e-21)
(-0.0417239 1.90036 3.11768e-20)
(-0.039449 1.86803 -2.56233e-21)
(-0.0526134 1.87467 1.27338e-20)
(-0.0227961 1.87187 -1.68291e-20)
(-0.0273994 1.87665 2.04702e-20)
(-0.0324892 1.8067 3.20274e-22)
(-0.0329757 1.81394 2.12037e-20)
(0.428512 1.40931 -3.89413e-19)
(0.409373 1.41363 -3.43239e-19)
(0.650537 1.40528 -5.70329e-19)
(0.51469 1.46847 -3.11828e-19)
(0.554404 1.44275 0)
(0.600246 2.37819 1.35849e-19)
(0.663767 2.3619 2.31008e-19)
(0.438354 2.47565 9.59525e-20)
(0.444012 2.55271 -1.65441e-19)
(0.549588 2.50899 3.26448e-19)
(0.533866 2.42961 0)
(0.530174 2.44946 -3.92189e-19)
(0.265694 2.61003 6.51073e-19)
(0.37496 2.54046 -6.25096e-20)
(0.282285 2.64725 -1.01367e-18)
(0.914156 2.37728 2.16505e-19)
(0.813693 2.35585 0)
(1.0108 3.41062e-05 1.12757e-20)
(1.01569 -0.00512337 -9.20569e-21)
(1.01644 -0.00394002 -1.6304e-19)
(1.01517 -0.000442323 1.67662e-19)
(1.01265 0.00100982 0)
(0.63163 1.25399 0)
(0.635781 1.1595 0)
(0.732732 1.09054 0)
(0.626216 1.12567 0)
(1.17607 2.6279 5.83707e-20)
(1.06038 2.3597 0)
(0.862149 2.24083 -1.38706e-21)
(0.823042 2.49678 0)
(0.921567 2.5808 1.21068e-21)
(0.9642 2.52822 -8.08308e-22)
(0.840064 0.141865 0)
(0.81283 0.146003 9.08362e-20)
(0.923847 0.127979 4.719e-19)
(0.86337 0.11984 -1.8783e-19)
(0.856517 0.070954 -5.67247e-19)
(1.02666 0.208488 -3.05702e-19)
(0.954395 0.278879 -1.55812e-20)
(0.886679 0.275669 4.3295e-19)
(0.962395 0.199105 3.2826e-19)
(0.932817 0.158854 -5.9847e-19)
(0.909589 0.174274 7.70154e-20)
(0.929618 0.2361 -1.53887e-19)
(0.908272 0.192044 0)
(0.968192 0.159897 2.87927e-19)
(1.00258 0.159551 0)
(1.00223 0.18667 0)
(1.0649 0.105224 1.01815e-19)
(1.02506 0.149176 -1.36496e-20)
(1.02022 0.212128 -5.54868e-20)
(1.0545 0.182931 0)
(1.01845 0.0256772 2.55195e-19)
(1.03312 0.0443181 3.06096e-19)
(1.02893 0.0309542 -2.53425e-19)
(1.02739 0.0481841 -2.05548e-19)
(1.00879 0.0506478 -3.38877e-19)
(0.976349 0.124127 0)
(0.982733 0.075883 0)
(0.97106 0.0462942 -2.30388e-19)
(0.935368 0.0573974 9.61449e-20)
(1.01041 0.0799275 2.90525e-19)
(1.02901 0.106532 -3.06146e-19)
(1.0329 0.127986 2.77124e-19)
(0.994721 0.12356 0)
(1.03935 0.0950263 0)
(1.02616 0.0792701 -1.27032e-19)
(1.02417 0.0799005 -2.33645e-19)
(0.57375 1.07361 -6.95847e-20)
(0.613886 1.42616 1.68796e-19)
(1.15051 2.75979 7.041e-20)
(1.21758 3.09686 -6.53678e-20)
(1.24091 2.73019 5.00515e-19)
(1.27326 2.71461 -3.12599e-19)
(1.19873 2.34632 -8.30145e-21)
(1.20344 2.99899 1.70034e-19)
(1.22213 2.96283 -1.74736e-19)
(1.20967 3.25055 -2.59378e-19)
(1.37311 2.9795 3.59198e-19)
(1.36588 2.89651 0)
(0.503485 0.853175 -1.54353e-20)
(0.163628 1.29414 3.83323e-19)
(0.523222 0.546046 3.81388e-19)
(0.355428 0.316738 4.16319e-19)
(0.570325 0.436833 4.40068e-19)
(0.55623 0.502703 -7.02678e-19)
(0.550517 0.52515 5.76131e-19)
(0.522777 0.474731 -2.29173e-19)
(0.487001 0.415988 5.27088e-19)
(0.765111 0.26948 -2.0306e-19)
(0.734974 0.294176 0)
(0.725287 0.25041 1.04977e-20)
(0.720945 0.509509 2.08231e-19)
(0.701361 0.472756 -7.64942e-19)
(0.625859 0.501476 2.004e-20)
(0.644919 0.470962 0)
(0.62725 0.737699 1.70074e-19)
(0.776618 0.757271 8.46448e-20)
(0.710973 0.844694 -1.0697e-19)
(0.824106 0.790489 -3.07496e-20)
(0.863801 0.832594 8.689e-21)
(0.872236 0.835059 -8.89751e-21)
(0.786919 0.624698 -2.68231e-19)
(0.868026 0.686321 2.85981e-20)
(0.932387 0.697753 0)
(0.920283 0.67102 -3.43902e-20)
(0.980905 0.314169 7.65053e-20)
(1.08484 0.276454 3.43877e-20)
(1.01228 0.24831 1.24869e-19)
(0.96623 0.34622 -1.7003e-19)
(1.00867 0.40343 0)
(1.0511 0.397029 0)
(0.884668 0.343968 3.9829e-21)
(0.819152 0.285241 0)
(0.834891 0.278913 2.18449e-19)
(0.878817 0.284032 -7.65864e-21)
(0.903643 0.406493 8.87692e-19)
(0.856268 0.459637 2.27503e-19)
(0.867702 0.427559 -2.77749e-19)
(0.80854 0.414989 2.96971e-19)
(0.79564 0.409513 1.98615e-19)
(0.777364 0.401181 -1.95287e-19)
(1.02651 -0.00867391 2.7035e-19)
(1.01993 -0.00355398 0)
(1.01816 -0.00196923 1.78128e-19)
(1.02347 -0.004188 -4.02855e-19)
(1.02344 0.000951379 1.93944e-19)
(1.02113 0.0107384 -4.06047e-19)
(1.02272 0.0105954 0)
(1.02207 0.0110262 -8.57995e-20)
(1.01675 0.00647588 2.14439e-19)
(1.01662 0.00989237 -1.08383e-19)
(1.01762 0.00897049 7.91665e-20)
(-0.208786 1.402 0)
(-0.309931 1.54023 0)
(-0.204532 1.24734 0)
(-0.161305 1.27425 0)
(-0.219437 1.41913 -1.08345e-18)
(-0.0108957 1.22425 3.69951e-19)
(0.0657387 1.72706 3.0333e-19)
(0.0690066 1.37225 -2.30757e-19)
(-0.366018 1.61418 3.26691e-19)
(-0.368039 1.59732 -2.5155e-19)
(-0.262894 1.35756 1.21527e-19)
(-0.267598 1.37746 4.7741e-19)
(-0.27481 1.39675 5.43657e-20)
(-0.325546 1.5035 3.75308e-20)
(-0.144797 2.55758 3.04285e-19)
(-0.0135838 2.62591 0)
(0.102787 2.325 -4.98362e-20)
(0.0313813 1.88202 -1.9215e-19)
(0.390238 2.12922 3.71238e-20)
(0.268248 2.51299 0)
(0.275667 2.45428 -2.20901e-19)
(0.404798 2.41947 1.4526e-19)
(0.323794 2.16155 1.25812e-19)
(0.212965 2.33599 6.47799e-21)
(0.115848 2.53219 0)
(-0.36416 2.08116 1.7274e-19)
(-0.27437 2.12919 -2.52231e-20)
(-0.322443 2.05284 0)
(-0.28813 2.28223 -1.07622e-21)
(-0.36488 2.26631 -7.9043e-20)
(-0.164795 1.70904 3.57543e-22)
(-0.112662 1.72589 4.62316e-21)
(-0.110582 1.75634 -2.71707e-21)
(-0.171273 1.75825 -4.11452e-22)
(-0.222783 1.74296 0)
(-0.090258 1.7584 0)
(-0.0295653 1.76373 1.67276e-20)
(-0.0496089 1.77989 -5.0758e-21)
(-0.0638114 1.7678 0)
(-0.0379634 1.73294 1.13335e-20)
(-0.0221355 1.73774 -2.40123e-20)
(1.03481 0.00739552 0)
(1.04192 0.0108227 -2.69422e-20)
(1.04468 0.0185493 -1.92839e-19)
(1.04341 0.0195645 0)
(1.04349 0.0206261 0)
(1.0453 0.00742569 -6.0031e-21)
(1.04077 0.00563981 3.22996e-19)
(1.04156 0.0117836 3.86777e-19)
(1.03317 0.0146388 0)
(1.03028 0.0117735 0)
(1.04059 0.0181376 1.95682e-19)
(1.03075 0.0126536 0)
(1.03069 0.011702 0)
(-0.05686 1.8374 0)
(-0.0394865 1.81255 2.82603e-21)
(-0.0432055 1.8308 1.11169e-20)
(-0.039167 1.78514 0)
(-0.0463101 1.8084 1.12748e-20)
(-0.0376822 1.80216 -7.18859e-21)
(-0.0384498 1.79556 0)
(0.352369 1.71781 0)
(0.363225 1.35075 5.49812e-19)
(0.32704 1.38459 0)
(0.421942 1.31459 -7.32381e-19)
(0.48792 1.42185 0)
(0.444027 1.41402 3.57087e-19)
(1.02656 2.7101 -4.3071e-21)
(0.942425 2.41572 -2.72949e-19)
(0.867617 2.14887 3.78927e-19)
(0.83737 2.35447 1.40945e-19)
(0.843673 2.53025 0)
(0.904264 2.52412 0)
(0.880633 2.37166 0)
(0.913682 2.32079 -4.96065e-19)
(0.675078 2.50659 -5.30237e-20)
(0.801819 2.5055 -2.03964e-20)
(0.8062 2.47657 1.56722e-20)
(0.680653 2.34598 0)
(0.779607 2.35103 0)
(0.747791 2.35332 -2.38401e-19)
(0.753317 2.5073 0)
(0.580495 1.08424 0)
(0.466008 0.924528 -3.95113e-20)
(0.514381 0.955444 -3.77268e-21)
(0.503179 1.05071 0)
(0.49936 1.00603 6.32119e-20)
(0.733942 0.871395 2.22115e-21)
(0.759161 1.00448 0)
(0.729603 0.96225 -4.11291e-20)
(0.594855 1.02593 0)
(0.613946 0.937747 0)
(1.157 2.77452 2.81629e-20)
(1.13386 2.8412 9.97265e-20)
(0.937826 2.36845 -2.39568e-19)
(0.906112 2.34061 2.55985e-20)
(1.12136 2.74521 0)
(1.07313 2.71594 -3.04665e-20)
(1.07444 2.48679 -9.60362e-20)
(0.968137 2.21835 -2.98854e-20)
(0.504965 1.36517 0)
(0.505531 1.0616 6.13392e-20)
(0.558947 1.13751 0)
(0.856929 0.2112 0)
(0.818926 0.158241 0)
(0.777736 0.161754 0)
(0.84081 0.222337 -3.42928e-19)
(0.788819 0.22586 2.11896e-19)
(0.938895 0.0527998 -1.97991e-19)
(0.945301 0.0999151 0)
(0.924635 0.105681 8.86956e-20)
(0.889455 0.0806007 3.62449e-19)
(0.883611 0.0501852 -2.23659e-19)
(1.16175 3.37666 -9.65782e-19)
(1.20661 3.29628 0)
(1.16335 3.40332 -1.91162e-18)
(0.650671 3.56465 1.63882e-18)
(0.875604 3.13127 3.70654e-19)
(0.489973 0.873599 2.37817e-19)
(0.414188 0.861207 0)
(0.352272 0.562968 -8.73187e-20)
(0.420953 0.694843 4.07828e-19)
(0.522773 0.541572 -1.20479e-19)
(0.50588 0.56609 1.35456e-19)
(0.639784 0.552276 2.90952e-19)
(0.664831 0.548528 0)
(0.606579 0.637256 0)
(0.570095 0.572769 0)
(0.921985 0.576659 -3.64289e-20)
(0.854071 0.512391 -2.20436e-19)
(0.87477 0.545528 1.2023e-19)
(0.918235 0.48362 -1.62383e-19)
(1.00786 0.468457 0)
(1.02841 0.545525 -1.5722e-20)
(0.833863 0.372581 -4.37684e-19)
(0.833721 0.35831 -5.16443e-19)
(0.79259 0.372335 3.44257e-19)
(0.774646 0.348259 -3.83306e-19)
(0.822843 0.30511 -2.88055e-19)
(0.781981 0.303417 3.53618e-19)
(1.02934 0.000966953 -2.06564e-19)
(1.03134 -0.000834251 4.2149e-19)
(1.02815 -0.00923205 2.58011e-19)
(1.0325 -0.0107597 -3.09743e-19)
(1.03745 0.000111821 0)
(1.03631 0.00261865 -5.07993e-19)
(-0.390544 1.97641 -4.76878e-20)
(-0.378509 1.82342 0)
(-0.245659 1.92185 -8.82101e-19)
(-0.129186 1.88185 8.26156e-19)
(-0.0656489 1.69708 -5.64524e-19)
(-0.26753 1.73249 0)
(-0.103843 1.83145 0)
(-0.085337 1.78494 -5.16119e-21)
(-0.0628283 1.78738 4.66688e-21)
(-0.0564719 1.80566 3.72168e-21)
(-0.0697772 1.83941 -1.2861e-20)
(-0.0796857 1.83719 9.27164e-21)
(0.496228 1.38694 3.67401e-19)
(0.464056 1.40041 -3.94199e-19)
(0.440956 1.29963 3.68876e-19)
(0.397217 1.32286 -2.30255e-20)
(0.623099 1.29123 0)
(0.551754 1.38515 4.98877e-19)
(0.575501 1.35462 -4.83352e-19)
(0.45833 1.27079 -3.62573e-19)
(0.499024 1.22166 0)
(0.556517 1.17549 0)
(0.624283 2.45801 7.75658e-20)
(0.663507 2.47152 6.25236e-19)
(0.700592 2.48379 -4.26951e-19)
(0.611661 2.45723 -1.3205e-19)
(0.558221 2.56383 1.4351e-19)
(0.55497 2.53498 -3.96596e-19)
(0.954754 2.36745 -2.0682e-19)
(0.99805 2.3895 0)
(0.890441 2.13101 -2.7999e-19)
(1.04277 2.69837 0)
(1.04292 2.68728 0)
(0.618302 2.30695 2.28766e-19)
(1.03899 3.17968 4.62593e-19)
(0.910501 3.05092 -4.15505e-19)
(0.296452 0.978048 0)
(0.346498 0.847125 -1.57691e-19)
(0.484307 0.789267 -7.90842e-20)
(0.410731 2.05834 0)
(0.475821 2.8002 -2.58043e-19)
(0.436075 2.56625 0)
(0.636047 0.685008 -3.54109e-19)
(0.709959 0.663629 4.63998e-19)
(0.735213 0.608083 -4.55673e-19)
(0.622716 0.648844 -5.17273e-20)
(0.685499 0.60199 -2.12366e-19)
(0.998846 2.78785 -3.5163e-19)
(1.03277 2.84364 2.50892e-19)
(0.646808 2.1995 8.28217e-20)
(0.596084 1.74822 -8.99067e-20)
(0.693282 1.93293 5.93729e-20)
(0.984642 2.47117 -7.45725e-20)
(0.989122 2.47338 -1.21186e-19)
(0.666187 1.88392 -2.3317e-21)
(0.441583 1.35209 -5.43849e-20)
)
;

boundaryField
{
    wall-4
    {
        type            noSlip;
    }
    velocity-inlet-5
    {
        type            fixedValue;
        value           uniform (1 0 0);
    }
    velocity-inlet-6
    {
        type            fixedValue;
        value           uniform (0 3 0);
    }
    pressure-outlet-7
    {
        type            zeroGradient;
    }
    wall-8
    {
        type            noSlip;
    }
    frontAndBackPlanes
    {
        type            empty;
    }
}


// ************************************************************************* //
