/*--------------------------------*- C++ -*----------------------------------*\
  =========                 |
  \\      /  F ield         | OpenFOAM: The Open Source CFD Toolbox
   \\    /   O peration     | Website:  https://openfoam.org
    \\  /    A nd           | Version:  13
     \\/     M anipulation  |
\*---------------------------------------------------------------------------*/
FoamFile
{
    format      ascii;
    class       volScalarField;
    location    "64";
    object      p;
}
// * * * * * * * * * * * * * * * * * * * * * * * * * * * * * * * * * * * * * //

dimensions      [0 2 -2 0 0 0 0];

internalField   nonuniform List<scalar> 
918
(
0.556877
1.1846
0.00082714
0.556319
-0.00949344
1.15162
-0.509305
0.667023
0.537074
-0.11089
-0.0473822
0.538437
1.01219
0.777971
-1.12413
-0.010785
0.651574
-0.381525
0.536181
-0.0571574
0.694638
0.543616
0.546641
0.537219
0.598356
0.753747
0.893157
0.0225363
0.0114156
0.00491888
-0.014498
-0.0362558
-0.0308131
1.03527
1.08636
1.10905
0.504842
0.332834
-0.374791
-0.447391
-0.43555
-0.544781
0.663569
0.661874
-0.209377
0.670501
0.673248
0.524103
0.536443
0.537354
0.538377
0.53736
0.538741
0.403976
-0.111083
-0.142402
-0.0923481
-0.0848316
0.0530647
-0.0489669
-0.0509927
-0.0458731
-0.0456782
0.453988
0.532821
0.529382
0.54315
0.553666
1.12415
1.09607
1.12222
1.03586
1.05238
0.99018
0.96288
0.798796
0.820696
0.763463
0.751811
-1.55603
-2.50773
-0.534133
-0.283307
-0.0153744
-0.00884607
-0.00269881
0.6484
0.649533
0.651063
0.653768
1.08011
-0.378851
-0.479384
0.536322
0.535131
0.543456
0.544156
0.540175
0.539266
-0.0487411
-0.0458765
-0.0479585
-0.0538222
-0.0521698
0.68334
0.683886
0.537748
0.534751
0.561001
0.581035
0.571415
0.277898
0.608759
0.625403
0.584518
0.747588
0.740399
0.749667
0.866585
0.830424
0.930372
0.953436
0.0172296
-0.00111323
-0.0154497
-0.0193147
-0.0181603
0.500672
0.493212
0.520625
0.508277
0.510785
0.2495
0.116062
0.417819
0.442716
-0.293557
-0.35939
-0.429074
-0.459354
-0.567341
0.61165
0.659446
0.6575
-0.220079
-0.148142
-0.280966
-0.0750688
-0.137848
0.514364
0.52138
0.516377
0.531935
0.5264
0.528364
0.540713
0.537784
0.539343
0.466222
0.589915
0.330091
0.294705
-0.243444
-0.157036
-0.243668
-0.0734631
-0.0690433
0.0670957
0.0926247
0.0399768
0.0281924
-0.0628738
-0.0548072
-0.0587406
-0.0441015
-0.0447104
0.446746
0.435555
0.466681
0.474244
0.519413
0.520934
0.52561
0.523412
0.913632
0.935888
0.943591
0.917446
-3.49766
-6.28018
0.0414586
0.17789
-0.00647976
-0.0108433
0.00461547
-0.0104158
-0.00320815
-0.00442584
-0.0073594
-0.00848522
-0.00339981
-0.00214273
0.642461
0.643606
1.00217
1.00882
0.97798
0.930788
0.524533
0.526605
0.532105
0.527987
-0.0440228
-0.0445705
-0.0432427
0.676516
0.681599
0.679421
0.239485
0.149943
0.328878
0.357954
0.636207
0.625452
0.634842
0.644216
0.680984
0.960827
0.979106
0.97731
0.985786
1.02985
1.04629
1.01161
0.480084
0.490085
0.485022
0.523724
0.521502
0.522401
0.518333
0.519563
0.517579
-0.0344463
-0.414538
0.490106
0.507096
0.492287
0.494854
0.691852
0.770515
0.653605
0.655888
0.655218
-0.00620108
-0.0646378
0.249979
0.21595
0.386346
0.422724
0.401709
0.884822
0.845379
0.895462
0.868657
0.830177
0.855478
-0.366085
-1.86618
-0.984996
0.527541
0.341658
0.428795
0.0100677
-0.00678328
-0.00228342
1.00156
1.074
0.645751
0.82064
0.823391
0.718892
0.748371
0.803835
0.730486
0.764263
0.798447
0.778827
0.567655
0.503211
0.519167
0.839727
0.895531
0.120049
0.0588979
0.0149272
0.111424
0.168734
0.142815
1.03413
0.949402
1.01968
0.534512
0.535233
-0.00432848
-0.018277
0.539475
0.539529
-0.0164515
-0.00378688
0.412012
-0.831919
0.100232
0.528049
0.517959
0.53509
-0.0948397
0.355438
-0.0479224
0.0483731
-0.00748269
0.530494
0.465125
0.424212
-4.9909e-05
-0.0195572
-0.049061
-0.213567
0.532182
0.530486
0.534558
0.535501
0.536181
-0.0184104
-0.0134653
-0.00999665
-0.0460408
-0.0400658
-0.0512529
0.499004
0.518173
-0.170027
0.534705
0.536838
0.536658
0.529914
0.535547
0.533798
-0.0108033
-0.0169055
-0.0181534
0.220079
0.351514
0.651655
0.739483
0.622539
0.398961
0.164139
0.555081
0.618392
0.524045
0.677971
0.655485
0.667703
0.165808
0.0156293
0.174369
0.11596
0.525909
0.524623
0.516212
0.513175
0.529956
0.528068
0.532629
0.529648
0.532599
0.533981
-0.050888
-0.0788914
-0.0875838
-0.155281
0.310209
0.571562
0.253902
0.283813
0.141808
-0.0424654
-0.0426033
-0.0466054
-0.0543751
0.000877155
-0.0227795
0.0432747
0.0436416
0.0157908
-0.00993422
-0.00710226
-0.0179507
-0.0131908
0.524308
0.524093
0.527336
0.53623
0.474776
0.47856
0.443394
0.464152
0.449418
0.38818
0.423429
0.398675
-0.00794515
0.0018838
-0.00516298
-0.0171395
-0.0131061
-0.0328526
-0.0293835
-0.0252695
-0.0211407
-0.02774
-0.0433014
-0.0452723
-0.171457
-0.287116
0.988577
0.909994
0.136849
0.521328
0.527785
0.524546
0.529468
0.532596
0.533399
0.531109
0.527657
0.518465
0.519948
0.516871
0.517872
-0.101731
-0.242786
-0.070882
-0.144824
0.144485
0.627119
0.363406
0.299111
0.294306
0.522634
0.916073
0.699874
0.674379
0.680825
-0.342762
0.0464201
-0.279027
0.335829
0.163658
0.651051
0.700609
0.722538
0.670283
0.623192
-0.102028
0.555717
-0.0718019
-0.0199133
0.18131
0.0580764
0.666553
0.642479
0.648247
0.660168
0.675628
0.647154
0.63338
0.629175
0.654954
0.657009
0.485428
0.250859
0.201906
0.163402
0.641928
0.519661
0.571667
0.491192
0.521138
0.52372
0.522361
0.50384
0.511431
0.506949
0.51354
0.517078
0.525672
0.526137
0.521412
0.523545
-0.0579207
-0.0632845
-0.0288848
-0.136216
-0.129632
-0.191674
-0.0616917
0.0762219
0.0372603
0.237411
0.341648
0.0528733
-0.057621
-0.0304027
0.0120858
0.180402
0.208281
0.074241
0.162018
0.152872
0.134579
0.237033
0.240617
-0.0270115
-0.0301004
-0.0340954
-0.0358046
0.0191915
0.0900315
0.0996678
-0.00522945
-0.0113538
-0.040573
-0.0414383
-0.021386
-0.0273787
-0.0226157
0.00757949
-0.0525228
-0.0197952
-0.00571718
-0.00220746
-0.00420621
-0.00968548
0.518013
0.520335
0.52021
0.52653
0.540478
0.555455
0.519892
0.497002
0.487777
0.4908
0.463628
0.473965
0.46965
0.483333
0.504376
0.513893
0.511655
0.514518
0.496549
0.498383
0.48486
0.488532
0.463473
0.444246
0.432351
-0.0423845
-0.00415424
-0.011656
-0.0381763
-0.00914211
-0.0209567
-0.00949401
0.0089083
-0.00722498
-0.00852461
-0.0183414
-0.0254288
-0.024897
-0.0733026
0.0133124
-0.184087
-0.21993
-0.292764
0.890657
1.01475
0.810291
0.583372
0.603438
0.846531
0.931205
0.543396
0.735731
0.758896
0.586454
0.854079
0.526175
0.525773
0.523372
0.522852
0.524072
-0.00714432
0.0987449
0.0979804
0.160571
0.276242
0.387992
0.318421
0.193838
0.32412
0.326609
0.620406
0.632475
0.587793
0.611698
0.61269
0.425137
0.500679
0.552595
0.512586
0.564936
0.586301
0.540357
0.573099
0.523164
0.478316
0.474313
0.424469
0.444076
0.419892
0.402967
0.514814
0.492895
0.503189
0.4939
0.513839
0.541578
0.538263
0.561625
0.576236
0.497652
0.452652
0.462017
0.492274
0.453431
0.468846
0.485128
0.231543
0.133283
0.216377
-0.0693669
0.00241386
-0.010347
-0.0588939
-0.00818128
0.276178
-0.415393
-0.391719
-1.01932
0.502598
0.95284
0.602106
0.575515
0.674743
0.65806
0.663721
0.680249
0.681626
0.630288
0.640456
0.645175
0.60256
0.623862
0.642587
0.638979
0.524763
0.384145
0.382659
0.331351
0.201542
0.241067
0.437913
0.361765
0.286737
0.286981
0.456939
0.343768
0.413479
0.447383
0.378875
0.333396
0.535946
0.60175
0.595253
0.568689
0.480808
0.493547
0.517598
0.551578
0.576156
0.606675
0.512938
0.518875
0.520106
0.517578
0.514861
0.517934
0.518195
0.520746
0.521373
0.524373
0.523427
-0.0491743
-0.0359793
-0.0495846
-0.0590737
-0.0201272
-0.0223089
0.0229205
0.00744344
-0.0143146
-0.00890324
-0.0324234
-0.0370514
-0.0331094
-0.024584
0.100576
0.113374
0.0972928
0.0575968
0.251192
0.380561
0.455044
0.330346
0.223994
0.24708
0.266548
-0.0118723
0.0133486
0.000387477
0.0400348
0.0322725
-0.0355642
-0.03925
-0.0363456
-0.0293722
-0.0199396
-0.0362112
-0.0408953
-0.0317658
-0.0366195
-0.0395315
-0.0433821
0.499263
0.492704
0.494394
0.488189
0.486916
0.501389
0.505681
0.507648
0.513207
0.515663
0.505461
0.511206
0.51529
-0.0105534
-0.0336202
-0.0372887
-0.0272526
-0.029806
-0.0275966
-0.0289779
0.123414
0.0540748
0.0582498
0.0103973
-0.121533
-0.0635286
0.491119
0.489839
0.47931
0.72069
0.569983
0.490508
0.587481
0.693262
0.275901
0.47272
0.307687
0.888326
0.784672
0.931068
0.542236
0.244862
0.407735
0.451295
0.264175
0.339557
0.325238
0.214418
0.245147
0.282458
0.381592
0.264898
0.241494
-0.0016936
0.188685
0.301022
0.28285
0.407598
0.468338
0.26568
0.185255
0.140468
0.605187
0.624714
0.63819
0.610811
0.631896
0.579321
0.571439
0.587345
0.595618
0.589086
-0.747513
-0.453977
-1.40051
-0.722144
-0.267373
0.533053
0.503942
0.76908
0.646562
0.684897
0.670103
0.628907
0.59835
0.621407
0.645068
0.342545
0.453339
0.428582
0.434006
0.336335
0.266886
0.564569
0.561212
0.593538
0.616838
0.589544
0.618715
0.510773
0.510499
0.509945
0.506182
0.504449
0.506826
0.0574235
0.0252172
0.0637764
0.0452241
0.0219077
0.00877807
-0.00801277
-0.0179523
-0.0253096
-0.0251127
-0.0110317
-0.00705146
0.171073
0.108898
0.0293151
0.0585589
-0.00223572
-0.0709005
-0.0897118
0.0152997
0.111508
0.101677
0.405263
0.655036
0.475039
0.642526
0.484975
0.540779
0.467848
0.459246
0.484279
0.379086
0.459572
0.246895
-0.260809
-0.169833
0.793137
0.804676
0.58078
0.404579
0.172892
0.352341
0.542477
0.473138
0.508865
0.577933
0.565564
0.0268499
0.085407
0.369544
0.596355
0.239321
0.230474
0.224053
0.407312
0.326178
)
;

boundaryField
{
    wall-4
    {
        type            zeroGradient;
    }
    velocity-inlet-5
    {
        type            zeroGradient;
    }
    velocity-inlet-6
    {
        type            zeroGradient;
    }
    pressure-outlet-7
    {
        type            fixedValue;
        value           uniform 0;
    }
    wall-8
    {
        type            zeroGradient;
    }
    frontAndBackPlanes
    {
        type            empty;
    }
}


// ************************************************************************* //
