/*--------------------------------*- C++ -*----------------------------------*\
  =========                 |
  \\      /  F ield         | OpenFOAM: The Open Source CFD Toolbox
   \\    /   O peration     | Website:  https://openfoam.org
    \\  /    A nd           | Version:  13
     \\/     M anipulation  |
\*---------------------------------------------------------------------------*/
FoamFile
{
    format      ascii;
    class       surfaceScalarField;
    location    "64";
    object      phi;
}
// * * * * * * * * * * * * * * * * * * * * * * * * * * * * * * * * * * * * * //

dimensions      [0 3 -1 0 0 0 0];

internalField   nonuniform List<scalar> 
1300
(
3.75095
5.62643
-3.32974
3.75095
-7.72356
5.62643
-4.38484
4.38484
-0.430873
0.430873
1.87639
1.87456
-2.6829
2.6829
-2.15533
2.15533
-2.52656
2.52656
-5.24649
5.24649
-5.06919
5.06919
4.65593
-4.65593
-6.30327
6.30327
-0.949228
0.949228
-3.67692
3.67692
3.16963
-3.16963
-2.10488
2.10488
0.000286118
-0.000286118
-0.553477
4.30443
3.19748
3.19748
-2.01148
2.01148
-4.86811
4.86811
6.21812
-6.21812
5.31625
-5.31625
-1.98651
-2.44458
1.78854
-11.5176
-5.93502
-5.93502
-8.44038
8.44038
-2.81395
2.81248
2.94605
-2.94605
-1.77419
1.77419
-4.34378
-0.0410591
-4.34378
4.35664
0.0281983
4.35664
-0.502699
0.0718263
-0.502699
3.98258
-3.98258
0.347126
0.0837464
0.347126
3.06531
-3.06531
-1.87711
3.7535
1.87384
-1.87189
6.17632
-1.87906
3.75362
-6.01645
6.01645
-2.92199
0.239097
-2.92199
2.48436
0.198531
2.48436
-6.84779
6.84779
-2.1856
0.030267
-2.1856
2.12444
0.0308946
2.12444
2.88034
-2.88034
-2.63802
0.111457
-2.63802
2.39487
0.131693
2.39487
0.353517
5.27291
-5.97995
8.79243
-5.27291
0.0264231
5.20837
0.0381205
5.20837
-5.106
0.0368133
-5.106
5.01187
0.057314
5.01187
4.74171
-0.0857811
4.74171
-4.77414
0.118215
-4.77414
-3.38506
-4.05443
-6.45528
0.152012
-6.45528
-1.0386
0.0893672
-1.0386
0.835383
0.113845
0.835383
-3.68414
3.68414
-4.09989
0.422967
-4.09989
3.124
0.0456265
3.124
1.86849
1.88246
5.61944
-5.61944
2.44982
-2.07874
-0.0261438
-2.07874
-2.16215
-3.15409
2.16215
-0.0572727
-0.230896
0.231182
-0.230896
3.15942
0.0380533
3.15942
2.23736
0.157501
-2.23736
0.225887
3.27235
-3.27235
1.34179
0.669687
1.34179
-5.56395
5.56395
4.95577
0.056099
-4.95577
0.0876622
6.15674
0.0613786
6.15674
-6.19953
-0.0185941
-6.19953
2.53202
-4.9766
-2.6131
6.11956
0.183714
-6.11956
0.184537
2.91785
0.0281995
2.91785
-2.91973
2.91973
-2.9846
0.0385443
-2.9846
-2.1732
0.39901
-2.1732
1.4754
0.29879
1.4754
-4.24234
-0.101442
-4.24234
-4.24773
0.147843
4.24773
0.108909
1.12804
-1.12804
-0.617908
0.115209
-0.617908
-4.10617
-0.136168
4.10617
-0.12359
-3.87309
-0.109489
-3.87309
-3.02446
0.0398611
3.02446
0.0408534
3.11286
0.046563
-3.11286
0.0475478
-1.87082
3.75328
-1.88013
3.75397
-5.63593
-0.380513
-5.63593
6.32724
-0.310793
6.32724
3.31605
0.36087
-3.31605
0.394056
2.34032
0.144043
2.34032
-6.81119
-0.0365998
-6.81119
6.83164
0.016152
6.83164
2.24379
0.0965342
-2.24379
0.0581863
2.09419
0.0302507
2.09419
2.89996
-0.0196219
2.89996
-2.87476
-0.00557801
-2.87476
2.79653
-2.79653
2.72305
0.073473
-2.72305
0.0850382
-11.1331
11.1146
-0.0353222
-11.0978
5.17305
5.17305
4.16906
0.572649
4.16906
-4.99169
0.217548
-4.99169
2.67713
-5.29023
3.06171
-6.44677
4.66921
-16.1868
4.30726
-8.36169
6.69681
-6.69681
6.58519
0.111625
-6.58519
0.129907
-1.15446
0.115861
-1.15446
-3.0814
-0.602742
-3.0814
4.32721
-0.64307
4.32721
-3.02819
3.02819
-3.07748
0.0492952
3.07748
0.0465177
2.07707
0.0171196
-2.07707
-0.00166689
0.28644
0.0606859
-0.28644
0.0555441
3.48322
-0.210874
3.48322
-3.07538
-0.196968
-3.07538
-1.25348
0.0990254
1.25348
0.0883092
-5.81448
0.250536
-5.81448
-11.1907
0.0929147
-11.1526
-6.10661
-6.10661
2.33376
11.1262
-2.89299
0.0182236
2.89299
0.0248688
2.97515
0.0530345
-2.97515
0.0554236
-2.86061
0.0640786
2.86061
0.0591238
-2.54831
0.375111
-2.54831
-1.07272
1.07272
-1.23901
0.166298
1.23901
0.236383
1.39955
-0.271507
1.39955
0.72867
0.106713
-0.72867
0.110762
-3.77552
-0.097565
-3.77552
6.56197
-0.234732
6.56197
-2.96139
-0.113993
2.96139
-0.0614264
-0.0333031
11.1479
-5.13974
0.0337459
5.13974
-11.2092
11.243
-3.2192
0.670889
3.2192
0.949861
5.28441
0.279541
-5.28441
0.292719
6.78114
0.0504992
-6.78114
0.0843243
-2.58873
-0.492675
-2.58873
-5.05339
-0.582543
5.05339
-0.726177
-11.4752
-0.204196
11.6794
-11.4179
6.01868
0.138062
-6.01868
11.381
-1.02976
-0.0982785
1.02976
0.0429518
1.72694
-0.327388
1.72694
3.67648
-0.193253
-3.67648
-0.0990475
-6.71545
-0.0957441
6.71545
-0.153473
-2.14388
-0.444849
2.14388
-0.416941
-4.26711
4.30516
1.90922
-2.38819
-2.58841
-5.54228
1.85186
1.90142
4.30168
-10.159
-6.02781
-9.97444
7.26227
-6.96955
-9.24555
9.15977
7.86531
-7.9748
-5.78489
5.83141
6.48282
-6.44197
1.8788
1.8747
8.00698
-7.76789
-15.6079
15.2274
7.5068
-7.47653
15.7634
-15.8
-17.8471
17.8976
-5.69707
5.80853
-6.73882
6.73324
-6.97306
6.91163
-2.83541
-3.61136
13.119
-12.967
8.54807
-8.57422
-8.60858
9.03155
3.38258
0.92258
3.42914
-1.88217
3.76097
-1.87146
3.78068
2.70801
-5.54342
2.58222
-5.17063
4.33369
4.21438
-4.27641
-1.26587
-5.92433
5.95253
-5.81458
5.8737
9.12028
-9.16134
-1.88516
3.75986
-1.86882
3.77024
-3.42502
-2.35987
3.37939
0.922286
8.07422
5.04477
-8.25793
-1.71651
-8.02936
7.83611
-8.22553
8.02857
-0.435821
5.81947
-5.38365
4.43229
-1.56207
7.38154
5.70021
5.91775
5.86584
-5.5863
1.10371
-6.48736
-6.3997
-2.32274
2.43795
2.21094
-2.12719
6.12135
1.74395
5.99776
-5.74843
-2.22637
-5.846
3.82068
2.01073
3.86998
4.0783
2.40452
4.11816
3.0305
-3.03592
0.00541497
-3.05659
6.08709
0.723941
-5.41646
-4.49418
4.9731
3.03389
5.17163
-5.55169
-2.2162
-5.15764
-9.53877
-6.06914
-10.1213
10.084
5.14338
9.77322
-11.9568
11.8034
4.78912
2.71768
4.82001
-4.91784
-2.5587
-4.85965
11.6437
-2.63024
-9.01341
-10.317
-7.53009
10.3009
5.46253
10.9612
6.93642
11.0455
4.42557
7.21809
-9.88809
2.35801
-3.86452
-1.83255
-3.77948
3.6669
2.14163
3.79859
-4.21706
-2.52176
-4.19884
-4.29505
-2.678
4.31467
2.41857
-4.41577
-3.80977
4.52976
2.38187
4.03893
-10.0667
4.32276
-7.93412
-9.19793
-3.76905
-9.06802
3.50535
2.60771
-6.11306
-2.03807
8.47457
-4.26018
7.2087
-5.17509
-3.39913
-5.17675
-6.87695
-1.73163
-6.72911
-8.87821
8.38554
-9.17488
8.53181
12.5234
-5.64912
-6.87426
-3.96841
-2.47355
3.92087
-0.491723
-3.71055
3.71597
0.0504177
3.83109
4.75367
4.26195
-3.8846
-1.92998
-3.82918
3.82532
2.04838
3.8894
6.83172
2.28856
6.85992
-6.59427
-2.56707
-6.69571
9.0422
-8.64319
2.84391
-2.74488
5.39122
2.63734
-5.18035
-2.84901
6.21294
-3.21737
-2.99557
-12.1987
10.531
1.66771
-4.81713
-0.384841
-0.385127
-5.48988
-3.75567
5.37166
0.54609
11.077
7.32137
-5.51152
5.76205
6.16785
6.22395
-0.175749
5.80953
-5.13864
5.26415
-2.5768
-2.68734
5.45574
-5.5919
-1.23998
-5.50254
4.26256
0.405861
1.52362
-1.29243
-1.81512
-0.507621
-1.70436
1.31088
0.90006
1.37156
0.937837
1.50011
-2.9575
0.555252
2.40224
-2.01966
-1.57194
-3.79491
-1.14086
4.93577
5.7268
2.10931
-5.62775
-0.218242
2.556
-2.44215
-0.760006
-3.0349
2.24424
-3.00425
-3.67363
-2.05576
5.72938
-3.36986
-0.459319
3.31683
0.553149
-3.82705
-2.09728
3.7885
0.329651
-3.12766
6.19061
-3.06295
-5.05763
2.52771
3.55938
4.53844
-4.78952
2.44748
2.34205
-1.23014
4.24571
0.925924
4.38975
-6.93403
4.71783
5.79659
3.23496
-6.15746
0.999822
-5.93421
8.53999
-7.3686
-1.17139
4.14358
4.39641
7.0687
5.45468
-5.67515
12.7439
-1.20117
-6.16744
7.13537
-3.90041
4.84691
-8.74732
-10.3016
4.13416
-9.14119
10.9188
-1.77762
-3.62353
-8.33332
12.7647
-1.20517
-11.5595
8.56805
-4.25622
-4.34013
8.59635
-6.88646
6.89883
-1.99285
-4.90598
-10.1036
-5.69645
10.1993
1.60407
-9.89964
12.2576
-2.68155
4.10685
0.713161
4.1371
3.29471
-5.4817
2.18699
3.59175
-5.5846
2.08286
-7.56457
-6.73154
12.0649
-5.33335
-10.5006
-9.51817
-0.982412
2.53539
9.72226
-9.47181
7.42904
2.04277
3.30066
0.588743
-3.37413
-0.405352
0.239759
4.5251
-4.76486
4.03835
4.19585
3.28138
1.24372
3.84506
2.10747
-3.86993
-0.328914
-4.16294
1.48494
-1.74437
-3.69337
5.17831
-4.06692
0.373552
-2.74861
-3.49905
6.24766
-4.58116
3.03583
3.15478
5.08421
-4.9133
1.41425
-2.39283
-2.52048
2.65267
-4.39704
1.99095
3.18737
4.37282
0.563048
5.87401
6.19088
-8.48172
0.547608
11.2356
-9.51914
2.4657
8.57983
-9.89474
0.376564
-8.69146
0.994319
-5.2545
-5.11874
5.18841
-6.92004
-3.55891
6.20964
0.650283
-6.31855
-0.410564
-6.03394
-2.84427
-6.47879
-3.04383
-6.13105
-8.71898
-1.65174
-7.06724
6.73379
-6.68042
-3.44089
7.40659
1.12522
-7.40991
7.31164
-7.48791
7.16052
0.0953487
3.62062
4.3573
1.88375
-2.39047
4.27422
-5.1185
7.40707
-8.70242
3.58392
4.18378
-6.75086
-4.51864
5.0233
4.0189
5.32209
8.8878
-10.3598
1.47203
-10.6599
11.9917
-1.33184
-16.4215
5.7616
-7.53367
2.45126
0.392651
2.56712
0.547452
2.49886
-3.04631
-2.19743
-2.10912
-2.43147
-3.46562
5.89709
1.10277
-3.522
2.41923
-3.57045
4.67322
-0.200571
-3.32143
5.27815
-2.77929
5.6708
-3.77102
1.89979
3.43364
5.7529
-2.31926
4.39444
-1.7571
1.92019
-4.23945
-1.54543
-2.96416
5.10579
-3.2835
3.65705
-0.34093
3.99798
-4.05492
0.837553
-0.773542
3.42231
3.6482
4.31286
-3.06914
2.92216
-4.67925
-1.31729
-4.11621
-0.92884
-0.264329
-3.7083
3.97263
5.98647
-6.2508
-5.23622
9.53031
-4.29409
7.69476
-5.38304
-2.31172
-4.25422
-4.38897
3.87911
1.93043
9.62519
0.209428
-5.59247
-4.92922
-3.97936
3.11787
2.14628
-1.77597
3.44368
2.1611
-0.637481
0.44091
0.930654
1.78704
-1.34613
0.306236
1.4808
-0.986198
1.75866
0.79734
-1.86537
0.161011
-1.30601
3.55025
1.09623
-1.99629
0.650168
0.982867
-3.55967
5.02891
-2.6667
-2.3622
6.01177
1.13963
-3.80634
4.3629
-3.95704
2.37867
-3.51953
-1.42767
-5.38471
-3.64076
-2.52725
4.94648
-3.36984
5.47915
1.27285
-5.2609
6.53376
-3.72168
1.66593
-3.06566
3.863
-0.951532
-2.11412
2.90032
2.82907
-3.05873
0.0238259
-0.15841
2.40607
-2.56448
-0.598182
-2.61784
-4.5733
4.90295
-2.10544
4.55292
2.16878
-1.91669
6.46961
1.80913
-3.72582
-3.2485
-3.70782
-1.38377
3.15467
-0.599836
-4.25981
-5.50581
4.16328
0.22647
-7.04718
7.85516
-0.807974
-4.0133
-0.704535
4.84811
-6.06589
0.481286
-3.98302
3.87213
4.79806
5.02453
-11.3421
-0.217421
-6.19875
1.12306
-7.3218
5.51947
-3.54039
7.67455
-10.3287
6.88778
-9.20346
6.50316
-0.818642
6.25152
-4.06453
2.76189
-8.45834
-6.85428
5.49475
-2.77707
6.20791
-3.13773
9.34564
-5.81928
5.2797
4.06595
-1.01576
-4.161
-5.27292
4.25717
0.00677234
4.14388
4.98001
-2.87254
4.6511
2.2677
-4.66053
-2.12934
-6.49456
1.83403
-3.33979
-1.92051
3.75454
3.1637
3.75245
1.23406
-3.34709
7.18638
-8.16879
-1.85303
-3.26571
5.25695
-0.999782
3.39668
-6.6624
-1.85782
4.799
-0.784546
-4.01446
0.850118
-4.40903
1.67273
-6.08175
5.24731
-5.65788
2.22182
-9.75548
-5.1881
-5.14515
-2.25869
-5.22922
-7.57251
5.31382
-1.81091
5.50072
-8.50964
7.7251
-3.48207
8.79589
-5.42828
-1.05051
5.84522
1.3153
10.1112
0.21116
-4.7298
-1.91155
3.86199
-1.95045
1.20632
-3.49715
0.364847
2.48805
3.52372
-6.75061
-0.000248282
-4.73005
-3.91748
7.93639
5.61283
11.5993
1.23947
9.1183
-1.18191
10.3578
4.14018
4.37656
-2.99237
4.46439
0.980267
4.56419
-0.919022
2.81881
1.6481
1.73747
0.704685
2.30312
1.34508
3.14067
0.0943597
-2.01476
4.62255
-8.60191
-0.969921
-8.02926
1.13051
5.70985
-4.57934
2.97012
-0.82384
1.01967
-0.0774781
-1.29281
1.37029
-2.76482
-1.93029
-0.449493
-1.68583
2.33599
1.86443
-1.8865
-0.878322
0.359413
-4.00017
3.16011
-3.13629
-0.307222
6.22654
-2.81931
0.25483
-1.15338
-2.36301
-2.87063
2.70962
6.17598
0.293624
3.11303
5.19658
3.0993
0.226755
3.89379
-5.67141
-3.67078
-5.88883
-0.369362
4.47875
1.75222
7.97003
5.81817
4.81839
-1.84401
-10.0128
6.52054
-2.05615
5.1887
-1.17425
-4.90751
5.04487
2.36219
-5.69516
0.0372775
-4.87023
-6.92638
-0.513716
8.23881
-9.59748
8.54696
5.70269
1.36455
-4.40599
-0.739156
4.23969
0.136865
10.4946
-1.12816
-6.73217
7.86033
-4.58169
3.61177
0.75999
2.68369
2.13028
1.30644
-5.42573
-10.0051
-2.04034
-1.51933
-4.40254
0.533225
-2.39765
6.22534
-2.61357
3.91362
5.24675
6.26643
-2.13453
-4.11627
6.42862
-2.515
3.75143
)
;

boundaryField
{
    wall-4
    {
        type            calculated;
        value           uniform 0;
    }
    velocity-inlet-5
    {
        type            calculated;
        value           uniform -3.75095;
    }
    velocity-inlet-6
    {
        type            calculated;
        value           uniform -5.62643;
    }
    pressure-outlet-7
    {
        type            calculated;
        value           nonuniform List<scalar> 8(3.32974 7.72356 4.43109 9.72904 7.43949 5.14512 5.73884 8.97646);
    }
    wall-8
    {
        type            calculated;
        value           uniform 0;
    }
    frontAndBackPlanes
    {
        type            empty;
    }
}


// ************************************************************************* //
