/*--------------------------------*- C++ -*----------------------------------*\
  =========                 |
  \\      /  F ield         | OpenFOAM: The Open Source CFD Toolbox
   \\    /   O peration     | Website:  https://openfoam.org
    \\  /    A nd           | Version:  13
     \\/     M anipulation  |
\*---------------------------------------------------------------------------*/
FoamFile
{
    format      ascii;
    class       volVectorField;
    location    "64";
    object      U;
}
// * * * * * * * * * * * * * * * * * * * * * * * * * * * * * * * * * * * * * //

dimensions      [0 1 -1 0 0 0 0];

internalField   nonuniform List<vector> 
918
(
(0.985161 -0.000506894 0)
(0.00501566 2.96625 0)
(0.00684525 0.88777 0)
(0.979704 0.00214594 0)
(-0.0145135 2.05873 3.31193e-20)
(-0.0070476 2.9488 -2.46511e-18)
(0.819106 1.1622 4.4815e-19)
(0.128614 0.0747497 -1.48434e-20)
(0.999909 -0.000277228 0)
(0.0639472 0.730931 0)
(0.0132992 0.518548 0)
(0.734507 -0.0108304 0)
(0.0110924 2.93041 0)
(0.00257847 2.79508 0)
(-0.0178391 3.14972 7.8029e-19)
(-0.0188421 1.91551 9.23047e-21)
(0.280833 0.0472375 1.01785e-18)
(0.188791 1.14059 3.16873e-19)
(0.962729 0.00501739 0)
(0.0077054 0.48707 0)
(-0.0168029 0.0991493 -7.0022e-19)
(1.00197 -0.00497566 0)
(1.00022 -0.00978512 0)
(0.975737 -0.00643893 0)
(0.598666 0.0216439 0)
(0.0150473 2.64123 0)
(-0.0149009 2.91001 9.06804e-19)
(0.00988476 0.936946 0)
(-0.0158116 1.18102 0)
(0.0109173 0.919261 0)
(-0.017199 2.59417 0)
(-0.00333527 2.11002 -2.64491e-20)
(-0.0102111 1.89344 0)
(-0.0206086 2.9876 -8.85955e-23)
(-0.0166859 3.00529 1.91581e-18)
(0.00209808 3.00018 0)
(0.871339 -0.00965065 0)
(0.40285 0.933525 1.79921e-19)
(0.803768 1.17668 -5.11297e-19)
(0.955654 1.02142 5.55495e-19)
(0.672737 1.26847 -1.03872e-19)
(0.673758 1.243 5.98204e-19)
(0.167537 0.129395 1.44811e-20)
(0.149886 0.0553751 0)
(1.15785 0.561915 0)
(0.142573 0.112083 6.5971e-20)
(0.104953 0.0671944 -6.84538e-20)
(0.919898 -0.00745645 0)
(1.00027 0.000160954 0)
(0.999909 0.000338472 0)
(1.00363 -0.0077603 0)
(1.00096 -0.000919388 0)
(1.00017 3.64107e-05 0)
(0.073325 1.82621 -7.72198e-19)
(0.0304566 0.945173 0)
(0.0993773 0.809608 0)
(0.0100355 0.897615 0)
(0.0370104 0.654675 0)
(0.00670755 2.01327 0)
(-0.00209836 0.810176 0)
(0.0118963 0.53174 0)
(-0.00228088 0.800515 0)
(0.0069601 0.510032 0)
(0.841551 -0.0157055 0)
(0.839215 0.0324509 0)
(0.765573 -0.00866953 0)
(0.803074 0.033991 0)
(0.701728 0.00325376 0)
(0.014684 3.00041 9.13715e-19)
(0.0114887 3.00804 0)
(0.00611048 3.00275 0)
(0.0135313 2.99735 1.03645e-23)
(0.00796909 2.95849 -1.35801e-18)
(0.0144986 2.98206 0)
(0.010869 2.90357 0)
(0.0243565 2.93096 2.07687e-24)
(0.00470045 2.82492 0)
(0.0301076 2.91651 0)
(-0.00483675 2.74512 0)
(0.305273 3.54278 0)
(-0.131634 3.62346 0)
(0.137834 3.23981 -7.26133e-19)
(-0.0135375 2.97799 0)
(-0.0226339 1.98401 0)
(-0.0078787 2.16612 -9.10394e-21)
(-0.0129833 1.92375 2.78366e-21)
(0.350613 0.144183 -3.53445e-19)
(0.310296 0.0272788 -3.43338e-19)
(0.307004 0.150377 -1.05805e-18)
(0.243887 0.0552495 -6.88467e-19)
(0.229094 0.982743 0)
(0.272248 1.29171 -3.67782e-19)
(0.365693 1.22663 6.1343e-19)
(0.987438 0.00857096 0)
(0.941863 0.00582766 0)
(1.0003 0.000580747 0)
(1.00286 0.00930912 0)
(1.00301 0.00847077 -2.74347e-18)
(0.991908 0.00969586 2.07177e-18)
(-0.00911857 0.790495 0)
(0.00783898 0.496921 0)
(-0.0437233 1.006 0)
(-0.0230365 0.831983 0)
(0.00666324 0.487213 0)
(-0.0163495 0.114494 2.16145e-19)
(0.0716986 0.0813128 0)
(0.993552 -0.00837126 0)
(0.954463 -0.00653076 0)
(0.744367 0.0315985 0)
(0.680116 0.0276523 0)
(0.663689 0.011059 0)
(0.97057 -0.00741934 0)
(0.595463 0.0685329 0)
(0.449375 -0.00996196 1.54248e-18)
(-0.0374177 2.86161 6.69049e-19)
(0.0412423 2.90967 0)
(0.0534583 2.88625 0)
(-0.00440718 2.70036 0)
(-0.0132138 2.98527 8.58136e-19)
(-0.0178149 2.89509 0)
(-0.0153546 2.98808 -2.66173e-18)
(-0.0133264 2.92519 9.11215e-19)
(-0.0246425 1.34331 0)
(-0.0019534 1.37189 0)
(-0.00827091 2.13023 5.01814e-22)
(-0.00735891 2.09169 0)
(-0.0210536 1.90252 0)
(0.938587 -0.00739701 0)
(0.857474 -0.00997089 0)
(0.863267 0.00566887 0)
(0.94959 -0.00781985 0)
(0.884052 -0.00818961 0)
(0.514337 1.12652 -2.27216e-19)
(0.563507 1.1776 0)
(0.367445 0.878463 3.35927e-20)
(0.31006 0.737136 0)
(0.916129 1.05938 -1.53145e-19)
(1.03376 0.868365 3.10924e-19)
(0.358575 1.35337 0)
(0.525366 1.32454 0)
(0.548335 1.26313 0)
(0.120864 0.184737 -3.0211e-19)
(0.190482 0.130245 0)
(0.182373 0.0742999 1.91613e-19)
(1.00479 0.923056 0)
(1.07851 0.776968 0)
(1.1036 0.718445 -2.46687e-19)
(1.13727 0.621412 0)
(1.188 0.405441 5.71051e-20)
(0.957755 -0.00870497 0)
(0.962511 -0.0100358 0)
(0.90175 -0.00798339 0)
(0.984203 -0.0091469 0)
(0.97471 -0.00933355 0)
(0.937135 -0.00637261 0)
(1.00019 0.00233966 0)
(1.0009 0.00141467 0)
(0.999909 0.000854826 0)
(0.0355118 2.07366 4.28002e-19)
(0.1189 1.76905 0)
(0.0179791 2.1877 6.5761e-19)
(0.0461974 1.88026 -5.48259e-19)
(0.106197 1.14678 -2.59509e-19)
(0.0490117 1.02576 0)
(0.143227 0.976102 0)
(0.00204784 0.85601 0)
(0.0152859 0.599176 0)
(-0.001302 2.24229 -8.25718e-22)
(0.0158839 2.01794 0)
(-0.00219249 2.2445 -2.96925e-20)
(0.00823725 2.02229 4.62412e-20)
(-0.000728184 0.832648 0)
(-0.00216413 0.819482 0)
(0.00900849 0.559712 0)
(-0.00437674 0.793348 0)
(0.00488229 0.499903 0)
(0.93835 0.00976539 0)
(0.85006 -0.0146485 0)
(0.927547 0.000409765 0)
(0.842494 -0.0128999 0)
(0.812263 -0.00216672 0)
(0.898696 0.022513 0)
(0.872302 0.0282554 0)
(0.788551 -0.00615564 0)
(0.00572345 3.06488 -8.51544e-21)
(0.0167384 3.05774 0)
(0.0147186 2.96902 0)
(0.00869259 2.87617 0)
(0.920956 3.95543 0)
(1.23441 3.28894 9.26976e-19)
(0.0692172 3.07021 0)
(-0.0290153 2.90279 0)
(-0.0092685 1.39382 0)
(-0.0261759 1.69463 0)
(-0.0149144 1.52948 0)
(-0.0293212 2.55486 -1.18991e-20)
(-0.0136784 2.24682 0)
(-0.0193074 2.3932 0)
(5.52482e-05 1.94994 7.4612e-22)
(-0.00422743 2.23862 -6.8444e-21)
(-0.00622372 2.2005 -2.98058e-21)
(-0.00721476 1.93589 0)
(0.402605 0.125017 5.39482e-19)
(0.358602 0.0163497 -5.29372e-19)
(0.258935 1.58514 0)
(0.277318 0.755767 -3.15723e-19)
(0.177115 1.67243 -1.04869e-18)
(0.226036 1.21962 1.051e-18)
(0.902015 0.00636719 0)
(0.967395 0.0111314 0)
(0.974543 0.0108121 0)
(0.9233 0.00641296 0)
(-0.00961443 0.790621 0)
(-0.00827312 0.787954 0)
(0.00561565 0.491491 0)
(0.128569 0.0992456 6.1109e-19)
(0.113102 0.0887874 -7.22328e-19)
(0.0875131 0.0671401 0)
(1.09841 0.0860719 2.70805e-20)
(1.0805 0.0393834 0)
(1.01282 0.0399277 0)
(0.907 -0.00556574 0)
(0.454125 0.105796 0)
(0.514195 0.0875244 -2.46399e-18)
(0.40444 0.0111332 9.20813e-19)
(0.00875868 2.98101 7.18434e-19)
(-0.032484 2.86557 4.7096e-20)
(0.00359866 3.05023 -1.80296e-20)
(0.0202336 3.04336 6.41424e-19)
(-0.0150204 2.99658 2.99257e-20)
(-0.0129328 2.94948 -1.20445e-22)
(-0.017249 3.01193 -5.54031e-19)
(0.0148463 3.02383 4.00837e-19)
(0.0073636 3.03678 -6.34648e-19)
(0.933979 -0.00120951 0)
(0.939458 -0.00320138 0)
(0.845961 -0.00946359 0)
(0.956523 0.011918 0)
(0.942642 0.0132588 0)
(0.881573 0.00584733 0)
(0.916552 0.0176912 0)
(0.925778 0.0151231 0)
(0.838524 0.00205476 0)
(0.716826 1.40381 4.06278e-20)
(0.750153 1.51252 0)
(0.181556 0.315487 7.05409e-20)
(0.2283 0.668696 5.67923e-19)
(0.262321 0.720549 -3.3184e-19)
(0.263157 0.521695 6.60228e-19)
(0.345864 0.810584 1.59013e-18)
(0.140332 0.229916 3.75533e-19)
(0.264457 0.152747 7.28877e-19)
(0.224953 0.147213 1.8895e-19)
(0.212476 0.0662308 3.58169e-19)
(1.17707 0.463494 6.2455e-20)
(1.19285 0.256594 5.77942e-20)
(0.0101071 2.23637 2.53174e-19)
(0.0404255 1.94827 0)
(0.970447 0.0293037 0)
(0.943204 0.0138822 0)
(0.868873 -0.0179392 0)
(0.0111934 3.07413 0)
(0.0195997 2.94407 1.1737e-18)
(0.0164279 2.95623 0)
(0.00645442 2.85059 -1.16414e-18)
(0.00637571 3.09117 2.84717e-19)
(0.00723489 3.08272 0)
(0.782988 1.81408 -1.59082e-19)
(1.24229 2.48977 4.04431e-19)
(0.764984 1.95342 -1.23035e-18)
(0.0196462 2.98033 -6.19197e-19)
(0.0353182 2.99942 0)
(-0.0344265 2.87663 0)
(-0.00430831 2.22362 -1.31123e-20)
(-0.00359186 2.24449 1.0175e-20)
(0.00206086 1.98397 -7.26668e-21)
(0.2782 1.39426 1.02492e-18)
(0.238456 0.549927 -7.02774e-19)
(0.0637935 1.99827 7.62735e-19)
(0.135364 1.88444 -9.10464e-19)
(0.180274 1.51148 9.50077e-20)
(0.00298755 3.11816 -1.77513e-18)
(0.0169688 3.11795 1.90216e-18)
(-0.00918252 2.98086 7.88634e-19)
(-0.00338518 2.97726 -7.45259e-19)
(-0.021227 2.88127 -8.03201e-19)
(0.00864718 3.09899 -2.11605e-18)
(0.00200569 3.10681 2.0647e-18)
(0.281867 0.694959 0)
(0.2483 0.684077 -1.18024e-18)
(0.0958933 0.225191 5.24021e-19)
(0.357559 0.937566 1.11239e-18)
(0.195438 0.275863 -1.71503e-18)
(1.18474 0.174768 6.30908e-20)
(1.19327 0.311178 0)
(1.17309 0.12254 -6.62312e-21)
(0.00124137 2.25446 -1.47166e-21)
(0.00472936 2.24598 0)
(0.0246777 1.98365 0)
(0.3401 1.30306 -3.68024e-19)
(0.374614 1.14949 -7.99908e-19)
(0.210055 0.377716 1.42611e-18)
(1.00588 -0.0108314 0)
(1.00767 -0.00763531 5.06112e-19)
(-0.0217488 1.32408 0)
(-0.0379276 1.32237 0)
(1.00221 0.0035128 1.81081e-21)
(1.00366 0.00946735 1.03336e-18)
(-0.0202691 2.53914 1.50833e-20)
(-0.0246921 2.5814 0)
(0.0346648 3.17722 4.08787e-19)
(0.390783 3.48449 0)
(1.17391 0.66248 -5.78781e-20)
(1.01286 0.0131359 -2.1371e-21)
(1.02134 -0.0102938 0)
(1.0017 0.000129137 7.85538e-23)
(0.11247 1.36841 0)
(0.144028 2.56986 0)
(0.0248717 1.30783 0)
(-0.00030641 2.62184 2.82093e-20)
(-0.0214019 2.57908 4.13499e-21)
(0.998489 0.0273077 1.59238e-21)
(1.06305 0.0046241 0)
(1.09751 0.0250602 0)
(-0.0279908 1.73719 0)
(-0.0184633 2.58095 0)
(-0.004731 1.30985 0)
(0.312401 1.481 -1.68431e-19)
(1.0113 -0.00961855 0)
(1.0094 -0.0149164 0)
(1.00237 0.000752049 6.4681e-19)
(1.00547 -0.00480139 -7.60202e-19)
(1.00118 -0.000972329 0)
(-0.0135492 1.46124 0)
(-0.00706004 1.37286 0)
(-0.00616969 1.41849 0)
(-0.00842446 1.29756 0)
(-0.0179785 1.28459 0)
(-0.00941384 1.26687 0)
(1.03502 -0.00605057 0)
(1.01971 0.0155978 -8.23775e-22)
(0.820656 1.27328 2.59743e-19)
(1.00223 0.000319412 -6.4429e-19)
(1.00406 0.00525955 7.54331e-19)
(1.00118 0.0020743 0)
(1.01273 0.0103574 6.41222e-19)
(1.00799 0.00831209 -7.76942e-19)
(1.00856 0.0146957 0)
(-0.0237359 2.60894 0)
(-0.0258517 2.58876 -1.98221e-20)
(-0.0232695 2.60255 1.39978e-20)
(1.23713 0.267378 5.81354e-19)
(1.16207 0.0869008 0)
(0.0413378 3.07816 -9.14073e-19)
(0.064875 2.85662 -6.65302e-20)
(0.138786 3.19265 1.39422e-18)
(0.134311 3.22024 -1.97913e-19)
(0.133324 3.23121 0)
(0.0195215 3.13726 2.35952e-19)
(0.0747221 3.16039 9.01577e-19)
(0.0677374 3.18534 -4.44797e-19)
(0.0220101 3.13008 0)
(0.591209 0.281171 0)
(0.520919 0.301577 0)
(1.14504 0.698531 1.32174e-19)
(1.13908 0.819936 -1.16636e-19)
(1.20176 0.585338 0)
(1.2296 0.519998 0)
(1.01605 0.0133718 -1.19524e-18)
(1.01498 0.0142789 1.50039e-18)
(1.02537 -0.00981121 0)
(1.02344 -0.0118548 0)
(1.00642 0.00262878 0)
(1.01041 0.00373998 0)
(1.00458 0.00186413 0)
(1.00979 0.00624762 0)
(1.00781 0.00596523 0)
(1.00451 0.00471581 0)
(0.101412 1.36669 0)
(0.0967547 1.33002 0)
(0.132976 1.40455 0)
(0.150928 1.40911 0)
(0.145697 2.59483 0)
(0.185429 2.66483 -4.23482e-19)
(0.101619 2.65029 0)
(0.0853526 2.65321 1.97864e-19)
(0.0387526 2.67616 -1.48368e-19)
(0.0154457 1.32043 0)
(0.0213831 1.24426 0)
(0.0177415 1.3298 0)
(0.0339765 1.26763 0)
(0.00375531 1.98425 3.15357e-21)
(-0.0203086 2.60682 -1.83369e-20)
(-0.00857908 2.6632 1.37764e-20)
(-0.0183303 2.68224 0)
(-0.0231273 2.61269 -5.80124e-21)
(-0.0230194 2.60759 1.21556e-20)
(0.0126168 1.98272 4.70716e-22)
(-0.0073286 2.395 2.46015e-20)
(-0.0132884 2.41699 -1.56242e-20)
(1.00956 0.03891 1.21099e-18)
(1.00536 0.0172616 -1.50924e-18)
(1.00406 0.0450759 -1.23342e-18)
(0.976889 0.0352656 1.55187e-18)
(1.06428 0.00844006 0)
(1.0494 -0.00825181 0)
(1.09447 0.0352271 0)
(1.07441 0.0129986 0)
(1.07224 0.000543086 0)
(1.14044 0.08327 0)
(1.11193 0.0446937 0)
(1.11569 0.0325718 0)
(-0.0251851 2.43163 1.4475e-21)
(-0.013057 2.01318 0)
(-0.0153275 2.21612 0)
(-0.0204682 2.60159 -1.09321e-20)
(-0.0175746 2.61134 1.79723e-22)
(0.00338336 1.57269 -3.57006e-20)
(-0.00529766 1.50086 3.63726e-20)
(-0.0147751 1.3899 0)
(-0.0183042 1.39649 0)
(-0.0231369 1.391 0)
(-0.00299064 1.31093 0)
(0.00908785 1.23715 0)
(0.38673 1.49854 2.73904e-19)
(0.429794 1.49949 1.44908e-19)
(0.597584 2.44459 -2.40294e-19)
(0.398503 2.54174 7.07334e-19)
(0.349663 2.05353 7.1531e-20)
(1.02107 -0.00811056 0)
(1.01551 -0.00974605 0)
(1.01492 -0.0155027 0)
(1.00741 -0.00107888 0)
(1.00493 -0.00091024 0)
(1.00778 -0.00469 0)
(1.00927 -0.00361336 0)
(1.01422 -0.00437404 0)
(1.02047 0.0163359 1.17106e-18)
(1.01767 0.0155369 -1.49699e-18)
(1.02074 0.0183636 -1.17999e-18)
(1.01831 0.0162593 1.47947e-18)
(0.784138 1.32461 0)
(0.720672 1.37473 2.4623e-19)
(0.895863 1.22389 9.71983e-20)
(0.941694 1.16885 -1.29329e-19)
(1.15463 2.60006 2.77657e-19)
(0.770236 0.123432 5.99006e-19)
(1.16354 0.109038 0)
(1.21243 0.194526 -4.67796e-19)
(1.19955 0.155365 -1.9904e-20)
(1.00624 0.157019 0)
(0.129854 2.95879 5.31412e-19)
(0.106286 2.86503 -1.15643e-18)
(0.0150234 2.37298 7.73663e-19)
(0.0948033 -0.148675 -3.31345e-19)
(0.335734 3.41457 -2.15016e-19)
(0.19109 3.30922 0)
(0.234607 3.34987 2.80028e-19)
(0.240012 3.03125 -1.77492e-18)
(0.333301 3.18932 0)
(0.00551187 3.12119 4.60269e-20)
(0.0157481 3.12981 -5.43166e-19)
(0.0139125 3.12585 7.99423e-19)
(0.0345156 3.14011 0)
(0.0329891 3.15025 0)
(1.21055 2.59771 0)
(0.545255 0.806737 -5.28213e-19)
(1.06536 0.993084 -7.8639e-21)
(0.999856 1.07784 0)
(0.852883 0.973544 -1.10046e-19)
(1.09077 0.89409 2.79497e-20)
(0.315834 0.339369 -8.56139e-19)
(0.660243 0.32381 -1.7558e-20)
(0.565643 0.222694 4.07914e-19)
(0.547549 0.33758 2.999e-20)
(0.439558 0.279072 -1.20534e-18)
(0.621509 0.325169 0)
(0.706839 0.42206 6.94812e-19)
(0.71031 0.42535 0)
(0.585716 0.339592 0)
(0.517587 0.247889 0)
(0.824714 0.623506 4.11492e-19)
(1.23824 0.28969 -4.89428e-19)
(1.23819 0.428339 0)
(1.24656 0.369014 0)
(0.690019 0.195452 6.19873e-19)
(0.872093 0.552242 -3.76969e-19)
(0.769406 0.52357 6.70442e-19)
(0.962141 0.445027 -7.37365e-19)
(1.01922 0.0149544 8.02649e-19)
(1.01759 0.0143472 -8.0812e-19)
(1.0159 0.0153861 0)
(1.03649 -0.00559205 0)
(1.0299 -0.00837086 -7.56981e-19)
(1.02795 -0.0119589 7.49453e-19)
(1.02486 0.0105061 0)
(1.02337 0.0142571 0)
(1.01141 0.0041578 0)
(1.0142 0.00915028 0)
(1.01515 0.00416693 0)
(1.01426 0.00288951 0)
(0.0686243 1.34986 0)
(0.0729951 1.29608 0)
(0.148949 1.38605 1.1031e-20)
(0.282642 1.47946 8.98704e-20)
(0.177985 1.45042 1.89318e-19)
(0.211025 1.4554 -3.08564e-19)
(0.174613 1.41075 0)
(0.136851 1.59946 -7.18466e-20)
(0.119008 1.57828 0)
(0.346201 2.00336 -1.04007e-19)
(0.342224 2.33916 6.14918e-19)
(0.194169 1.46373 6.26297e-20)
(0.26938 1.39618 2.35594e-20)
(0.202774 1.389 -1.90407e-20)
(0.278867 1.33881 -1.03328e-19)
(0.243733 1.57953 0)
(0.267909 1.61665 1.12493e-19)
(0.0310199 2.26037 -2.86394e-20)
(0.0437773 2.6653 0)
(0.0667132 2.39664 1.34604e-19)
(0.063409 2.41747 0)
(0.0697101 2.66682 -2.19272e-19)
(0.0492598 2.69543 0)
(0.0264798 1.43377 3.19452e-20)
(0.0349536 1.4859 0)
(0.0283367 1.40126 0)
(0.023331 1.4058 -3.60461e-20)
(0.000390785 2.64945 -1.72497e-20)
(0.0297402 2.69467 1.66508e-19)
(0.0103178 2.71975 1.17352e-21)
(0.00325055 1.83578 -2.66774e-21)
(-0.0022488 1.68915 -3.22965e-21)
(0.011825 1.29998 0)
(0.0211112 1.22154 0)
(0.0473765 1.59284 -2.67508e-20)
(0.0316845 1.46747 -3.3668e-20)
(0.0369056 1.53169 4.17816e-20)
(0.0410033 1.61674 0)
(-0.0293668 2.26989 9.64929e-20)
(-0.0304373 2.54849 -4.06254e-20)
(-0.0161509 2.44597 3.97921e-21)
(-0.00330694 1.85181 3.23197e-21)
(-0.0252816 2.49794 1.95964e-21)
(-0.0204319 2.44152 1.00487e-21)
(1.01855 0.0212328 -8.03665e-19)
(1.01418 0.0278079 8.03797e-19)
(1.01332 0.0173671 0)
(1.01132 0.0711392 1.12599e-18)
(0.991794 0.0594538 -1.26225e-18)
(0.950475 0.0559172 1.41118e-18)
(1.01414 0.11226 -1.50316e-19)
(1.04292 -0.00558658 0)
(1.05131 -0.00121356 7.21928e-19)
(1.03919 -0.0097649 -7.23402e-19)
(1.07177 0.0428139 -4.29234e-20)
(1.06493 0.0241444 3.70146e-19)
(1.06345 0.0570198 0)
(1.05384 0.05028 -1.33111e-19)
(1.03258 0.0432484 0)
(1.02591 0.039978 0)
(1.02785 0.0136094 0)
(1.02379 0.0162521 0)
(1.04032 0.0329763 2.74194e-19)
(1.03904 0.0278029 -6.06434e-19)
(1.05127 0.0345598 -2.90589e-19)
(1.04841 0.0346377 -3.201e-19)
(1.07155 0.0652643 6.24429e-19)
(1.09705 0.0529943 0)
(1.106 0.0971076 0)
(-0.0248295 2.27505 5.47599e-20)
(-0.0236058 2.01801 1.03528e-21)
(-0.0195848 2.02551 0)
(-0.027029 2.44439 -5.45119e-20)
(-0.0222538 2.4008 -2.41419e-21)
(-0.0326095 2.4723 5.80393e-21)
(-0.0205488 2.62019 -1.09281e-20)
(-0.0230667 2.56203 3.53747e-23)
(-0.0212065 2.51366 -2.93712e-21)
(-0.0157452 2.61425 9.76025e-21)
(-0.0205976 2.61615 -1.03926e-20)
(-0.00539213 1.49407 -5.70037e-22)
(0.00404929 1.62122 -3.36138e-20)
(0.3719 1.44625 -1.15921e-19)
(0.371642 1.38086 3.64954e-20)
(0.661286 1.42546 -2.38192e-19)
(0.52894 1.49239 -1.42616e-19)
(0.587232 1.45799 0)
(0.59339 2.4216 2.06985e-19)
(0.661744 2.41691 3.37544e-19)
(0.411274 2.5112 8.77979e-20)
(0.402602 2.53568 -6.0966e-19)
(0.510272 2.47691 6.14099e-19)
(0.553283 2.45838 0)
(0.488141 2.51594 -5.59418e-19)
(0.248565 2.58844 1.14372e-18)
(0.354844 2.56043 -7.75217e-20)
(0.284085 2.65013 -1.58666e-18)
(0.948008 2.37477 7.26564e-19)
(0.838212 2.37987 0)
(1.01107 0.000524159 2.62382e-20)
(1.01535 -0.00537498 -2.12841e-20)
(1.01767 -0.00348293 -3.88736e-19)
(1.01503 -0.000844207 3.9083e-19)
(1.01245 0.00125291 0)
(0.647085 1.2904 0)
(0.669819 1.18414 0)
(0.783766 1.10282 0)
(0.662906 1.14762 0)
(1.18472 2.6136 5.97299e-20)
(1.07272 2.36078 0)
(0.834321 2.16603 3.82622e-21)
(0.823753 2.43118 0)
(0.921771 2.5249 -4.21708e-19)
(0.956975 2.48104 2.80526e-19)
(0.798436 0.183489 0)
(0.742543 0.15595 1.6271e-19)
(0.908769 0.152059 9.47065e-19)
(0.824116 0.156133 -3.54165e-19)
(0.779382 0.0912022 -1.09512e-18)
(1.08243 0.240926 -8.91861e-19)
(0.999861 0.303176 -1.74982e-20)
(0.929492 0.306714 8.59868e-19)
(1.00798 0.233669 7.21041e-19)
(0.948562 0.198401 -1.25327e-18)
(0.911483 0.202776 1.56733e-19)
(0.95004 0.268909 -3.32494e-19)
(0.927185 0.230021 0)
(0.995852 0.194631 6.18033e-19)
(1.04752 0.194023 0)
(1.04501 0.222194 0)
(1.10743 0.121217 2.89712e-19)
(1.07176 0.18092 -1.49956e-20)
(1.07596 0.241041 -1.57702e-19)
(1.10189 0.207127 0)
(1.02345 0.0464316 6.16508e-19)
(1.03916 0.0602435 7.71243e-19)
(1.03468 0.0463843 -6.11879e-19)
(1.04313 0.0678961 -5.17122e-19)
(1.02077 0.0758114 -7.93177e-19)
(0.98603 0.160636 0)
(0.991348 0.106234 0)
(0.965015 0.0734333 -5.01494e-19)
(0.905455 0.0980074 1.99171e-19)
(1.03986 0.107782 7.15693e-19)
(1.06974 0.124806 -8.35643e-19)
(1.07635 0.157228 7.46216e-19)
(1.03095 0.150468 0)
(1.07538 0.112336 0)
(1.05465 0.0933784 -3.42546e-19)
(1.04333 0.0975703 -5.84548e-19)
(0.578794 1.05659 1.39459e-19)
(0.604834 1.38247 -4.09445e-20)
(1.15456 2.72944 -2.26829e-19)
(1.22031 3.07172 1.84383e-21)
(1.24638 2.71247 -1.22919e-19)
(1.27498 2.69578 -3.22756e-20)
(1.20244 2.33606 -1.10433e-20)
(1.20795 2.9756 -9.30356e-20)
(1.22802 2.94108 2.33718e-19)
(1.21056 3.22462 -1.43109e-19)
(1.37028 2.95556 1.97761e-19)
(1.35913 2.87365 0)
(0.562054 0.815457 -5.02495e-20)
(0.111763 1.22809 5.68947e-19)
(0.555581 0.364376 5.59173e-19)
(0.393677 0.112017 6.08352e-19)
(0.482515 0.319351 6.82887e-19)
(0.544383 0.436663 -1.10243e-18)
(0.546569 0.43324 9.02472e-19)
(0.468414 0.322126 -3.42739e-19)
(0.349959 0.250678 7.76499e-19)
(0.713452 0.268336 -3.57863e-19)
(0.673316 0.292428 0)
(0.617239 0.208097 6.92027e-21)
(0.741707 0.506259 3.65842e-19)
(0.718391 0.477009 -1.33108e-18)
(0.622137 0.44659 1.16225e-20)
(0.620653 0.43709 0)
(0.691617 0.718272 3.96932e-19)
(0.853188 0.778274 3.95461e-19)
(0.776895 0.861078 -4.62724e-19)
(0.899168 0.815773 -1.54733e-19)
(0.930315 0.861058 -3.74113e-20)
(0.937411 0.860812 3.83121e-20)
(0.865756 0.658241 -6.8116e-19)
(0.945818 0.712102 1.43687e-19)
(1.00525 0.727515 0)
(0.996241 0.704169 -1.94164e-19)
(1.02951 0.343471 2.12328e-19)
(1.14913 0.305776 2.88016e-19)
(1.07026 0.2782 3.64529e-19)
(1.01841 0.375839 -4.30905e-19)
(1.06697 0.438395 0)
(1.12286 0.420787 0)
(0.923833 0.379556 1.74458e-21)
(0.840884 0.31547 0)
(0.885154 0.311125 4.06532e-19)
(0.910851 0.315212 -7.82625e-21)
(0.956221 0.448313 2.05404e-18)
(0.916989 0.503689 5.28929e-19)
(0.922133 0.470618 -5.6358e-19)
(0.838664 0.456654 6.04365e-19)
(0.822571 0.449232 3.62168e-19)
(0.793288 0.431973 -3.56291e-19)
(1.0274 -0.000214067 6.47565e-19)
(1.02 8.44883e-05 0)
(1.01853 0.00101141 4.22255e-19)
(1.02174 -0.00152903 -9.56513e-19)
(1.02236 0.0045079 4.64685e-19)
(1.02031 0.011531 -9.7308e-19)
(1.02121 0.010895 0)
(1.02045 0.0111074 -2.02815e-19)
(1.01594 0.00784956 5.08815e-19)
(1.0166 0.0106341 -2.53889e-19)
(1.0173 0.00998451 1.86971e-19)
(0.0279372 1.32316 0)
(0.0344391 1.37576 0)
(0.0452277 1.3251 0)
(0.0492565 1.27316 0)
(0.0743987 1.39913 -5.15164e-20)
(0.0814149 1.36631 2.27132e-20)
(0.118788 1.54339 -1.2948e-20)
(0.103067 1.38912 -6.7825e-21)
(0.0369619 1.47327 1.73815e-20)
(0.0410851 1.46713 -1.33095e-20)
(0.0655002 1.38474 -9.79871e-21)
(0.0571054 1.38601 4.61428e-20)
(0.0487943 1.36106 6.82676e-21)
(0.040341 1.38299 3.61666e-21)
(0.10785 2.36519 -1.48606e-19)
(0.096869 2.41336 0)
(0.171159 2.03952 1.07966e-19)
(0.114323 1.70644 3.89381e-20)
(0.234314 2.03505 -8.98108e-20)
(0.200834 2.42628 0)
(0.262926 2.37621 -6.05838e-19)
(0.303021 2.37387 4.28175e-19)
(0.230083 1.99531 -2.49279e-19)
(0.155897 2.15452 1.69845e-19)
(0.142091 2.26181 0)
(0.0190022 1.87905 5.71059e-21)
(0.000207482 2.39037 -3.34272e-20)
(0.00667616 2.14825 0)
(0.0116567 2.45345 -1.36394e-20)
(0.0286284 2.29672 8.75581e-21)
(0.0149963 1.4135 -6.7905e-21)
(0.01321 1.39641 1.14215e-19)
(0.0131918 1.40235 -3.7432e-20)
(0.0207265 1.40595 -3.21493e-20)
(0.025014 1.43747 0)
(0.00947054 1.38387 0)
(0.00208355 1.29639 -4.55187e-20)
(0.00563511 1.37564 1.28526e-20)
(0.00914895 1.37576 0)
(0.0082367 1.28878 -3.43333e-20)
(0.0182382 1.21313 6.95833e-20)
(1.04081 0.0121081 0)
(1.04701 0.00833792 -6.7731e-20)
(1.0387 0.0222538 -4.88952e-19)
(1.04853 0.0210886 0)
(1.05248 0.0209556 0)
(1.03635 0.0123043 -6.85357e-21)
(1.03098 0.0121237 7.85887e-19)
(1.03164 0.0171252 9.52759e-19)
(1.02543 0.0210118 0)
(1.02214 0.0213787 0)
(1.03521 0.025993 4.87568e-19)
(1.02544 0.0278265 0)
(1.02352 0.0278942 0)
(-0.0182486 2.02258 0)
(0.00110422 1.65181 -4.30506e-21)
(-0.00435498 1.7595 -3.04921e-20)
(-0.000601591 1.38491 0)
(-0.00659675 1.55259 -1.81211e-20)
(-0.00843698 1.46209 1.14952e-20)
(-0.00487639 1.39823 0)
(0.388823 1.64454 0)
(0.374272 1.30741 -7.1553e-20)
(0.301225 1.34105 0)
(0.42624 1.30576 6.65668e-21)
(0.476534 1.46971 0)
(0.456913 1.41418 2.5107e-20)
(1.03644 2.67569 -1.53599e-20)
(0.968443 2.40355 -9.13172e-19)
(0.921515 2.19173 1.02442e-18)
(0.852222 2.37179 2.4202e-19)
(0.847836 2.48526 0)
(0.917577 2.48148 0)
(0.931358 2.3683 0)
(0.910306 2.35743 -9.44223e-19)
(0.686995 2.44925 -3.94407e-19)
(0.800084 2.43877 -9.76879e-20)
(0.81039 2.41293 7.4228e-20)
(0.695628 2.39006 0)
(0.800828 2.38533 0)
(0.759017 2.39874 -3.68686e-19)
(0.767681 2.475 0)
(0.629341 1.09357 0)
(0.480604 0.902021 -5.10852e-19)
(0.566133 0.945455 -3.23393e-20)
(0.519127 1.03525 0)
(0.51958 0.978919 7.65183e-19)
(0.797712 0.883972 -1.30116e-19)
(0.807265 1.02041 0)
(0.782312 0.986845 1.85969e-19)
(0.666077 1.03394 0)
(0.667448 0.935877 0)
(1.16357 2.75244 -2.29608e-19)
(1.141 2.81579 -9.69155e-20)
(0.92911 2.33035 1.00024e-19)
(0.896919 2.30967 -8.32017e-20)
(1.12912 2.72541 0)
(1.08292 2.69488 1.00101e-19)
(1.08907 2.47876 -3.13647e-19)
(0.983538 2.2316 -3.03898e-20)
(0.492284 1.33146 0)
(0.507902 1.0613 -1.22922e-19)
(0.575553 1.16725 0)
(0.854146 0.248276 0)
(0.762031 0.197782 0)
(0.675503 0.155576 0)
(0.845212 0.250356 -6.39888e-19)
(0.735028 0.241115 3.7337e-19)
(0.922594 0.0890164 -4.1068e-19)
(0.927843 0.131548 0)
(0.914396 0.140856 1.77514e-19)
(0.851001 0.118023 7.10167e-19)
(0.816104 0.0790437 -4.44726e-19)
(1.15601 3.34961 -7.18624e-19)
(1.20491 3.26909 0)
(1.15369 3.37853 -1.48855e-18)
(0.641827 3.54002 1.26307e-18)
(0.863718 3.10861 7.22127e-20)
(0.521592 0.803816 6.04727e-19)
(0.424567 0.800936 0)
(0.309921 0.394021 -1.49096e-19)
(0.47076 0.652486 8.57257e-19)
(0.558689 0.367367 -1.96721e-19)
(0.514654 0.468072 2.31511e-19)
(0.673756 0.512109 4.94037e-19)
(0.711848 0.549655 0)
(0.662127 0.577451 0)
(0.626219 0.52759 0)
(1.00698 0.614009 8.8997e-20)
(0.921879 0.553154 -5.14934e-19)
(0.947205 0.584966 3.88192e-19)
(0.97807 0.524828 -3.98438e-19)
(1.08553 0.494086 0)
(1.094 0.584764 -9.71862e-20)
(0.858791 0.409739 -8.3045e-19)
(0.858096 0.398863 -1.03047e-18)
(0.793856 0.39351 6.45548e-19)
(0.805246 0.371771 -6.55646e-19)
(0.846168 0.334086 -5.19502e-19)
(0.794207 0.33641 6.35714e-19)
(1.02667 0.00608507 -4.93461e-19)
(1.02637 0.00630628 1.00317e-18)
(1.02945 0.000239457 6.27525e-19)
(1.03368 0.00115302 -7.55726e-19)
(1.0338 0.00930947 0)
(1.03004 0.0100085 -1.23065e-18)
(0.0641594 1.64337 1.93479e-20)
(0.0504989 1.59036 0)
(0.0900381 1.69293 1.18739e-19)
(0.098965 1.6744 -1.04382e-19)
(0.0930398 1.54947 2.42574e-20)
(0.093013 1.54756 0)
(0.0113175 1.68518 0)
(-0.00389266 1.49253 7.07007e-21)
(-0.00189719 1.4384 -6.36031e-21)
(-0.0072829 1.54932 5.4117e-21)
(0.0018359 1.88379 1.05993e-20)
(-0.0100876 1.93694 -1.5862e-21)
(0.496635 1.35813 -2.75179e-19)
(0.490192 1.35853 3.02306e-19)
(0.453212 1.30136 -3.10057e-20)
(0.43646 1.28464 7.74124e-21)
(0.63926 1.30784 0)
(0.555313 1.39813 1.05305e-19)
(0.5704 1.40572 -1.02509e-19)
(0.466876 1.29042 3.02185e-20)
(0.520954 1.24068 0)
(0.572559 1.20339 0)
(0.653928 2.40881 5.79379e-19)
(0.669564 2.45022 1.26007e-18)
(0.714005 2.4609 -8.68248e-19)
(0.610268 2.43482 -2.0188e-19)
(0.56009 2.52521 2.83683e-19)
(0.509353 2.49996 -7.56993e-19)
(0.978198 2.37505 -5.7329e-19)
(1.01242 2.38727 0)
(0.925722 2.1698 -6.59062e-19)
(1.05387 2.67389 0)
(1.05614 2.66048 0)
(0.599666 2.25828 -1.25545e-19)
(1.03707 3.1544 1.29739e-19)
(0.908182 3.02478 -3.31735e-20)
(0.26523 0.85275 0)
(0.292626 0.697317 -3.17212e-19)
(0.462119 0.656825 -3.18735e-19)
(0.379432 2.00283 0)
(0.46235 2.77925 -5.02678e-20)
(0.416158 2.54182 0)
(0.714137 0.668221 -8.38846e-19)
(0.798458 0.684465 1.12526e-18)
(0.818779 0.625913 -1.11184e-18)
(0.691672 0.631312 -1.07638e-19)
(0.746657 0.588772 -4.41579e-19)
(1.00076 2.75368 -9.86696e-20)
(1.04135 2.81459 -1.64264e-19)
(0.632311 2.12306 6.94042e-19)
(0.585034 1.69125 -4.94484e-19)
(0.694073 1.89013 -4.05914e-19)
(0.986867 2.43749 -1.12873e-19)
(0.993722 2.43055 2.95524e-19)
(0.650237 1.82407 2.82025e-20)
(0.441651 1.31178 1.43977e-19)
)
;

boundaryField
{
    wall-4
    {
        type            noSlip;
    }
    velocity-inlet-5
    {
        type            fixedValue;
        value           uniform (1 0 0);
    }
    velocity-inlet-6
    {
        type            fixedValue;
        value           uniform (0 3 0);
    }
    pressure-outlet-7
    {
        type            zeroGradient;
    }
    wall-8
    {
        type            noSlip;
    }
    frontAndBackPlanes
    {
        type            empty;
    }
}


// ************************************************************************* //
