/*--------------------------------*- C++ -*----------------------------------*\
  =========                 |
  \\      /  F ield         | OpenFOAM: The Open Source CFD Toolbox
   \\    /   O peration     | Website:  https://openfoam.org
    \\  /    A nd           | Version:  13
     \\/     M anipulation  |
\*---------------------------------------------------------------------------*/
FoamFile
{
    format      ascii;
    class       volScalarField;
    location    "3.83";
    object      T;
}
// * * * * * * * * * * * * * * * * * * * * * * * * * * * * * * * * * * * * * //

dimensions      [0 0 0 1 0 0 0];

internalField   nonuniform List<scalar> 
1000
(
7.43887e-58
9.8117e-58
1.53028e-57
2.56337e-57
4.40334e-57
7.62316e-57
1.32216e-56
2.29281e-56
3.97288e-56
6.87705e-56
1.18913e-55
2.05387e-55
3.54352e-55
6.10674e-55
1.05123e-54
1.80759e-54
3.10467e-54
5.32651e-54
9.12814e-54
1.56255e-53
2.67176e-53
4.56324e-53
7.78501e-53
1.32665e-52
2.25821e-52
3.83957e-52
6.52096e-52
1.10624e-51
1.87455e-51
3.17289e-51
5.3644e-51
9.05932e-51
1.5282e-50
2.57496e-50
4.33381e-50
7.2858e-50
1.22347e-49
2.05217e-49
3.43828e-49
5.75409e-49
9.61873e-49
1.60607e-48
2.67866e-48
4.46248e-48
7.42574e-48
1.23426e-47
2.04919e-47
3.39828e-47
5.62912e-47
9.31378e-47
1.53927e-46
2.54101e-46
4.18989e-46
6.90081e-46
1.13527e-45
1.86554e-45
3.06202e-45
5.02013e-45
8.22096e-45
1.34472e-44
2.19706e-44
3.58551e-44
5.8447e-44
9.51641e-44
1.54769e-43
2.51417e-43
4.07947e-43
6.61169e-43
1.07033e-42
1.73071e-42
2.79531e-42
4.50953e-42
7.2666e-42
1.16958e-41
1.88028e-41
3.01936e-41
4.84286e-41
7.75866e-41
1.24156e-40
1.98447e-40
3.16823e-40
5.05224e-40
8.04723e-40
1.28028e-39
2.03449e-39
3.22926e-39
5.11968e-39
8.10732e-39
1.28235e-38
2.02594e-38
3.19699e-38
5.03905e-38
7.9332e-38
1.2475e-37
1.95941e-37
3.07398e-37
4.81691e-37
7.53924e-37
1.17863e-36
1.84042e-36
2.87045e-36
4.47168e-36
6.95798e-36
1.0814e-35
1.67871e-35
2.60289e-35
4.03112e-35
6.23569e-35
9.63455e-35
1.48685e-34
2.29187e-34
3.52859e-34
5.42626e-34
8.33464e-34
1.27868e-33
1.95939e-33
2.99894e-33
4.5846e-33
7.00037e-33
1.06764e-32
1.62636e-32
2.47454e-32
3.76059e-32
5.70825e-32
8.65436e-32
1.31054e-31
1.98222e-31
2.99458e-31
4.51861e-31
6.81014e-31
1.02516e-30
1.54138e-30
2.31479e-30
3.47212e-30
5.2019e-30
7.78413e-30
1.16343e-29
1.73681e-29
2.58969e-29
3.85676e-29
5.73691e-29
8.52345e-29
1.26483e-28
1.8747e-28
2.7753e-28
4.10362e-28
6.06046e-28
8.9397e-28
1.3171e-27
1.93819e-27
2.84872e-27
4.18199e-27
6.1319e-27
8.98018e-27
1.31357e-26
1.9191e-26
2.80041e-26
4.08152e-26
5.94155e-26
8.63882e-26
1.25454e-25
1.81967e-25
2.6362e-25
3.81451e-25
5.51283e-25
7.95768e-25
1.14729e-24
1.6521e-24
2.37615e-24
3.41339e-24
4.89749e-24
7.01835e-24
1.00455e-23
1.43609e-23
2.05052e-23
2.9243e-23
4.16536e-23
5.92594e-23
8.42043e-23
1.19505e-22
1.69398e-22
2.3983e-22
3.39133e-22
4.78972e-22
6.7565e-22
9.5193e-22
1.33955e-21
1.88272e-21
2.64292e-21
3.70555e-21
5.1891e-21
7.25775e-21
1.01387e-20
1.4146e-20
1.97131e-20
2.74375e-20
3.81422e-20
5.29585e-20
7.34404e-20
1.01719e-19
1.40715e-19
1.94423e-19
2.68302e-19
3.698e-19
5.09072e-19
6.99939e-19
9.61188e-19
1.31833e-18
1.80596e-18
2.47093e-18
3.3766e-18
4.60857e-18
6.28231e-18
8.55342e-18
1.16313e-17
1.57972e-17
2.14289e-17
2.90327e-17
3.92862e-17
5.30956e-17
7.16709e-17
9.66259e-17
1.3011e-16
1.74981e-16
2.35037e-16
3.15318e-16
4.22499e-16
5.65415e-16
7.55742e-16
1.00889e-15
1.34518e-15
1.79135e-15
2.38256e-15
3.16499e-15
4.19918e-15
5.56442e-15
7.36444e-15
9.73471e-15
1.2852e-14
1.69465e-14
2.23179e-14
2.93555e-14
3.85646e-14
5.06001e-14
6.63096e-14
8.67889e-14
1.13453e-13
1.48125e-13
1.93154e-13
2.51559e-13
3.2722e-13
4.2511e-13
5.51601e-13
7.14843e-13
9.25248e-13
1.1961e-12
1.54432e-12
1.99146e-12
2.56486e-12
3.29928e-12
4.23873e-12
5.43893e-12
6.97031e-12
8.92179e-12
1.14055e-11
1.45624e-11
1.85702e-11
2.36516e-11
3.0086e-11
3.82234e-11
4.85015e-11
6.14668e-11
7.78014e-11
9.83546e-11
1.24183e-10
1.56599e-10
1.97232e-10
2.481e-10
3.11699e-10
3.91115e-10
4.90155e-10
6.13511e-10
7.66959e-10
9.57595e-10
1.19413e-09
1.48724e-09
1.85e-09
2.29838e-09
2.85188e-09
3.53428e-09
4.37453e-09
5.40782e-09
6.67686e-09
8.23346e-09
1.01404e-08
1.24734e-08
1.53241e-08
1.88029e-08
2.30428e-08
2.82038e-08
3.44777e-08
4.2095e-08
5.13313e-08
6.25166e-08
7.60445e-08
9.2385e-08
1.12097e-07
1.35847e-07
1.64424e-07
1.98765e-07
2.39981e-07
2.89384e-07
3.48524e-07
4.1923e-07
5.03655e-07
6.04331e-07
7.24233e-07
8.66848e-07
1.03626e-06
1.23725e-06
1.47539e-06
1.75719e-06
2.09022e-06
2.48329e-06
2.94663e-06
3.4921e-06
4.13343e-06
4.88649e-06
5.76961e-06
6.80391e-06
8.01373e-06
9.42701e-06
1.10758e-05
1.2997e-05
1.52326e-05
1.78308e-05
2.08464e-05
2.4342e-05
2.83887e-05
3.30675e-05
3.847e-05
4.47001e-05
5.18754e-05
6.01285e-05
6.96092e-05
8.04858e-05
9.29478e-05
0.000107208
0.000123504
0.000142104
0.000163304
0.000187439
0.000214877
0.000246031
0.000281358
0.000321366
0.000366616
0.000417729
0.000475388
0.00054035
0.000613442
0.000695578
0.000787755
0.000891068
0.00100671
0.00113599
0.00128032
0.00144125
0.00162045
0.00181975
0.0020411
0.00228662
0.00255861
0.00285953
0.00319201
0.00355889
0.00396322
0.00440822
0.00489736
0.00543431
0.00602298
0.00666751
0.00737229
0.00814196
0.00898137
0.00989568
0.0108903
0.0119708
0.0131431
0.0144133
0.015788
0.0172736
0.018877
0.0206055
0.0224662
0.0244666
0.0266146
0.0289179
0.0313846
0.0340229
0.0368409
0.039847
0.0430496
0.046457
0.0500778
0.0539201
0.0579923
0.0623025
0.0668585
0.0716683
0.0767393
0.0820787
0.0876933
0.0935898
0.0997741
0.106252
0.113028
0.120107
0.127493
0.13519
0.143199
0.151522
0.160162
0.169117
0.178387
0.187972
0.197868
0.208072
0.218581
0.229388
0.240489
0.251876
0.263542
0.275477
0.287672
0.300115
0.312797
0.325704
0.338822
0.352139
0.365639
0.379306
0.393126
0.40708
0.421153
0.435325
0.44958
0.463898
0.478261
0.492649
0.507045
0.521428
0.53578
0.550081
0.564313
0.578456
0.592493
0.606405
0.620174
0.633783
0.647215
0.660454
0.673484
0.686291
0.69886
0.711177
0.72323
0.735006
0.746494
0.757683
0.768564
0.779127
0.789364
0.799269
0.808833
0.818051
0.826917
0.835428
0.843578
0.851365
0.858786
0.865838
0.87252
0.878829
0.884766
0.89033
0.89552
0.900336
0.904778
0.908847
0.912544
0.915868
0.91882
0.921402
0.923614
0.925456
0.926928
0.928032
0.928768
0.929136
0.929136
0.928768
0.928032
0.926928
0.925456
0.923614
0.921402
0.91882
0.915868
0.912544
0.908847
0.904778
0.900336
0.89552
0.89033
0.884766
0.878829
0.87252
0.865838
0.858786
0.851365
0.843578
0.835428
0.826917
0.818051
0.808833
0.799269
0.789364
0.779127
0.768564
0.757683
0.746494
0.735006
0.72323
0.711177
0.69886
0.686291
0.673484
0.660454
0.647215
0.633783
0.620174
0.606405
0.592493
0.578456
0.564313
0.550081
0.53578
0.521428
0.507045
0.492649
0.478261
0.463898
0.44958
0.435325
0.421153
0.40708
0.393126
0.379306
0.365639
0.352139
0.338822
0.325704
0.312797
0.300115
0.287672
0.275477
0.263542
0.251876
0.240489
0.229388
0.218581
0.208072
0.197868
0.187972
0.178387
0.169117
0.160162
0.151522
0.143199
0.13519
0.127493
0.120107
0.113028
0.106252
0.0997741
0.0935898
0.0876933
0.0820787
0.0767393
0.0716683
0.0668585
0.0623025
0.0579923
0.0539201
0.0500778
0.046457
0.0430496
0.039847
0.0368409
0.0340229
0.0313846
0.0289179
0.0266146
0.0244666
0.0224662
0.0206055
0.018877
0.0172736
0.015788
0.0144133
0.0131431
0.0119708
0.0108903
0.00989568
0.00898137
0.00814196
0.00737229
0.00666751
0.00602298
0.00543431
0.00489736
0.00440822
0.00396322
0.00355889
0.00319201
0.00285953
0.00255861
0.00228662
0.0020411
0.00181975
0.00162045
0.00144125
0.00128032
0.00113599
0.00100671
0.000891068
0.000787755
0.000695578
0.000613442
0.00054035
0.000475388
0.000417729
0.000366616
0.000321366
0.000281358
0.000246031
0.000214877
0.000187439
0.000163304
0.000142104
0.000123504
0.000107208
9.29478e-05
8.04858e-05
6.96092e-05
6.01285e-05
5.18754e-05
4.47001e-05
3.847e-05
3.30675e-05
2.83887e-05
2.4342e-05
2.08464e-05
1.78308e-05
1.52326e-05
1.2997e-05
1.10758e-05
9.42701e-06
8.01373e-06
6.80391e-06
5.76961e-06
4.88649e-06
4.13343e-06
3.4921e-06
2.94663e-06
2.48329e-06
2.09022e-06
1.75719e-06
1.47539e-06
1.23725e-06
1.03626e-06
8.66848e-07
7.24233e-07
6.04331e-07
5.03655e-07
4.1923e-07
3.48524e-07
2.89384e-07
2.39981e-07
1.98765e-07
1.64424e-07
1.35847e-07
1.12097e-07
9.2385e-08
7.60445e-08
6.25166e-08
5.13313e-08
4.2095e-08
3.44777e-08
2.82038e-08
2.30428e-08
1.88029e-08
1.53241e-08
1.24734e-08
1.01404e-08
8.23346e-09
6.67686e-09
5.40782e-09
4.37453e-09
3.53428e-09
2.85188e-09
2.29838e-09
1.85e-09
1.48724e-09
1.19413e-09
9.57595e-10
7.66959e-10
6.13511e-10
4.90155e-10
3.91115e-10
3.11699e-10
2.481e-10
1.97232e-10
1.56599e-10
1.24183e-10
9.83546e-11
7.78014e-11
6.14668e-11
4.85015e-11
3.82234e-11
3.0086e-11
2.36516e-11
1.85702e-11
1.45624e-11
1.14055e-11
8.92179e-12
6.97031e-12
5.43893e-12
4.23873e-12
3.29928e-12
2.56486e-12
1.99146e-12
1.54432e-12
1.1961e-12
9.25248e-13
7.14843e-13
5.51601e-13
4.2511e-13
3.2722e-13
2.51559e-13
1.93154e-13
1.48125e-13
1.13453e-13
8.67889e-14
6.63096e-14
5.06001e-14
3.85646e-14
2.93555e-14
2.23179e-14
1.69465e-14
1.2852e-14
9.73471e-15
7.36444e-15
5.56442e-15
4.19918e-15
3.16499e-15
2.38256e-15
1.79135e-15
1.34518e-15
1.00889e-15
7.55742e-16
5.65415e-16
4.22499e-16
3.15318e-16
2.35037e-16
1.74981e-16
1.3011e-16
9.66259e-17
7.16709e-17
5.30956e-17
3.92862e-17
2.90327e-17
2.14289e-17
1.57972e-17
1.16313e-17
8.55342e-18
6.28231e-18
4.60857e-18
3.3766e-18
2.47093e-18
1.80596e-18
1.31833e-18
9.61188e-19
6.99939e-19
5.09072e-19
3.698e-19
2.68302e-19
1.94423e-19
1.40715e-19
1.01719e-19
7.34404e-20
5.29585e-20
3.81422e-20
2.74375e-20
1.97131e-20
1.4146e-20
1.01387e-20
7.25775e-21
5.1891e-21
3.70555e-21
2.64292e-21
1.88272e-21
1.33955e-21
9.5193e-22
6.7565e-22
4.78972e-22
3.39133e-22
2.3983e-22
1.69398e-22
1.19505e-22
8.42043e-23
5.92594e-23
4.16536e-23
2.9243e-23
2.05052e-23
1.43609e-23
1.00455e-23
7.01835e-24
4.89749e-24
3.41339e-24
2.37615e-24
1.6521e-24
1.14729e-24
7.95768e-25
5.51283e-25
3.81451e-25
2.6362e-25
1.81967e-25
1.25454e-25
8.63882e-26
5.94155e-26
4.08152e-26
2.80041e-26
1.9191e-26
1.31357e-26
8.98018e-27
6.1319e-27
4.18199e-27
2.84872e-27
1.93819e-27
1.3171e-27
8.9397e-28
6.06046e-28
4.10362e-28
2.7753e-28
1.8747e-28
1.26483e-28
8.52345e-29
5.73691e-29
3.85676e-29
2.58969e-29
1.73681e-29
1.16343e-29
7.78413e-30
5.2019e-30
3.47212e-30
2.31479e-30
1.54138e-30
1.02516e-30
6.81014e-31
4.51861e-31
2.99458e-31
1.98222e-31
1.31054e-31
8.65436e-32
5.70825e-32
3.76059e-32
2.47454e-32
1.62636e-32
1.06764e-32
7.00037e-33
4.5846e-33
2.99894e-33
1.95939e-33
1.27868e-33
8.33464e-34
5.42626e-34
3.52859e-34
2.29187e-34
1.48685e-34
9.63455e-35
6.23569e-35
4.03112e-35
2.60289e-35
1.67871e-35
1.0814e-35
6.95798e-36
4.47168e-36
2.87045e-36
1.84042e-36
1.17863e-36
7.53924e-37
4.81691e-37
3.07398e-37
1.95941e-37
1.2475e-37
7.9332e-38
5.03905e-38
3.19699e-38
2.02594e-38
1.28235e-38
8.10732e-39
5.11968e-39
3.22926e-39
2.03449e-39
1.28028e-39
8.04723e-40
5.05224e-40
3.16823e-40
1.98447e-40
1.24156e-40
7.75866e-41
4.84286e-41
3.01936e-41
1.88028e-41
1.16958e-41
7.2666e-42
4.50953e-42
2.79531e-42
1.73071e-42
1.07033e-42
6.61169e-43
4.07947e-43
2.51417e-43
1.54769e-43
9.51641e-44
5.8447e-44
3.58551e-44
2.19706e-44
1.34472e-44
8.22096e-45
5.02013e-45
3.06202e-45
1.86554e-45
1.13527e-45
6.90081e-46
4.18989e-46
2.54101e-46
1.53927e-46
9.31378e-47
5.62912e-47
3.39828e-47
2.04919e-47
1.23426e-47
7.42574e-48
4.46248e-48
2.67866e-48
1.60607e-48
9.61873e-49
5.75409e-49
3.43828e-49
2.05217e-49
1.22347e-49
7.2858e-50
4.33381e-50
2.57496e-50
1.5282e-50
9.05932e-51
5.3644e-51
3.17289e-51
1.87455e-51
1.10624e-51
6.52096e-52
3.83957e-52
2.25821e-52
1.32665e-52
7.78501e-53
4.56324e-53
2.67176e-53
1.56255e-53
9.12814e-54
5.32651e-54
3.10467e-54
1.80759e-54
1.05123e-54
6.10674e-55
3.54352e-55
2.05387e-55
1.18913e-55
6.87705e-56
3.97288e-56
2.29281e-56
1.32216e-56
7.62316e-57
4.40334e-57
2.56337e-57
1.53028e-57
9.8117e-58
7.43887e-58
)
;

boundaryField
{
    sides
    {
        type            zeroGradient;
    }
    empty
    {
        type            empty;
    }
}


// ************************************************************************* //
