/*--------------------------------*- C++ -*----------------------------------*\
  =========                 |
  \\      /  F ield         | OpenFOAM: The Open Source CFD Toolbox
   \\    /   O peration     | Website:  https://openfoam.org
    \\  /    A nd           | Version:  13
     \\/     M anipulation  |
\*---------------------------------------------------------------------------*/
FoamFile
{
    format      ascii;
    class       volScalarField;
    location    "68";
    object      p;
}
// * * * * * * * * * * * * * * * * * * * * * * * * * * * * * * * * * * * * * //

dimensions      [0 2 -2 0 0 0 0];

internalField   nonuniform List<scalar> 
918
(
0.55711
1.18327
0.000805007
0.556559
-0.00950101
1.15025
-0.510794
0.660602
0.53731
-0.108477
-0.0502789
0.539624
1.01106
0.776846
-1.12377
-0.0109865
0.651688
-0.381502
0.536424
-0.0590685
0.689493
0.543849
0.546873
0.537451
0.598032
0.750141
0.892198
0.0237279
0.0118721
0.00519106
-0.0145096
-0.0361339
-0.0307965
1.0339
1.08498
1.10767
0.505054
0.333409
-0.376199
-0.449068
-0.436553
-0.54513
0.65867
0.657658
-0.211998
0.663753
0.665625
0.52433
0.53668
0.537591
0.53861
0.537595
0.538975
0.404101
-0.108669
-0.139912
-0.089667
-0.0832299
0.0524281
-0.0520431
-0.0543882
-0.0483807
-0.0482302
0.454161
0.533806
0.530229
0.54378
0.553498
1.12282
1.09475
1.12088
1.03455
1.05102
0.989057
0.961624
0.797367
0.819249
0.761944
0.747464
-1.55512
-2.50592
-0.534322
-0.283958
-0.0153779
-0.00905424
-0.0032101
0.648707
0.650084
0.651134
0.653261
1.07973
-0.379038
-0.47943
0.536566
0.535377
0.543695
0.544396
0.540415
0.539505
-0.0504479
-0.0472934
-0.0498333
-0.0553294
-0.0535771
0.67678
0.677509
0.537979
0.534982
0.56114
0.581058
0.571184
0.277633
0.608719
0.624528
0.582896
0.742805
0.7369
0.745816
0.86596
0.829334
0.929124
0.952447
0.0175832
-0.0011762
-0.0157869
-0.0193098
-0.0181974
0.500881
0.493415
0.520895
0.508493
0.511003
0.250178
0.116825
0.418336
0.443168
-0.295272
-0.361804
-0.429183
-0.459915
-0.568472
0.612076
0.656457
0.654989
-0.222153
-0.150326
-0.283628
-0.0772502
-0.140219
0.514586
0.521607
0.516601
0.532165
0.526629
0.528594
0.540951
0.538021
0.539581
0.466248
0.589798
0.330311
0.294882
-0.242683
-0.154995
-0.24234
-0.0726662
-0.0699348
0.0665419
0.0921962
0.0392237
0.0274044
-0.0649489
-0.0580429
-0.0611692
-0.04636
-0.0458375
0.446901
0.435679
0.466861
0.47443
0.520192
0.521727
0.526224
0.523954
0.912519
0.93496
0.942344
0.916022
-3.49494
-6.27568
0.0404088
0.176781
-0.00651043
-0.0109265
0.00451576
-0.0105296
-0.0033089
-0.0044717
-0.0083571
-0.00942752
-0.00397663
-0.00278874
0.643293
0.644412
1.00194
1.00879
0.977558
0.93048
0.524788
0.526859
0.532354
0.528238
-0.0455513
-0.0458383
-0.0451499
0.668964
0.674351
0.671852
0.239107
0.1493
0.328735
0.357898
0.636926
0.625282
0.635043
0.644251
0.679719
0.959865
0.977976
0.976285
0.984482
1.02848
1.04486
1.01023
0.480277
0.490286
0.485218
0.523981
0.521759
0.522655
0.518816
0.519867
0.517995
-0.0335813
-0.413438
0.49045
0.507338
0.492742
0.495137
0.69222
0.770847
0.652927
0.654422
0.653963
-0.00803358
-0.0665426
0.250048
0.215874
0.38638
0.422838
0.401786
0.883767
0.843774
0.893984
0.867426
0.828579
0.855242
-0.365016
-1.86384
-0.983327
0.525844
0.340729
0.427907
0.00924272
-0.00758024
-0.00299541
1.00146
1.07376
0.64556
0.820404
0.823076
0.713792
0.744149
0.803166
0.728407
0.763845
0.798046
0.776996
0.568023
0.503516
0.519461
0.839968
0.89572
0.119115
0.0574516
0.0136017
0.111163
0.168563
0.142605
1.03377
0.949492
1.0197
0.534743
0.535465
-0.00463557
-0.0182775
0.539713
0.539769
-0.0167122
-0.00396463
0.410497
-0.831652
0.09838
0.528298
0.518186
0.535327
-0.0934766
0.35571
-0.0501324
0.0480385
-0.00833271
0.530033
0.46531
0.424359
-0.000546167
-0.0200611
-0.0504838
-0.213043
0.532413
0.530717
0.534795
0.535736
0.536417
-0.0189165
-0.0142037
-0.0103207
-0.0472702
-0.0407361
-0.0526723
0.499213
0.518611
-0.170495
0.534941
0.537077
0.536895
0.53016
0.535789
0.534042
-0.0113844
-0.0172166
-0.0185411
0.219366
0.351456
0.649321
0.735834
0.621621
0.397897
0.163051
0.553253
0.616034
0.522255
0.675145
0.652154
0.660801
0.163898
0.0136131
0.172681
0.114362
0.526159
0.524878
0.516439
0.513397
0.530194
0.528308
0.532867
0.52989
0.53284
0.534221
-0.0494762
-0.0768964
-0.0856366
-0.152911
0.310367
0.571469
0.254726
0.284234
0.141729
-0.0447447
-0.0458779
-0.0483883
-0.0572811
0.000629918
-0.023881
0.0429033
0.0430359
0.0148367
-0.0107175
-0.00826627
-0.019113
-0.0136451
0.523412
0.523506
0.527538
0.536312
0.474974
0.478762
0.443579
0.464338
0.449588
0.388255
0.423589
0.398797
-0.00842686
0.00130588
-0.00553818
-0.0177893
-0.0136103
-0.0336435
-0.0302355
-0.0257451
-0.0216948
-0.0285406
-0.0448653
-0.0470137
-0.171137
-0.287093
0.988223
0.909434
0.13683
0.521557
0.528016
0.524776
0.529706
0.532834
0.533633
0.53134
0.527886
0.518847
0.52026
0.517214
0.51823
-0.101913
-0.24331
-0.0716451
-0.146156
0.145192
0.628234
0.363359
0.298752
0.294072
0.522823
0.916983
0.700171
0.670058
0.67115
-0.343413
0.045558
-0.279777
0.335166
0.162232
0.65095
0.698454
0.718541
0.667691
0.621364
-0.101124
0.555806
-0.0736178
-0.0214027
0.180105
0.0561146
0.662057
0.639739
0.646849
0.654109
0.668284
0.643607
0.627089
0.626605
0.648673
0.651831
0.483502
0.250067
0.200751
0.162291
0.642483
0.517489
0.5682
0.490167
0.521438
0.52398
0.522628
0.504054
0.511653
0.507165
0.51376
0.517378
0.525913
0.526389
0.521651
0.523781
-0.0568662
-0.063475
-0.026356
-0.135325
-0.128131
-0.19024
-0.060184
0.0749258
0.0361163
0.237225
0.341516
0.0521614
-0.0570488
-0.0297518
0.012267
0.179882
0.208119
0.0745521
0.162014
0.153565
0.134767
0.23745
0.24074
-0.0286787
-0.0308734
-0.0354133
-0.0371981
0.018785
0.0900547
0.0995397
-0.00667073
-0.0125245
-0.0433319
-0.0435685
-0.0218261
-0.0275729
-0.022418
0.00504005
-0.0529955
-0.0204695
-0.00654146
-0.00395405
-0.00537964
-0.0107975
0.518221
0.52
0.520371
0.527226
0.540316
0.555068
0.520668
0.497212
0.487985
0.491007
0.463865
0.47418
0.469948
0.483591
0.504636
0.513599
0.511826
0.514689
0.496749
0.498552
0.485121
0.488785
0.463812
0.444475
0.432546
-0.0428782
-0.00483059
-0.0124007
-0.0386456
-0.00973523
-0.0214517
-0.0104572
0.00793636
-0.00829756
-0.00930166
-0.0191213
-0.0261118
-0.0258025
-0.0731207
0.0135067
-0.18438
-0.220012
-0.292954
0.890436
1.01461
0.809923
0.58299
0.603208
0.846355
0.930948
0.543208
0.735473
0.758664
0.58684
0.854263
0.526407
0.526003
0.523603
0.523083
0.524303
-0.00722125
0.0989927
0.0973481
0.160589
0.276891
0.388544
0.319231
0.194164
0.324276
0.326756
0.620933
0.633197
0.588405
0.61254
0.612537
0.424975
0.500615
0.552252
0.513172
0.565158
0.58662
0.540652
0.573575
0.523299
0.478704
0.474815
0.424537
0.444187
0.41985
0.402963
0.515625
0.49311
0.50373
0.4943
0.5148
0.543039
0.539498
0.561441
0.576423
0.497795
0.452724
0.46211
0.492307
0.453695
0.469235
0.485352
0.232541
0.134508
0.217387
-0.0677362
0.00322417
-0.00939527
-0.0579939
-0.00686907
0.277366
-0.413666
-0.390369
-1.01748
0.503655
0.954464
0.594526
0.569787
0.668638
0.653173
0.659337
0.676289
0.675666
0.631023
0.640425
0.645276
0.598179
0.619036
0.638036
0.634358
0.524485
0.382544
0.381637
0.329643
0.199782
0.239574
0.435854
0.359986
0.285026
0.285168
0.456493
0.34311
0.412994
0.446635
0.377964
0.332599
0.535083
0.601265
0.594963
0.568011
0.479353
0.491583
0.516031
0.549446
0.573707
0.606133
0.513164
0.519107
0.520338
0.517807
0.515083
0.51818
0.518467
0.521028
0.521621
0.524635
0.523698
-0.0518476
-0.037617
-0.0510123
-0.0625659
-0.0192267
-0.0210409
0.0228007
0.0106198
-0.015125
-0.0106478
-0.0329266
-0.0369304
-0.0336573
-0.0255339
0.102378
0.114964
0.0990543
0.0601299
0.251041
0.380583
0.455043
0.33039
0.224254
0.247821
0.266731
-0.0119185
0.0133248
0.000593693
0.0401998
0.0322913
-0.0380332
-0.0416294
-0.0378933
-0.030462
-0.0218397
-0.0373169
-0.0425098
-0.033539
-0.0380524
-0.0406697
-0.0441131
0.499479
0.492922
0.494541
0.488405
0.487132
0.501534
0.505854
0.507796
0.513333
0.515784
0.505603
0.511169
0.515174
-0.011707
-0.0347902
-0.0383153
-0.0288734
-0.0311842
-0.0286787
-0.0301659
0.123248
0.0541675
0.0580178
0.0107424
-0.121376
-0.0634093
0.491534
0.490289
0.47971
0.720884
0.570129
0.490868
0.587921
0.69361
0.275872
0.472713
0.307751
0.888268
0.784803
0.931134
0.542175
0.245531
0.40931
0.452147
0.265572
0.341194
0.324592
0.213629
0.244376
0.282456
0.381383
0.265639
0.242405
-0.00102885
0.1896
0.301681
0.283495
0.408114
0.468767
0.266472
0.186226
0.141272
0.605874
0.625332
0.638273
0.611211
0.632433
0.580873
0.573035
0.588334
0.596235
0.59083
-0.745677
-0.452122
-1.39878
-0.721226
-0.266067
0.534156
0.505949
0.76934
0.645845
0.681905
0.666752
0.625522
0.595252
0.619478
0.642313
0.340734
0.451399
0.426604
0.432279
0.334877
0.265201
0.562933
0.560008
0.593593
0.616938
0.588556
0.618618
0.510986
0.510713
0.510166
0.506397
0.50466
0.50703
0.0588747
0.0263947
0.0666277
0.0496364
0.027088
0.0142864
-0.00995748
-0.0198753
-0.0270432
-0.0267231
-0.0125249
-0.00846295
0.171555
0.109046
0.0295984
0.0584828
-0.00219536
-0.0705437
-0.0896067
0.0156452
0.111699
0.101904
0.40516
0.654859
0.474873
0.642329
0.484798
0.540652
0.468217
0.459618
0.484564
0.379619
0.460025
0.249353
-0.258607
-0.167729
0.794371
0.805223
0.58101
0.405704
0.173782
0.351745
0.541376
0.471534
0.506949
0.575958
0.563133
0.029006
0.0867943
0.37325
0.600083
0.240545
0.231606
0.225038
0.409215
0.327518
)
;

boundaryField
{
    wall-4
    {
        type            zeroGradient;
    }
    velocity-inlet-5
    {
        type            zeroGradient;
    }
    velocity-inlet-6
    {
        type            zeroGradient;
    }
    pressure-outlet-7
    {
        type            fixedValue;
        value           uniform 0;
    }
    wall-8
    {
        type            zeroGradient;
    }
    frontAndBackPlanes
    {
        type            empty;
    }
}


// ************************************************************************* //
