/*--------------------------------*- C++ -*----------------------------------*\
  =========                 |
  \\      /  F ield         | OpenFOAM: The Open Source CFD Toolbox
   \\    /   O peration     | Website:  https://openfoam.org
    \\  /    A nd           | Version:  13
     \\/     M anipulation  |
\*---------------------------------------------------------------------------*/
FoamFile
{
    format      ascii;
    class       surfaceScalarField;
    location    "68";
    object      phi;
}
// * * * * * * * * * * * * * * * * * * * * * * * * * * * * * * * * * * * * * //

dimensions      [0 3 -1 0 0 0 0];

internalField   nonuniform List<scalar> 
1300
(
3.75095
5.62643
-3.32624
3.75095
-7.7296
5.62643
-4.38869
4.38869
-0.383282
0.383282
1.87639
1.87457
-2.68396
2.68396
-2.11355
2.11355
-2.52345
2.52345
-5.24637
5.24637
-5.06831
5.06831
4.65482
-4.65482
-6.31024
6.31024
-0.941964
0.941964
-3.68338
3.68338
3.16961
-3.16961
-2.07855
2.07855
0.0261069
-0.0261069
-0.553474
4.30443
3.19748
3.19748
-2.01448
2.01448
-4.86799
4.86799
6.2179
-6.2179
5.30834
-5.30834
-1.9821
-2.44856
1.78761
-11.5103
-5.94199
-5.94199
-8.44038
8.44038
-2.81395
2.81248
2.94621
-2.94621
-1.77349
1.77349
-4.34926
-0.039433
-4.34926
4.35977
0.0289193
4.35977
-0.466319
0.0830368
-0.466319
3.99106
-3.99106
0.297697
0.0855849
0.297697
3.06535
-3.06535
-1.87712
3.7535
1.87384
-1.8719
6.17632
-1.87906
3.75362
-6.01539
6.01539
-2.9297
0.245741
-2.9297
2.47214
0.21182
2.47214
-6.85058
6.85058
-2.1417
0.0281439
-2.1417
2.08374
0.0298096
2.08374
2.88102
-2.88102
-2.63267
0.109212
-2.63267
2.39372
0.129737
2.39372
0.353525
5.2729
-5.97996
8.79243
-5.2729
0.0265325
5.2083
0.038068
5.2083
-5.10587
0.0375601
-5.10587
5.01356
0.0547501
5.01356
4.7406
-0.0857759
4.7406
-4.77278
0.117956
-4.77278
-3.38596
-4.05325
-6.46225
0.152017
-6.46225
-1.03474
0.0927783
-1.03474
0.825887
0.116077
0.825887
-3.68491
3.68491
-4.1037
0.420313
-4.1037
3.12398
0.0456341
3.12398
1.86849
1.88246
5.61944
-5.61944
2.44983
-2.04975
-0.0288076
-2.04975
-2.14031
-3.16803
2.14031
-0.0617537
-0.203059
0.229166
-0.203059
3.15943
0.0380453
3.15943
2.23528
0.158435
-2.23528
0.2208
3.275
-3.275
1.33992
0.67456
1.33992
-5.56525
5.56525
4.95594
0.0576207
-4.95594
0.0879519
6.15616
0.0617397
6.15616
-6.19953
-0.0183758
-6.19953
2.5313
-4.97986
-2.61746
6.12673
0.183501
-6.12673
0.184743
2.91811
0.0281055
2.91811
-2.91979
2.91979
-2.9847
0.0384876
-2.9847
-2.1723
0.39881
-2.1723
1.47484
0.298652
1.47484
-4.24959
-0.0996709
-4.24959
-4.25022
0.146524
4.25022
0.109552
1.12877
-1.12877
-0.593387
0.127068
-0.593387
-4.1145
-0.135091
4.1145
-0.123436
-3.88114
-0.109925
-3.88114
-3.02452
0.0398219
3.02452
0.0408217
3.11288
0.0465534
-3.11288
0.0475346
-1.87082
3.75328
-1.88014
3.75397
-5.63514
-0.380254
-5.63514
6.32643
-0.311033
6.32643
3.32435
0.359037
-3.32435
0.394644
2.3101
0.16204
2.3101
-6.81272
-0.037863
-6.81272
6.83559
0.0149866
6.83559
2.20163
0.108477
-2.20163
0.0599293
2.06238
0.0213665
2.06238
2.90086
-0.019837
2.90086
-2.87527
-0.00574723
-2.87527
2.79421
-2.79421
2.72064
0.0735693
-2.72064
0.087973
-11.1329
11.1146
-0.035054
-11.0979
5.17325
5.17325
4.16757
0.57303
4.16757
-4.99098
0.218203
-4.99098
2.67949
-5.29695
3.06425
-6.45021
4.66686
-16.1771
4.30563
-8.35888
6.70252
-6.70252
6.59175
0.110771
-6.59175
0.129501
-1.15421
0.119465
-1.15421
-3.08259
-0.602316
-3.08259
4.3274
-0.64249
4.3274
-3.02813
3.02813
-3.07744
0.0493125
3.07744
0.0465389
2.04675
0.015622
-2.04675
-0.00299125
0.243805
0.0538924
-0.243805
0.0407453
3.48724
-0.212245
3.48724
-3.07723
-0.197765
-3.07723
-1.25201
0.0977992
1.25201
0.0879142
-5.81377
0.248515
-5.81377
-11.1909
0.0929903
-11.1528
-6.10654
-6.10654
2.33385
11.1263
-2.89335
0.0180773
2.89335
0.0247603
2.97515
0.0529786
-2.97515
0.0553589
-2.86043
0.0662178
2.86043
0.0593633
-2.54709
0.374784
-2.54709
-1.07271
1.07271
-1.23862
0.165916
1.23862
0.236219
1.40057
-0.271802
1.40057
0.714052
0.111835
-0.714052
0.120666
-3.78245
-0.0986851
-3.78245
6.56165
-0.235218
6.56165
-2.96266
-0.114576
2.96266
-0.0618001
-0.0333675
11.1479
-5.13988
0.0340104
5.13988
-11.2097
11.2437
-3.21773
0.670644
3.21773
0.949841
5.28503
0.280219
-5.28503
0.29405
6.78606
0.0495297
-6.78606
0.0835381
-2.59002
-0.492571
-2.59002
-5.05302
-0.582121
5.05302
-0.72562
-11.4742
-0.204148
11.6784
-11.4195
6.01792
0.138249
-6.01792
11.3819
-1.03004
-0.0987271
1.03004
0.0426638
1.72812
-0.32755
1.72812
3.68214
-0.194901
-3.68214
-0.100309
-6.71585
-0.0968647
6.71585
-0.154205
-2.14516
-0.444862
2.14516
-0.417041
-4.26712
4.30516
1.90921
-2.38579
-2.59406
-5.55383
1.85185
1.90143
4.30168
-10.1529
-6.02422
-9.96816
7.26222
-6.96817
-9.24411
9.15833
7.87905
-7.98898
-5.78485
5.83139
6.48287
-6.44205
1.87881
1.87469
8.02067
-7.77493
-15.5979
15.2176
7.52018
-7.49204
15.7497
-15.7876
-17.8335
17.883
-5.70236
5.81157
-6.73965
6.73391
-6.97456
6.91276
-2.83769
-3.61252
13.1101
-12.9581
8.56326
-8.59206
-8.61483
9.03514
3.38259
0.922569
3.42915
-1.88215
3.76096
-1.87147
3.78068
2.7126
-5.55029
2.58435
-5.17841
4.34497
4.21829
-4.28321
-1.27062
-5.92464
5.95274
-5.81361
5.87298
9.12633
-9.16576
-1.88517
3.75986
-1.86881
3.77024
-3.42502
-2.35983
3.37938
0.922301
8.06891
5.04124
-8.25241
-1.71575
-8.03566
7.84076
-8.22857
8.03081
-0.434153
5.81868
-5.38452
4.43384
-1.56312
7.3818
5.6991
5.9173
5.86638
-5.58616
1.10179
-6.48632
-6.39837
-2.29158
2.41865
2.19408
-2.10849
6.13176
1.7473
6.00832
-5.75579
-2.23319
-5.85447
3.82064
2.01074
3.86996
4.07839
2.40448
4.11821
3.03046
-3.03595
0.00548041
-3.05662
6.08708
0.723913
-5.41645
-4.49415
4.97477
3.0459
5.18659
-5.55715
-2.21778
-5.16251
-9.53421
-6.06367
-10.1163
10.0779
5.13972
9.76686
-11.9489
11.7947
4.79354
2.72665
4.82335
-4.92806
-2.56398
-4.86813
11.6409
-2.6383
-9.00256
-10.3089
-7.52457
10.294
5.45578
10.9532
6.92988
11.0367
4.42338
7.21748
-9.87917
2.3546
-3.86744
-1.83492
-3.77946
3.66938
2.14219
3.79911
-4.21736
-2.52229
-4.19929
-4.2955
-2.67906
4.31534
2.41857
-4.41659
-3.81198
4.53116
2.38159
4.03683
-10.0611
4.32205
-7.93457
-9.19121
-3.76692
-9.06171
3.51159
2.60924
-6.12083
-2.0387
8.48773
-4.26944
7.21711
-5.17964
-3.41243
-5.18263
-6.87876
-1.73607
-6.73224
-8.87613
8.38356
-9.17165
8.52916
12.516
-5.64365
-6.87234
-3.96844
-2.47361
3.9209
-0.491756
-3.71051
3.71599
0.0504574
3.83113
4.7537
4.26195
-3.88421
-1.9294
-3.82885
3.82411
2.04887
3.89032
6.83359
2.29274
6.86251
-6.60208
-2.56368
-6.70175
9.0397
-8.64089
2.8374
-2.73961
5.39482
2.63598
-5.18258
-2.85309
6.21191
-3.21805
-2.99386
-12.1979
10.5298
1.66817
-4.81612
-0.382286
-0.408393
-5.4889
-3.75521
5.37095
0.546357
11.0761
7.3209
-5.51301
5.76153
6.16538
6.223
-0.175367
5.80745
-5.1368
5.2581
-2.58971
-2.66839
5.4641
-5.59919
-1.23764
-5.51198
4.27434
0.409125
1.5032
-1.27403
-1.8009
-0.490684
-1.68023
1.29679
0.897289
1.35068
0.943555
1.47509
-2.95993
0.550363
2.40956
-2.01637
-1.55813
-3.80958
-1.14431
4.95389
5.73331
2.10745
-5.63301
-0.221469
2.54042
-2.42434
-0.768779
-3.0408
2.24972
-3.0185
-3.67374
-2.06784
5.74158
-3.36973
-0.459118
3.31676
0.5532
-3.82715
-2.09749
3.78866
0.329552
-3.12807
6.19088
-3.06281
-5.05747
2.52763
3.55946
4.53837
-4.78951
2.44759
2.34192
-1.23005
4.24668
0.939904
4.40872
-6.93552
4.71774
5.80175
3.23339
-6.16078
0.998276
-5.93725
8.5438
-7.36943
-1.17437
4.16144
4.38235
7.06314
5.45286
-5.67334
12.7365
-1.20043
-6.169
7.13767
-3.90428
4.84465
-8.74893
-10.2975
4.1285
-9.13129
10.9056
-1.77432
-3.62125
-8.32766
12.7525
-1.20399
-11.5485
8.56288
-4.27187
-4.36656
8.63843
-6.91017
6.93054
-1.99386
-4.93667
-10.096
-5.69155
10.1929
1.60178
-9.91392
12.2685
-2.69643
4.11149
0.711851
4.13286
3.30092
-5.48764
2.18672
3.60925
-5.60312
2.08012
-7.56776
-6.72698
12.0609
-5.3339
-10.4939
-9.51087
-0.983041
2.53608
9.73244
-9.46596
7.42511
2.04085
3.30064
0.589682
-3.37421
-0.405252
0.239924
4.52161
-4.76153
4.03904
4.19747
3.27498
1.24663
3.84533
2.10741
-3.87009
-0.329192
-4.1636
1.48454
-1.74503
-3.69391
5.17845
-4.06745
0.373542
-2.74691
-3.4983
6.2452
-4.58183
3.03562
3.15526
5.08449
-4.91344
1.41515
-2.39268
-2.52076
2.6523
-4.39733
1.99203
3.18641
4.37363
0.561643
5.87274
6.18815
-8.48198
0.547413
11.2294
-9.51364
2.46288
8.57381
-9.88799
0.377127
-8.68458
0.995489
-5.26493
-5.12535
5.18831
-6.92438
-3.56062
6.21054
0.651969
-6.32009
-0.412143
-6.03292
-2.84321
-6.47778
-3.04228
-6.12937
-8.71562
-1.65187
-7.06375
6.73169
-6.67807
-3.43826
7.40369
1.12547
-7.40908
7.31035
-7.48713
7.15958
0.0953821
3.6206
4.35733
1.88372
-2.39055
4.27427
-5.11924
7.41198
-8.71003
3.59079
4.19256
-6.75625
-4.51747
5.02217
4.01752
5.32082
8.88414
-10.3526
1.46848
-10.6548
11.9872
-1.33241
-16.415
5.76014
-7.53081
2.44069
0.39671
2.56016
0.545002
2.49807
-3.04307
-2.1946
-2.10669
-2.43614
-3.46614
5.90228
1.0975
-3.52708
2.42958
-3.56842
4.66593
-0.210015
-3.31706
5.27377
-2.7757
5.67048
-3.77844
1.89204
3.43621
5.7532
-2.31699
4.39508
-1.7591
1.92414
-4.24114
-1.542
-2.96193
5.10413
-3.28327
3.65681
-0.342596
3.99941
-4.04994
0.831893
-0.774968
3.42251
3.64331
4.31497
-3.06834
2.92003
-4.67913
-1.32111
-4.11748
-0.931068
-0.260644
-3.7051
3.96574
5.98213
-6.24277
-5.23425
9.52724
-4.29299
7.6929
-5.38146
-2.31145
-4.25268
-4.38821
3.87789
1.92956
9.62246
0.209287
-5.59074
-4.92752
-3.97768
3.10909
2.14901
-1.76174
3.42991
2.17014
-0.666941
0.432001
0.91868
1.78413
-1.35213
0.314604
1.46953
-0.959425
1.73504
0.805383
-1.84687
0.166643
-1.30914
3.55886
1.10042
-1.99771
0.645583
0.978259
-3.56797
5.04419
-2.677
-2.36719
6.02245
1.13856
-3.81556
4.37342
-3.96429
2.38426
-3.52857
-1.4313
-5.39559
-3.6483
-2.52478
4.95436
-3.3775
5.48495
1.28062
-5.26348
6.54409
-3.72612
1.65829
-3.06044
3.86582
-0.939802
-2.12063
2.90281
2.83877
-3.068
0.0271943
-0.165191
2.40877
-2.57397
-0.609728
-2.6261
-4.57344
4.90299
-2.10531
4.5529
2.16896
-1.91691
6.46981
1.80892
-3.72583
-3.24855
-3.70767
-1.3839
3.15447
-0.591856
-4.27628
-5.52853
4.1678
0.240926
-7.05978
7.8707
-0.810913
-4.01388
-0.703864
4.8653
-6.07793
0.47481
-3.99781
3.87289
4.81279
5.05372
-11.3303
-0.218274
-6.19055
1.12361
-7.31416
5.50596
-3.5393
7.6678
-10.3226
6.88439
-9.19718
6.49343
-0.820727
6.24605
-4.05933
2.75651
-8.44806
-6.84628
5.51597
-2.78932
6.22782
-3.15267
9.38049
-5.8491
5.30253
4.07797
-1.02301
-4.15961
-5.29139
4.26838
0.0111322
4.14399
4.98035
-2.87294
4.65115
2.26846
-4.66115
-2.12886
-6.49481
1.83366
-3.33955
-1.92094
3.7546
3.16355
3.75324
1.23384
-3.34798
7.18909
-8.17213
-1.85519
-3.27016
5.27324
-1.00486
3.40411
-6.67427
-1.86082
4.79632
-0.784231
-4.01208
0.847332
-4.40795
1.67535
-6.0833
5.24903
-5.66117
2.2218
-9.75261
-5.18728
-5.14461
-2.25861
-5.22852
-7.57016
5.31156
-1.81003
5.50033
-8.50602
7.72179
-3.4812
8.79275
-5.42759
-1.05019
5.84463
1.31495
10.1077
0.216536
-4.734
-1.91562
3.85434
-1.93871
1.19346
-3.48856
0.365774
2.4892
3.53325
-6.76354
0.0072892
-4.72672
-3.91685
7.93437
5.61039
11.5925
1.23989
9.11571
-1.18134
10.3556
4.13949
4.37571
-2.9909
4.45938
0.974844
4.56563
-0.924012
2.81605
1.63615
1.72893
0.695418
2.30405
1.33925
3.13595
0.0928762
-2.01381
4.62163
-8.5993
-0.969114
-8.02627
1.13206
5.70859
-4.57653
2.95637
-0.807356
1.01766
-0.0943669
-1.26301
1.35737
-2.76276
-1.92995
-0.46042
-1.69125
2.33683
1.86762
-1.87641
-0.886353
0.358681
-4.00698
3.16989
-3.1427
-0.303927
6.24017
-2.8223
0.248337
-1.16401
-2.37776
-2.86845
2.7018
6.17598
0.293822
3.11317
5.19681
3.09932
0.226385
3.88486
-5.65919
-3.6829
-5.87746
-0.371496
4.49381
1.75598
7.97647
5.83395
4.82908
-1.84519
-10.0173
6.518
-2.05862
5.18559
-1.17351
-4.9098
5.04578
2.3662
-5.69775
0.0365773
-4.87322
-6.93183
-0.513614
8.23541
-9.59409
8.5439
5.70069
1.36306
-4.40516
-0.739449
4.23925
0.136458
10.4921
-1.12854
-6.7243
7.85284
-4.58005
3.61093
0.75123
2.67868
2.1086
1.30125
-5.42305
-9.99958
-2.05032
-1.51765
-4.41751
0.536383
-2.404
6.22313
-2.61219
3.91168
5.24065
6.2583
-2.13232
-4.11045
6.42531
-2.51363
3.74468
)
;

boundaryField
{
    wall-4
    {
        type            calculated;
        value           uniform 0;
    }
    velocity-inlet-5
    {
        type            calculated;
        value           uniform -3.75095;
    }
    velocity-inlet-6
    {
        type            calculated;
        value           uniform -5.62643;
    }
    pressure-outlet-7
    {
        type            calculated;
        value           nonuniform List<scalar> 8(3.32624 7.7296 4.43066 9.72266 7.43921 5.14876 5.74373 8.97249);
    }
    wall-8
    {
        type            calculated;
        value           uniform 0;
    }
    frontAndBackPlanes
    {
        type            empty;
    }
}


// ************************************************************************* //
