/*--------------------------------*- C++ -*----------------------------------*\
  =========                 |
  \\      /  F ield         | OpenFOAM: The Open Source CFD Toolbox
   \\    /   O peration     | Website:  https://openfoam.org
    \\  /    A nd           | Version:  13
     \\/     M anipulation  |
\*---------------------------------------------------------------------------*/
FoamFile
{
    format      ascii;
    class       volVectorField;
    location    "68";
    object      U;
}
// * * * * * * * * * * * * * * * * * * * * * * * * * * * * * * * * * * * * * //

dimensions      [0 1 -1 0 0 0 0];

internalField   nonuniform List<vector> 
918
(
(0.98516 -0.000507355 0)
(0.00501268 2.96625 0)
(0.00598561 0.886843 0)
(0.979704 0.0021456 0)
(-0.014655 2.06034 3.30418e-20)
(-0.00704716 2.94879 -2.46209e-18)
(0.819744 1.1634 4.49364e-19)
(0.112152 0.0691092 -1.47164e-20)
(0.999909 -0.000276616 0)
(0.0665792 0.732187 0)
(0.0103224 0.505822 0)
(0.732657 -0.00298591 0)
(0.0111359 2.93031 0)
(0.00295586 2.7949 0)
(-0.0177762 3.149 7.80225e-19)
(-0.0187316 1.9179 9.4229e-21)
(0.282489 0.0508463 1.01806e-18)
(0.1888 1.14287 3.16521e-19)
(0.962723 0.00501654 0)
(0.00745094 0.476536 0)
(-0.01781 0.0841981 -6.9292e-19)
(1.00197 -0.00497513 0)
(1.00023 -0.00978449 0)
(0.975738 -0.00643883 0)
(0.598488 0.0276287 0)
(0.0145895 2.6413 0)
(-0.0148004 2.90996 9.05356e-19)
(0.00988398 0.934881 0)
(-0.0167672 1.18089 0)
(0.0105705 0.917452 0)
(-0.0173513 2.59246 0)
(-0.00344979 2.11151 -2.6388e-20)
(-0.010309 1.89632 0)
(-0.0205983 2.98761 -8.84783e-23)
(-0.0166847 3.00529 1.91341e-18)
(0.00210352 3.00018 0)
(0.871397 -0.00965632 0)
(0.402683 0.933159 1.8034e-19)
(0.804937 1.17763 -5.1301e-19)
(0.956507 1.0231 5.57569e-19)
(0.673484 1.26945 -1.04106e-19)
(0.674372 1.24369 5.9927e-19)
(0.149978 0.123518 1.43569e-20)
(0.138275 0.0538017 0)
(1.16036 0.563124 0)
(0.124576 0.10161 6.52599e-20)
(0.0861696 0.0574191 -6.77174e-20)
(0.91991 -0.00745819 0)
(1.00027 0.000161326 0)
(0.999909 0.000338564 0)
(1.00363 -0.00775931 0)
(1.00096 -0.000918682 0)
(1.00017 3.71444e-05 0)
(0.0731683 1.8262 -7.72444e-19)
(0.0322434 0.946361 0)
(0.0996974 0.812515 0)
(0.0132417 0.89517 0)
(0.0396161 0.650478 0)
(0.006978 2.0148 0)
(-0.0036721 0.797039 0)
(0.0112666 0.515656 0)
(-0.003285 0.789009 0)
(0.00882632 0.49597 0)
(0.841792 -0.015681 0)
(0.841062 0.0295803 0)
(0.762148 -0.00537588 0)
(0.801466 0.0307438 0)
(0.702142 0.0094553 0)
(0.0146877 3.00041 9.12575e-19)
(0.0115008 3.00807 0)
(0.00610893 3.00276 0)
(0.0135575 2.99738 1.03535e-23)
(0.00795849 2.95846 -1.35631e-18)
(0.0144937 2.98197 0)
(0.0108655 2.90358 0)
(0.0246516 2.93041 2.07178e-24)
(0.00461565 2.82505 0)
(0.0309157 2.91635 0)
(-0.0050999 2.74616 0)
(0.305213 3.54193 0)
(-0.131546 3.62265 0)
(0.137772 3.23895 -7.26071e-19)
(-0.0135266 2.97709 0)
(-0.0226035 1.98393 0)
(-0.00786254 2.16785 -9.29373e-21)
(-0.0127519 1.92623 3.28047e-21)
(0.344881 0.142458 -3.53562e-19)
(0.313144 0.0292337 -3.43629e-19)
(0.299647 0.147985 -1.05832e-18)
(0.2448 0.0585262 -6.8784e-19)
(0.229266 0.9834 0)
(0.272179 1.29344 -3.67882e-19)
(0.365659 1.2274 6.13555e-19)
(0.987433 0.00857341 0)
(0.941855 0.00582543 0)
(1.0003 0.000581084 0)
(1.00286 0.00930958 0)
(1.00301 0.0084719 -2.74469e-18)
(0.991907 0.0096956 2.07269e-18)
(-0.00999395 0.784431 0)
(0.00908919 0.485576 0)
(-0.0452793 1.00605 0)
(-0.0252666 0.827284 0)
(0.00573862 0.477574 0)
(-0.0335747 0.107258 2.14547e-19)
(0.0631343 0.0696081 0)
(0.993554 -0.00837027 0)
(0.954467 -0.00653196 0)
(0.743801 0.0298205 0)
(0.680694 0.0241738 0)
(0.662074 0.0184732 0)
(0.971323 -0.00731007 0)
(0.592591 0.0722486 0)
(0.451504 -0.00946682 1.54122e-18)
(-0.0369269 2.86269 6.67111e-19)
(0.0411875 2.91033 0)
(0.0537659 2.88589 0)
(-0.00407856 2.70055 0)
(-0.0133339 2.98502 8.57255e-19)
(-0.0178847 2.89488 0)
(-0.0154856 2.98803 -2.65828e-18)
(-0.0132671 2.92515 9.10255e-19)
(-0.0257503 1.34419 0)
(-0.00259089 1.37287 0)
(-0.00827614 2.13235 5.12641e-22)
(-0.00745468 2.09352 0)
(-0.0210234 1.90506 0)
(0.93864 -0.00737666 0)
(0.857564 -0.00997884 0)
(0.863303 0.00547324 0)
(0.949625 -0.0078049 0)
(0.88409 -0.00819407 0)
(0.514111 1.12609 -2.27715e-19)
(0.563287 1.1771 0)
(0.367295 0.878137 3.36424e-20)
(0.309957 0.736806 0)
(0.917633 1.0604 -1.53836e-19)
(1.03592 0.869765 3.12995e-19)
(0.358437 1.35459 0)
(0.526042 1.32522 0)
(0.548943 1.26397 0)
(0.121007 0.184827 -3.02293e-19)
(0.175088 0.126845 0)
(0.177459 0.076956 1.91031e-19)
(1.00685 0.924329 0)
(1.08091 0.778242 0)
(1.10607 0.719814 -2.49007e-19)
(1.13977 0.622579 0)
(1.19038 0.406404 5.73347e-20)
(0.957777 -0.00869427 0)
(0.962524 -0.010029 0)
(0.901774 -0.00798702 0)
(0.984207 -0.00914417 0)
(0.974717 -0.0093289 0)
(0.937143 -0.00637387 0)
(1.00019 0.00234023 0)
(1.0009 0.00141545 0)
(0.999909 0.000855371 0)
(0.0356189 2.0731 4.28083e-19)
(0.118779 1.76904 0)
(0.018159 2.18698 6.57986e-19)
(0.0461456 1.88045 -5.48573e-19)
(0.106346 1.14867 -2.59182e-19)
(0.0493698 1.02791 0)
(0.142937 0.979251 0)
(0.00483434 0.850631 0)
(0.0166699 0.587125 0)
(-0.00105838 2.24231 -8.19183e-22)
(0.0160503 2.01906 0)
(-0.00200054 2.24485 -2.90214e-20)
(0.00856084 2.0243 4.48708e-20)
(-0.000799379 0.826097 0)
(-0.0039458 0.810072 0)
(0.0110095 0.541178 0)
(-0.00835231 0.785453 0)
(0.00625266 0.486214 0)
(0.93855 0.0098199 0)
(0.850395 -0.0146082 0)
(0.927705 0.000450714 0)
(0.842671 -0.0128742 0)
(0.811799 -0.0027928 0)
(0.897873 0.0234228 0)
(0.87328 0.0277172 0)
(0.787718 -0.00616921 0)
(0.00564466 3.0648 -8.50441e-21)
(0.0165882 3.05769 0)
(0.0146066 2.96902 0)
(0.00866818 2.87626 0)
(0.920549 3.95439 0)
(1.23385 3.28792 9.26293e-19)
(0.0690086 3.06951 0)
(-0.0295227 2.90237 0)
(-0.00949982 1.39545 0)
(-0.0262123 1.69559 0)
(-0.0150313 1.53079 0)
(-0.0292954 2.55335 -1.20688e-20)
(-0.0135728 2.24594 0)
(-0.0192983 2.39214 0)
(0.000243881 1.95177 8.09261e-22)
(-0.00414916 2.24083 -7.69275e-21)
(-0.00625953 2.20247 -3.48751e-21)
(-0.00703555 1.93793 0)
(0.39792 0.124463 5.40178e-19)
(0.362014 0.0184717 -5.3005e-19)
(0.258789 1.58508 0)
(0.277543 0.75647 -3.15716e-19)
(0.177043 1.67235 -1.04831e-18)
(0.22596 1.22002 1.05061e-18)
(0.90199 0.00635807 0)
(0.967384 0.0111386 0)
(0.974535 0.010816 0)
(0.923283 0.00640687 0)
(-0.00885749 0.782827 0)
(-0.00897637 0.780076 0)
(0.00491071 0.481354 0)
(0.113879 0.0860857 6.04324e-19)
(0.102408 0.0736339 -7.15305e-19)
(0.0698332 0.0552831 0)
(1.09955 0.086427 2.70466e-20)
(1.08164 0.03961 0)
(1.01358 0.0400949 0)
(0.907538 -0.00539939 0)
(0.451019 0.104957 0)
(0.510811 0.0873222 -2.46265e-18)
(0.406991 0.0119222 9.20882e-19)
(0.00865987 2.98075 7.17807e-19)
(-0.0329478 2.86502 4.59674e-20)
(0.00362403 3.05031 -1.80108e-20)
(0.0201695 3.0433 6.40111e-19)
(-0.0149762 2.99656 2.98984e-20)
(-0.0129595 2.94945 -1.2025e-22)
(-0.0172881 3.01192 -5.53198e-19)
(0.0149251 3.02366 4.01032e-19)
(0.00743779 3.03696 -6.35275e-19)
(0.934094 -0.0011805 0)
(0.939536 -0.00317389 0)
(0.846087 -0.009458 0)
(0.956505 0.0119312 0)
(0.94259 0.0133112 0)
(0.881569 0.00580812 0)
(0.916156 0.0183806 0)
(0.925609 0.0153289 0)
(0.838507 0.00141343 0)
(0.716563 1.40315 3.98679e-20)
(0.749832 1.51179 0)
(0.181354 0.315201 7.0587e-20)
(0.22862 0.668917 5.68228e-19)
(0.262373 0.720436 -3.32044e-19)
(0.262972 0.521093 6.60718e-19)
(0.346121 0.811091 1.59095e-18)
(0.140581 0.230112 3.75639e-19)
(0.25572 0.150037 7.27786e-19)
(0.213665 0.1445 1.88679e-19)
(0.211972 0.0689486 3.57323e-19)
(1.17941 0.464419 6.42302e-20)
(1.19493 0.257177 5.94939e-20)
(0.0102772 2.2356 2.53288e-19)
(0.0404561 1.94865 0)
(0.970894 0.0294181 0)
(0.943498 0.0139753 0)
(0.869277 -0.0178649 0)
(0.0114467 3.07447 0)
(0.0198209 2.94415 1.17153e-18)
(0.0164017 2.95641 0)
(0.00633274 2.85051 -1.16229e-18)
(0.00628382 3.09142 2.84351e-19)
(0.0069891 3.08212 0)
(0.782587 1.81322 -1.58769e-19)
(1.24166 2.4888 4.03303e-19)
(0.764545 1.95255 -1.2288e-18)
(0.0196773 2.9811 -6.17107e-19)
(0.0348625 2.99938 0)
(-0.0346977 2.87685 0)
(-0.00417149 2.2243 -1.30815e-20)
(-0.0035723 2.24537 1.16181e-20)
(0.00228729 1.98634 -7.25423e-21)
(0.278206 1.39439 1.02475e-18)
(0.238903 0.550921 -7.02655e-19)
(0.0638211 1.99783 7.62495e-19)
(0.135274 1.88409 -9.10183e-19)
(0.180186 1.51164 9.49859e-20)
(0.00442625 3.11897 -1.58112e-18)
(0.0105535 3.11936 1.7275e-18)
(-0.00922551 2.98076 7.88797e-19)
(-0.00465114 2.97734 -7.44008e-19)
(-0.0212037 2.88044 -8.03381e-19)
(0.00840127 3.09997 -2.11295e-18)
(0.00192429 3.10485 2.125e-18)
(0.282185 0.695288 0)
(0.248421 0.684256 -1.18101e-18)
(0.0959515 0.225176 5.24322e-19)
(0.357794 0.938189 1.11264e-18)
(0.19571 0.276135 -1.71543e-18)
(1.18639 0.17525 6.27293e-20)
(1.19534 0.311855 0)
(1.17478 0.122909 -6.03469e-21)
(0.0014702 2.25408 -1.46887e-21)
(0.00492866 2.24551 0)
(0.0247324 1.98439 0)
(0.340063 1.30324 -3.6794e-19)
(0.374814 1.15006 -7.99919e-19)
(0.210364 0.378114 1.42623e-18)
(1.00588 -0.0108278 0)
(1.00767 -0.00763342 5.06325e-19)
(-0.0229738 1.32505 0)
(-0.0392569 1.32451 0)
(1.00221 0.0035146 1.81165e-21)
(1.00366 0.00947039 1.03383e-18)
(-0.0203264 2.53765 1.52992e-20)
(-0.0246821 2.5798 0)
(0.0338662 3.17695 4.07352e-19)
(0.390733 3.48391 0)
(1.17548 0.663998 -5.70572e-20)
(1.01285 0.0131447 -2.13468e-21)
(1.02135 -0.0102825 0)
(1.0017 0.000130849 7.83452e-23)
(0.11383 1.37038 0)
(0.143628 2.56819 0)
(0.0265233 1.31108 0)
(0.000130385 2.61976 2.78747e-20)
(-0.0209387 2.57708 3.44078e-21)
(0.9984 0.0299089 2.1729e-21)
(1.06316 0.00469246 0)
(1.09771 0.0251842 0)
(-0.0280365 1.73819 0)
(-0.018364 2.5792 0)
(-0.00516577 1.31229 0)
(0.311425 1.48204 -1.68083e-19)
(1.01131 -0.00961424 0)
(1.0094 -0.0149144 0)
(1.00237 0.000754144 6.47069e-19)
(1.00547 -0.00479906 -7.60535e-19)
(1.00118 -0.000968586 0)
(-0.0138605 1.4633 0)
(-0.00721295 1.37479 0)
(-0.00649142 1.4204 0)
(-0.00911118 1.29991 0)
(-0.0187305 1.28689 0)
(-0.00971401 1.26997 0)
(1.03506 -0.00601929 0)
(1.01956 0.0155095 -8.44095e-22)
(0.821542 1.27363 2.60645e-19)
(1.00224 0.000320804 -6.44637e-19)
(1.00406 0.00526256 7.54666e-19)
(1.00118 0.00207595 0)
(1.01272 0.010365 6.41522e-19)
(1.00798 0.008315 -7.77302e-19)
(1.00856 0.0146974 0)
(-0.0236257 2.60716 0)
(-0.0257882 2.58708 -2.02265e-20)
(-0.0231778 2.60084 1.42784e-20)
(1.23799 0.268206 5.80068e-19)
(1.16267 0.0872164 0)
(0.0399239 3.07807 -9.10704e-19)
(0.0647897 2.85644 -6.62321e-20)
(0.138293 3.19204 1.39541e-18)
(0.133244 3.21979 -1.9706e-19)
(0.132796 3.23076 0)
(0.0189714 3.13742 2.35156e-19)
(0.0741052 3.15975 8.98131e-19)
(0.0667602 3.1851 -4.43276e-19)
(0.0219633 3.12963 0)
(0.58116 0.282702 0)
(0.516066 0.302132 0)
(1.14698 0.700068 1.29554e-19)
(1.14062 0.821481 -1.13134e-19)
(1.20339 0.586902 0)
(1.2311 0.521356 0)
(1.01603 0.0133803 -1.19581e-18)
(1.01498 0.0142805 1.50112e-18)
(1.02539 -0.00979776 0)
(1.02346 -0.011845 0)
(1.00642 0.00264055 0)
(1.01041 0.00374859 0)
(1.00458 0.00186814 0)
(1.00978 0.00625559 0)
(1.00781 0.00596737 0)
(1.00451 0.00472166 0)
(0.102792 1.36875 0)
(0.100239 1.3316 0)
(0.132496 1.40537 0)
(0.150917 1.41069 0)
(0.145397 2.59331 0)
(0.185145 2.66356 -4.23386e-19)
(0.101554 2.64854 0)
(0.0853273 2.65151 1.98187e-19)
(0.0389351 2.67439 -1.48332e-19)
(0.0138575 1.32257 0)
(0.0213495 1.2452 0)
(0.0185834 1.33271 0)
(0.0370902 1.26978 0)
(0.00431492 1.98337 3.79446e-21)
(-0.0198789 2.60478 -1.93752e-20)
(-0.00811621 2.66102 1.33044e-20)
(-0.0177887 2.68035 0)
(-0.0227164 2.61061 -3.94512e-21)
(-0.0225813 2.60557 1.3258e-20)
(0.0131893 1.98175 2.12064e-22)
(-0.00705331 2.39254 2.59936e-20)
(-0.0129127 2.41483 -1.50892e-20)
(1.0115 0.0394459 1.21135e-18)
(1.00501 0.0188486 -1.50735e-18)
(1.00413 0.0461495 -1.23396e-18)
(0.97712 0.0370353 1.55281e-18)
(1.06439 0.00851408 0)
(1.04949 -0.00820535 0)
(1.09466 0.0353746 0)
(1.07455 0.0130813 0)
(1.07237 0.000608783 0)
(1.14061 0.0836776 0)
(1.11216 0.0449021 0)
(1.11605 0.0327356 0)
(-0.0250773 2.43037 1.53848e-21)
(-0.0130401 2.01326 0)
(-0.0152831 2.21552 0)
(-0.0202985 2.59976 -1.13243e-20)
(-0.0173626 2.60948 1.91919e-22)
(0.00324087 1.57497 -3.66424e-20)
(-0.00563696 1.50299 3.73367e-20)
(-0.0153844 1.392 0)
(-0.0188886 1.3986 0)
(-0.0238004 1.39309 0)
(-0.0035014 1.31351 0)
(0.00902307 1.23808 0)
(0.386469 1.49939 2.73479e-19)
(0.429734 1.50018 1.45034e-19)
(0.597472 2.44395 -2.40319e-19)
(0.398167 2.54091 7.07249e-19)
(0.349074 2.05252 7.14899e-20)
(1.02108 -0.00810009 0)
(1.01551 -0.00973971 0)
(1.01492 -0.0155008 0)
(1.0074 -0.0010674 0)
(1.00493 -0.000906537 0)
(1.00778 -0.00468059 0)
(1.00927 -0.00360222 0)
(1.01423 -0.00436298 0)
(1.02031 0.0163746 1.17192e-18)
(1.01762 0.0154597 -1.49621e-18)
(1.0206 0.0184796 -1.18175e-18)
(1.01825 0.016942 1.4756e-18)
(0.784887 1.32483 0)
(0.721111 1.37513 2.46707e-19)
(0.897135 1.22451 9.81231e-20)
(0.943096 1.1697 -1.30573e-19)
(1.15448 2.5993 2.79456e-19)
(0.76682 0.122717 6.00029e-19)
(1.16386 0.109568 0)
(1.21305 0.195238 -4.66853e-19)
(1.20023 0.155825 -1.98797e-20)
(1.00636 0.157632 0)
(0.128788 2.95844 5.30708e-19)
(0.10488 2.86441 -1.15439e-18)
(0.0121806 2.37456 7.70666e-19)
(0.0977559 -0.158123 -3.26106e-19)
(0.33581 3.41412 -2.15513e-19)
(0.190997 3.30872 0)
(0.234941 3.34934 2.80674e-19)
(0.239637 3.03097 -1.77546e-18)
(0.332981 3.18925 0)
(0.00717857 3.12074 4.60228e-20)
(0.0173055 3.12952 -5.407e-19)
(0.0156271 3.12564 7.95824e-19)
(0.0348836 3.13951 0)
(0.0329776 3.15035 0)
(1.21011 2.59681 0)
(0.546639 0.803466 -5.27856e-19)
(1.06687 0.994284 -9.12579e-21)
(1.00167 1.0788 0)
(0.85485 0.974109 -1.09532e-19)
(1.09279 0.895369 2.78881e-20)
(0.308929 0.332197 -8.47745e-19)
(0.656073 0.325057 -1.68156e-20)
(0.551759 0.222056 4.06125e-19)
(0.541525 0.336162 2.96853e-20)
(0.433958 0.274185 -1.1927e-18)
(0.614822 0.32609 0)
(0.71206 0.42538 6.68447e-19)
(0.711834 0.425823 0)
(0.580102 0.341437 0)
(0.505413 0.247122 0)
(0.827952 0.625654 4.0961e-19)
(1.23923 0.290601 -4.88067e-19)
(1.23944 0.429558 0)
(1.24771 0.369943 0)
(0.683204 0.195633 6.20397e-19)
(0.874375 0.554311 -3.74587e-19)
(0.772301 0.528011 6.67209e-19)
(0.963092 0.447004 -7.3533e-19)
(1.01912 0.0149919 8.0212e-19)
(1.01754 0.0143632 -8.08202e-19)
(1.01591 0.0153433 0)
(1.03653 -0.00556168 0)
(1.02993 -0.00834945 -7.57312e-19)
(1.02798 -0.0119438 7.49781e-19)
(1.02487 0.0106036 0)
(1.02333 0.0144103 0)
(1.01141 0.00417311 0)
(1.01419 0.00916636 0)
(1.01515 0.00419572 0)
(1.01426 0.00290794 0)
(0.0723144 1.35255 0)
(0.0790532 1.29826 0)
(0.148829 1.38592 7.93483e-21)
(0.281803 1.48056 8.92318e-20)
(0.177123 1.45142 1.8756e-19)
(0.210109 1.45672 -3.05963e-19)
(0.174944 1.4111 0)
(0.136668 1.59956 -7.07252e-20)
(0.118009 1.57827 0)
(0.345338 2.0021 -1.03948e-19)
(0.341707 2.33802 6.14584e-19)
(0.1938 1.46404 6.16545e-20)
(0.26874 1.39669 2.32452e-20)
(0.202746 1.38964 -1.87789e-20)
(0.278228 1.33918 -1.03411e-19)
(0.242711 1.57899 0)
(0.267605 1.61609 1.12488e-19)
(0.0313734 2.25804 -2.90524e-20)
(0.0439413 2.66349 0)
(0.0668023 2.39448 1.35953e-19)
(0.063372 2.4152 0)
(0.0697427 2.66507 -2.19626e-19)
(0.0493897 2.69373 0)
(0.0275288 1.44083 3.34744e-20)
(0.0360617 1.49148 0)
(0.0297995 1.40749 0)
(0.0248072 1.41302 -3.77727e-20)
(0.000789968 2.64735 -1.70558e-20)
(0.0300074 2.69281 1.66506e-19)
(0.0106812 2.71798 1.17135e-21)
(0.00418289 1.83724 -3.86527e-21)
(-0.00136238 1.69139 -3.6642e-21)
(0.0109786 1.30137 0)
(0.020249 1.22046 0)
(0.0468923 1.59538 -2.70174e-20)
(0.0339257 1.47231 -3.37494e-20)
(0.0379787 1.53559 4.18414e-20)
(0.0409392 1.61915 0)
(-0.0292886 2.26899 9.80838e-20)
(-0.0302909 2.5467 -4.1238e-20)
(-0.0160477 2.44444 4.20126e-21)
(-0.00269009 1.8531 4.68236e-21)
(-0.0250046 2.49629 2.41736e-21)
(-0.0200737 2.44004 -4.85365e-22)
(1.01842 0.0215338 -8.00398e-19)
(1.0148 0.0278778 8.06397e-19)
(1.01306 0.0162398 0)
(1.01068 0.0708653 1.1271e-18)
(0.991882 0.059829 -1.26153e-18)
(0.950764 0.056989 1.40999e-18)
(1.01436 0.112146 -1.50385e-19)
(1.04298 -0.00554809 0)
(1.0514 -0.00115801 7.22242e-19)
(1.03925 -0.00973658 -7.23701e-19)
(1.07196 0.0429973 -4.29429e-20)
(1.06507 0.0242384 3.7037e-19)
(1.06331 0.0570745 0)
(1.05409 0.0503195 -1.33177e-19)
(1.03228 0.0426981 0)
(1.02595 0.0397272 0)
(1.0279 0.0137416 0)
(1.02384 0.016371 0)
(1.04044 0.0333267 2.74322e-19)
(1.03893 0.0276662 -6.06621e-19)
(1.05139 0.0346782 -2.90737e-19)
(1.04847 0.0348434 -3.20254e-19)
(1.07176 0.0653691 6.24912e-19)
(1.09718 0.053212 0)
(1.10632 0.0974344 0)
(-0.0247296 2.2741 5.54164e-20)
(-0.0236805 2.0181 1.13493e-21)
(-0.0196285 2.02561 0)
(-0.0269735 2.44305 -5.51644e-20)
(-0.0222629 2.39964 -2.60109e-21)
(-0.032442 2.47087 5.92528e-21)
(-0.020211 2.6182 -1.18272e-20)
(-0.0228471 2.56022 1.08869e-22)
(-0.0210108 2.51196 -3.29316e-21)
(-0.0154952 2.61231 1.02458e-20)
(-0.0202662 2.61421 -1.09919e-20)
(-0.00568483 1.49728 -6.07448e-22)
(0.00387959 1.62327 -3.47668e-20)
(0.371283 1.44777 -1.15684e-19)
(0.371153 1.38111 3.66989e-20)
(0.661621 1.42571 -2.38673e-19)
(0.52877 1.49285 -1.42647e-19)
(0.587159 1.45829 0)
(0.593227 2.42105 2.06937e-19)
(0.661664 2.41655 3.37527e-19)
(0.411058 2.51038 8.78699e-20)
(0.402247 2.5348 -6.09347e-19)
(0.509884 2.47596 6.14093e-19)
(0.553165 2.45776 0)
(0.487931 2.51524 -5.59256e-19)
(0.248246 2.58737 1.14341e-18)
(0.354635 2.55954 -7.73478e-20)
(0.283849 2.64908 -1.58618e-18)
(0.948051 2.37438 7.2715e-19)
(0.838195 2.37956 0)
(1.01108 0.000531413 2.62508e-20)
(1.01536 -0.00536241 -2.12929e-20)
(1.01768 -0.00346687 -3.88894e-19)
(1.01504 -0.000829381 3.91012e-19)
(1.01246 0.0012736 0)
(0.648008 1.29075 0)
(0.671555 1.18437 0)
(0.785492 1.10277 0)
(0.664656 1.14803 0)
(1.18452 2.61286 5.97467e-20)
(1.07254 2.36021 0)
(0.834006 2.16398 3.83992e-21)
(0.823576 2.43009 0)
(0.921675 2.52388 -4.21929e-19)
(0.956906 2.47997 2.80659e-19)
(0.797592 0.184561 0)
(0.739107 0.157473 1.62906e-19)
(0.907196 0.152166 9.47964e-19)
(0.822954 0.156127 -3.55402e-19)
(0.7791 0.0904725 -1.09522e-18)
(1.08299 0.242062 -8.91519e-19)
(1.00047 0.304917 -1.78483e-20)
(0.928684 0.308621 8.5915e-19)
(1.00755 0.235361 7.21459e-19)
(0.948064 0.199901 -1.25389e-18)
(0.91043 0.204152 1.56806e-19)
(0.947565 0.271187 -3.32759e-19)
(0.925851 0.231519 0)
(0.99614 0.195969 6.18436e-19)
(1.04741 0.194966 0)
(1.04499 0.223435 0)
(1.10775 0.12174 2.89755e-19)
(1.07181 0.181745 -1.5048e-20)
(1.07635 0.241991 -1.57767e-19)
(1.10195 0.207883 0)
(1.02312 0.0468823 6.17168e-19)
(1.03932 0.0604187 7.71692e-19)
(1.03433 0.0463115 -6.12862e-19)
(1.04296 0.0680892 -5.17554e-19)
(1.02031 0.0758455 -7.94157e-19)
(0.985307 0.160226 0)
(0.990053 0.106139 0)
(0.965276 0.0749387 -5.01156e-19)
(0.905405 0.098565 1.99512e-19)
(1.04019 0.108199 7.1612e-19)
(1.06971 0.125362 -8.3579e-19)
(1.07654 0.157749 7.46365e-19)
(1.03123 0.151659 0)
(1.07524 0.112766 0)
(1.05421 0.0935537 -3.42603e-19)
(1.04339 0.0982547 -5.84526e-19)
(0.578927 1.05493 1.40122e-19)
(0.604085 1.37936 -4.15722e-20)
(1.1544 2.7284 -2.27847e-19)
(1.22007 3.07081 2.1532e-21)
(1.24619 2.7116 -1.24477e-19)
(1.27469 2.69481 -3.14364e-20)
(1.20209 2.33511 -1.10837e-20)
(1.20779 2.97469 -9.4082e-20)
(1.22791 2.94023 2.35261e-19)
(1.21016 3.22368 -1.42577e-19)
(1.36976 2.95457 1.9701e-19)
(1.35834 2.87266 0)
(0.564276 0.81223 -5.03654e-20)
(0.10923 1.22394 5.69889e-19)
(0.558333 0.354957 5.54323e-19)
(0.397455 0.101624 6.00809e-19)
(0.478554 0.31437 6.76391e-19)
(0.545611 0.432618 -1.09464e-18)
(0.547475 0.428787 8.96576e-19)
(0.465869 0.312191 -3.40642e-19)
(0.343512 0.240262 7.69359e-19)
(0.708839 0.269745 -3.58332e-19)
(0.668338 0.29216 0)
(0.605871 0.207695 6.50053e-21)
(0.743637 0.507432 3.63039e-19)
(0.722617 0.477982 -1.3198e-18)
(0.623915 0.445282 1.10329e-20)
(0.620339 0.436279 0)
(0.693813 0.717637 3.96403e-19)
(0.856155 0.779567 3.94105e-19)
(0.779776 0.862053 -4.6119e-19)
(0.901508 0.816695 -1.53946e-19)
(0.932584 0.86206 -3.7132e-20)
(0.939654 0.86177 3.80264e-20)
(0.86823 0.660186 -6.78092e-19)
(0.948062 0.713759 1.42941e-19)
(1.00739 0.7288 0)
(0.99841 0.705385 -1.93058e-19)
(1.03026 0.345398 2.11837e-19)
(1.15006 0.30703 2.87341e-19)
(1.07103 0.279434 3.64339e-19)
(1.01971 0.377845 -4.30339e-19)
(1.06795 0.440162 0)
(1.12394 0.421666 0)
(0.923237 0.381622 1.38701e-21)
(0.839565 0.317906 0)
(0.885426 0.31385 4.06612e-19)
(0.910375 0.317245 -8.12402e-21)
(0.957653 0.450499 2.04842e-18)
(0.918826 0.505924 5.26741e-19)
(0.923476 0.472381 -5.61553e-19)
(0.838974 0.460259 6.0278e-19)
(0.823879 0.453415 3.61408e-19)
(0.795892 0.435553 -3.55383e-19)
(1.02742 -0.000181966 6.4785e-19)
(1.02001 0.000111629 0)
(1.01855 0.00103731 4.22445e-19)
(1.02175 -0.00149946 -9.56945e-19)
(1.02238 0.00455641 4.64895e-19)
(1.0203 0.0115915 -9.7349e-19)
(1.02119 0.0109479 0)
(1.02042 0.0111526 -2.029e-19)
(1.01593 0.00787394 5.09054e-19)
(1.01658 0.0106669 -2.54004e-19)
(1.01728 0.0100145 1.87052e-19)
(0.0311723 1.32768 0)
(0.0372141 1.38213 0)
(0.0499627 1.32909 0)
(0.0549987 1.27603 0)
(0.0745204 1.40175 -5.01969e-20)
(0.0843183 1.36718 2.27021e-20)
(0.115381 1.54553 -1.4822e-20)
(0.105072 1.38947 -4.71112e-21)
(0.0391509 1.47772 1.90567e-20)
(0.0431225 1.47167 -1.46512e-20)
(0.0671001 1.38827 -1.01677e-20)
(0.0599943 1.38948 4.62972e-20)
(0.0514579 1.36613 6.86445e-21)
(0.0434304 1.38789 3.78096e-21)
(0.10783 2.36261 -1.50155e-19)
(0.0965387 2.41103 0)
(0.170486 2.03672 1.08321e-19)
(0.112647 1.70308 3.99891e-20)
(0.234088 2.03386 -8.98278e-20)
(0.20012 2.42489 0)
(0.262422 2.37486 -6.06024e-19)
(0.30238 2.37257 4.2827e-19)
(0.228609 1.9936 -2.49931e-19)
(0.154922 2.15252 1.69624e-19)
(0.141643 2.25982 0)
(0.0189314 1.87814 5.9057e-21)
(0.000482917 2.38708 -3.3156e-20)
(0.00681488 2.14479 0)
(0.0117219 2.45083 -1.36496e-20)
(0.0288961 2.29368 8.75111e-21)
(0.0153404 1.41985 -7.2276e-21)
(0.0126735 1.40127 1.20409e-19)
(0.0125084 1.40792 -3.99142e-20)
(0.0214049 1.41311 -3.34326e-20)
(0.0257119 1.44453 0)
(0.00844912 1.38915 0)
(0.000637194 1.2981 -4.70094e-20)
(0.00474022 1.38104 1.3472e-20)
(0.0085188 1.38072 0)
(0.00645045 1.2899 -3.51174e-20)
(0.0169847 1.21111 7.13398e-20)
(1.04085 0.0121788 0)
(1.04708 0.00841014 -6.77609e-20)
(1.03878 0.0224093 -4.89087e-19)
(1.04862 0.0211931 0)
(1.05254 0.0210586 0)
(1.03642 0.0123727 -6.85344e-21)
(1.03103 0.0122021 7.86111e-19)
(1.03167 0.0172393 9.52946e-19)
(1.02551 0.021156 0)
(1.02224 0.0216038 0)
(1.03529 0.0261175 4.87624e-19)
(1.02573 0.0279269 0)
(1.02363 0.0280377 0)
(-0.0178433 2.02294 0)
(0.000799306 1.65376 -4.3593e-21)
(-0.00413237 1.761 -3.06976e-20)
(-0.00131651 1.38917 0)
(-0.00638567 1.55516 -1.9095e-20)
(-0.00889781 1.46559 1.18687e-20)
(-0.0060753 1.40281 0)
(0.388563 1.64338 0)
(0.373771 1.30712 -7.19499e-20)
(0.300685 1.34036 0)
(0.425729 1.30607 7.25726e-21)
(0.476452 1.47043 0)
(0.456798 1.41473 2.48301e-20)
(1.0364 2.67501 -1.53727e-20)
(0.968446 2.4031 -9.13894e-19)
(0.921603 2.19148 1.02521e-18)
(0.852219 2.37148 2.42074e-19)
(0.847782 2.48445 0)
(0.917505 2.48059 0)
(0.931397 2.36792 0)
(0.910361 2.35715 -9.4468e-19)
(0.686701 2.44827 -3.94329e-19)
(0.799879 2.43771 -9.77168e-20)
(0.810228 2.41188 7.42348e-20)
(0.695541 2.38971 0)
(0.800811 2.38506 0)
(0.758953 2.39847 -3.6874e-19)
(0.767472 2.47418 0)
(0.631895 1.09374 0)
(0.480406 0.899311 -5.13154e-19)
(0.567982 0.943607 -3.24681e-20)
(0.519144 1.03342 0)
(0.519587 0.976315 7.68435e-19)
(0.800499 0.884943 -1.29795e-19)
(0.809181 1.021 0)
(0.784355 0.987316 1.85292e-19)
(0.668699 1.03398 0)
(0.670012 0.935407 0)
(1.1634 2.7516 -2.30187e-19)
(1.14085 2.81491 -9.7441e-20)
(0.928862 2.32887 1.01006e-19)
(0.89667 2.30835 -8.34673e-20)
(1.129 2.72463 0)
(1.08285 2.69408 1.00417e-19)
(1.08891 2.47811 -3.1399e-19)
(0.983475 2.23118 -3.0368e-20)
(0.492196 1.32993 0)
(0.507976 1.0601 -1.23504e-19)
(0.576763 1.16708 0)
(0.852969 0.249717 0)
(0.759042 0.200052 0)
(0.6693 0.15617 0)
(0.844003 0.251992 -6.40019e-19)
(0.731702 0.243131 3.73705e-19)
(0.92199 0.0907727 -4.11446e-19)
(0.926046 0.133187 0)
(0.913936 0.141044 1.77741e-19)
(0.849847 0.119043 7.10561e-19)
(0.813918 0.0805087 -4.45712e-19)
(1.15533 3.34869 -7.1733e-19)
(1.20439 3.26817 0)
(1.15297 3.37766 -1.48701e-18)
(0.641373 3.53916 1.26154e-18)
(0.862779 3.1078 7.12331e-20)
(0.522371 0.798686 6.0576e-19)
(0.423761 0.796115 0)
(0.307451 0.382591 -1.48774e-19)
(0.473121 0.649377 8.56673e-19)
(0.562405 0.357993 -1.95338e-19)
(0.515857 0.46472 2.30824e-19)
(0.675127 0.511476 4.90958e-19)
(0.71471 0.550495 0)
(0.664552 0.574228 0)
(0.629986 0.525699 0)
(1.00881 0.615435 8.82209e-20)
(0.923902 0.555529 -5.12807e-19)
(0.949193 0.587025 3.86283e-19)
(0.979746 0.527096 -3.97096e-19)
(1.08719 0.495465 0)
(1.09561 0.5864 -9.66406e-20)
(0.859436 0.412817 -8.29939e-19)
(0.858108 0.401522 -1.02853e-18)
(0.792069 0.39371 6.35081e-19)
(0.801485 0.380292 -6.44783e-19)
(0.845913 0.338371 -5.19359e-19)
(0.792639 0.337629 6.35244e-19)
(1.02668 0.00614352 -4.93193e-19)
(1.02638 0.00636078 1.00227e-18)
(1.02947 0.000274477 6.2779e-19)
(1.03371 0.00119175 -7.56064e-19)
(1.03384 0.00935844 0)
(1.03008 0.0100637 -1.23098e-18)
(0.0634746 1.64043 1.92493e-20)
(0.0522947 1.59019 0)
(0.0905086 1.68939 1.25937e-19)
(0.0975697 1.66959 -1.1152e-19)
(0.0944216 1.54737 2.64988e-20)
(0.0937896 1.5486 0)
(0.0122284 1.6878 0)
(-0.00425074 1.49668 7.67419e-21)
(-0.00210199 1.44257 -6.90428e-21)
(-0.00739922 1.55219 5.37363e-21)
(0.0024137 1.88481 1.15066e-20)
(-0.00954737 1.93772 -1.95658e-21)
(0.49679 1.35699 -2.7574e-19)
(0.490309 1.35738 3.02988e-19)
(0.453227 1.30163 -3.14345e-20)
(0.436437 1.28383 7.7427e-21)
(0.640383 1.30839 0)
(0.555574 1.39874 1.04989e-19)
(0.571055 1.40604 -1.02209e-19)
(0.466893 1.29158 3.06527e-20)
(0.521797 1.24105 0)
(0.573418 1.20387 0)
(0.653602 2.40782 5.79281e-19)
(0.669257 2.44939 1.25964e-18)
(0.713745 2.46006 -8.67974e-19)
(0.609935 2.43389 -2.01828e-19)
(0.559733 2.52428 2.8361e-19)
(0.508992 2.49908 -7.56878e-19)
(0.978173 2.3746 -5.73762e-19)
(1.01232 2.38674 0)
(0.925771 2.16955 -6.59421e-19)
(1.05384 2.67312 0)
(1.05614 2.65972 0)
(0.598376 2.25656 -1.2796e-19)
(1.03635 3.15359 1.27665e-19)
(0.907445 3.02397 -3.08338e-20)
(0.263653 0.846185 0)
(0.290034 0.689254 -3.1742e-19)
(0.460059 0.649198 -3.19416e-19)
(0.378327 2.00076 0)
(0.462031 2.77852 -4.95872e-20)
(0.415517 2.54108 0)
(0.71704 0.668034 -8.37412e-19)
(0.802053 0.686296 1.12126e-18)
(0.821837 0.627172 -1.1078e-18)
(0.693895 0.631105 -1.0731e-19)
(0.749222 0.58914 -4.3973e-19)
(1.00039 2.7524 -9.70941e-20)
(1.04145 2.81372 -1.65939e-19)
(0.63145 2.11995 6.99567e-19)
(0.583878 1.68865 -4.98378e-19)
(0.693419 1.88827 -4.07791e-19)
(0.98661 2.43629 -1.12859e-19)
(0.993638 2.42922 2.96893e-19)
(0.649096 1.82145 2.83368e-20)
(0.440581 1.30935 1.44667e-19)
)
;

boundaryField
{
    wall-4
    {
        type            noSlip;
    }
    velocity-inlet-5
    {
        type            fixedValue;
        value           uniform (1 0 0);
    }
    velocity-inlet-6
    {
        type            fixedValue;
        value           uniform (0 3 0);
    }
    pressure-outlet-7
    {
        type            zeroGradient;
    }
    wall-8
    {
        type            noSlip;
    }
    frontAndBackPlanes
    {
        type            empty;
    }
}


// ************************************************************************* //
