/*--------------------------------*- C++ -*----------------------------------*\
  =========                 |
  \\      /  F ield         | OpenFOAM: The Open Source CFD Toolbox
   \\    /   O peration     | Website:  https://openfoam.org
    \\  /    A nd           | Version:  13
     \\/     M anipulation  |
\*---------------------------------------------------------------------------*/
FoamFile
{
    format      ascii;
    class       volVectorField;
    location    "27";
    object      U;
}
// * * * * * * * * * * * * * * * * * * * * * * * * * * * * * * * * * * * * * //

dimensions      [0 1 -1 0 0 0 0];

internalField   nonuniform List<vector> 
918
(
(0.985168 -0.000498306 0)
(0.00500823 2.96625 0)
(-0.0273661 1.46917 0)
(0.979701 0.00214852 0)
(0.00164356 1.45225 5.54447e-20)
(-0.00703779 2.94879 -1.91408e-18)
(0.841045 1.18156 6.94695e-19)
(0.372472 0.169342 -9.84047e-21)
(0.999906 -0.000291971 0)
(0.0575245 0.851559 0)
(-0.00645495 0.627538 0)
(0.732727 -0.00872096 0)
(0.0110942 2.93039 0)
(0.00205179 2.7949 0)
(-0.0174846 3.16098 1.04498e-18)
(0.0167255 1.2108 2.46031e-19)
(0.469239 0.0679911 6.19902e-19)
(0.189419 1.21469 5.955e-19)
(0.962823 0.00498657 0)
(-0.043784 0.949768 0)
(0.0992871 0.21017 -4.87225e-19)
(1.002 -0.00498464 0)
(1.00021 -0.00980523 0)
(0.975707 -0.00644628 0)
(0.619862 -0.0444482 0)
(0.016411 2.6369 0)
(-0.0150157 2.91012 6.65558e-19)
(-0.0788869 1.41731 0)
(-0.0755475 1.60061 0)
(-0.0429147 1.43889 0)
(-0.0078691 2.04559 0)
(0.0478362 1.48121 -4.37981e-20)
(0.0388164 1.23926 0)
(-0.0206256 2.98759 -6.71214e-23)
(-0.0166977 3.0053 1.48776e-18)
(0.00210317 3.0002 0)
(0.870007 -0.00937391 0)
(0.403288 0.941033 -5.6364e-21)
(0.818817 1.20033 -9.61701e-19)
(0.968231 1.03599 9.09882e-19)
(0.686889 1.2959 -1.61152e-19)
(0.685182 1.28635 9.03883e-19)
(0.413306 0.26343 9.6008e-21)
(0.403428 0.152088 0)
(1.15592 0.55929 0)
(0.374393 0.266479 4.43625e-20)
(0.325887 0.171632 -4.60398e-20)
(0.919626 -0.00752319 0)
(1.00029 0.000151197 0)
(0.999912 0.000344969 0)
(1.00364 -0.00779099 0)
(1.00095 -0.000951588 0)
(1.00017 1.93908e-05 0)
(0.0771445 1.78089 -2.7498e-19)
(0.0450525 0.998861 0)
(0.0889542 0.935396 0)
(0.0189143 0.936411 0)
(0.0382502 0.784791 0)
(-0.00883628 1.98203 0)
(0.0279286 0.775122 0)
(0.00817063 0.669414 0)
(-0.0146024 0.739254 0)
(-0.0217261 0.633498 0)
(0.832423 -0.0140796 0)
(0.85321 0.0250739 0)
(0.766755 0.00143667 0)
(0.828785 0.0300726 0)
(0.707104 -0.0167527 0)
(0.014696 3.0004 7.01565e-19)
(0.0115141 3.00792 0)
(0.00613057 3.00282 0)
(0.0135308 2.99733 7.83503e-24)
(0.00799445 2.95848 -1.0427e-18)
(0.0144812 2.98209 0)
(0.0108031 2.90363 0)
(0.0247377 2.93076 1.41962e-24)
(0.00437855 2.82492 0)
(0.0307171 2.91601 0)
(-0.00581805 2.74442 0)
(0.310399 3.56029 0)
(-0.132151 3.64215 0)
(0.140776 3.25181 -9.7249e-19)
(-0.0120138 2.98544 0)
(-0.15511 1.93076 0)
(0.0326305 1.42241 -2.42633e-19)
(-0.0525203 1.26965 2.39319e-19)
(0.541938 0.153958 -2.13661e-19)
(0.468506 0.0382089 -2.06678e-19)
(0.521775 0.180542 -6.45204e-19)
(0.452295 0.0898643 -4.3153e-19)
(0.215257 0.910404 0)
(0.26948 1.35498 -6.27662e-19)
(0.385921 1.30336 1.03197e-18)
(0.987563 0.00852704 0)
(0.942142 0.00588495 0)
(1.0003 0.000573624 0)
(1.00287 0.00930215 0)
(1.00302 0.00842451 -1.28759e-18)
(0.991924 0.00971668 9.72215e-19)
(-0.0659203 1.01714 0)
(-0.0422987 0.828685 0)
(-0.095833 1.37635 0)
(-0.0534911 1.15745 0)
(-0.0248902 1.09554 0)
(0.149929 0.218551 1.50461e-19)
(0.201391 0.195944 0)
(0.993513 -0.00840388 0)
(0.954362 -0.00649292 0)
(0.789698 0.0321327 0)
(0.748681 0.041771 0)
(0.675454 -0.0333873 0)
(0.961051 -0.00350768 0)
(0.683399 0.0589499 0)
(0.521321 -0.0203323 8.37975e-19)
(-0.0365507 2.86395 3.60181e-19)
(0.0424642 2.90859 0)
(0.0550636 2.8845 0)
(-0.00503016 2.69838 0)
(-0.0131563 2.98533 6.13201e-19)
(-0.0180712 2.89537 0)
(-0.015326 2.98815 -1.93672e-18)
(-0.0133955 2.92524 6.68289e-19)
(-0.158035 1.63115 0)
(-0.150274 1.72392 0)
(0.0667506 1.40344 7.17379e-21)
(0.0681068 1.39235 0)
(0.0145401 1.20716 0)
(0.937408 -0.00776315 0)
(0.855292 -0.00938036 0)
(0.864295 0.00707917 0)
(0.948757 -0.00796357 0)
(0.88331 -0.00839276 0)
(0.516455 1.1358 -2.82506e-21)
(0.566975 1.18807 0)
(0.365476 0.88357 8.03986e-21)
(0.307871 0.743646 0)
(0.928115 1.07468 -2.62315e-19)
(1.04169 0.876129 5.36328e-19)
(0.379824 1.39404 0)
(0.540649 1.36305 0)
(0.545264 1.32387 0)
(0.103771 0.171418 -1.54144e-19)
(0.456096 0.247351 0)
(0.436909 0.139092 1.23518e-19)
(1.01212 0.930059 0)
(1.07999 0.777312 0)
(1.10531 0.719549 -4.66022e-19)
(1.13579 0.618627 0)
(1.18461 0.403736 5.72357e-20)
(0.957286 -0.00864605 0)
(0.96225 -0.0100804 0)
(0.901339 -0.00815501 0)
(0.984107 -0.00919643 0)
(0.97456 -0.00937629 0)
(0.936975 -0.00631056 0)
(1.00018 0.00232253 0)
(1.0009 0.00143595 0)
(0.999903 0.000848292 0)
(0.0362595 2.04356 1.73292e-19)
(0.120282 1.71842 0)
(0.0148774 2.15509 1.61288e-19)
(0.0583926 1.85508 -7.46708e-20)
(0.136807 1.20566 -4.92911e-19)
(0.0452022 1.08181 0)
(0.0959462 1.07833 0)
(0.025419 0.879251 0)
(-3.13342e-05 0.726488 0)
(-0.0220071 2.1803 2.56242e-21)
(0.0167688 1.97918 0)
(-0.0588144 2.13208 1.66231e-19)
(-0.030387 1.93547 -3.31778e-19)
(-0.000910243 0.851777 0)
(0.0133143 0.824835 0)
(-0.00403778 0.688946 0)
(-0.0305355 0.75489 0)
(-0.0303784 0.669178 0)
(0.92859 0.0075193 0)
(0.838292 -0.0128227 0)
(0.922429 -0.000693646 0)
(0.838004 -0.0110411 0)
(0.813885 0.00490657 0)
(0.904082 0.0181614 0)
(0.882338 0.0207258 0)
(0.790175 0.00303782 0)
(0.00583834 3.06493 -6.20159e-21)
(0.0165912 3.05789 0)
(0.0147206 2.96911 0)
(0.00860505 2.8763 0)
(0.929067 3.97947 0)
(1.24473 3.31146 1.00334e-18)
(0.07086 3.07747 0)
(-0.0273351 2.90746 0)
(-0.218241 1.72309 0)
(-0.219849 1.89396 0)
(-0.179283 1.80702 0)
(-0.0410349 2.06396 -1.67381e-20)
(-0.170242 2.00276 0)
(-0.0983372 1.96881 0)
(-0.109185 1.66714 1.18047e-20)
(-0.105147 1.69832 -1.78363e-19)
(-0.0482081 1.51878 -2.4469e-19)
(-0.107401 1.43699 0)
(0.570118 0.124648 3.14205e-19)
(0.485577 0.0138243 -3.07404e-19)
(0.260451 1.5449 0)
(0.262684 0.686024 -2.2042e-19)
(0.178747 1.6332 -7.39583e-19)
(0.226326 1.16167 7.41453e-19)
(0.902563 0.00668946 0)
(0.967626 0.0109848 0)
(0.974769 0.0107547 0)
(0.923664 0.00666858 0)
(-0.0370133 0.805457 0)
(-0.0435809 0.889246 0)
(-0.0491532 0.741762 0)
(0.318167 0.258137 4.05571e-19)
(0.260221 0.234254 -4.85628e-19)
(0.271407 0.183449 0)
(1.08944 0.0868571 -2.14737e-22)
(1.07301 0.040492 0)
(1.00102 0.0415595 0)
(0.89576 0.00114792 0)
(0.593676 0.0955619 0)
(0.623575 0.0707416 -1.3476e-18)
(0.500546 -0.000507416 5.13003e-19)
(0.00941775 2.98176 4.44117e-19)
(-0.0321265 2.86696 4.83294e-20)
(0.00368587 3.0502 -1.33717e-20)
(0.0200906 3.04346 4.80212e-19)
(-0.0150148 2.99657 2.21936e-20)
(-0.0129582 2.94945 -8.98114e-23)
(-0.0172579 3.01199 -4.19975e-19)
(0.0147923 3.02403 3.03654e-19)
(0.00730841 3.03672 -4.74723e-19)
(0.93085 -0.00104428 0)
(0.937554 -0.00378882 0)
(0.843413 -0.00855833 0)
(0.956935 0.0114856 0)
(0.943492 0.0124256 0)
(0.882347 0.00640839 0)
(0.91955 0.0153249 0)
(0.927498 0.0142309 0)
(0.840154 0.00584903 0)
(0.722136 1.41644 2.93309e-19)
(0.756291 1.52609 0)
(0.20428 0.354111 3.14812e-20)
(0.192321 0.634247 2.56607e-19)
(0.253039 0.710808 -1.48752e-19)
(0.275297 0.557918 2.83044e-19)
(0.311173 0.736204 8.5829e-19)
(0.117267 0.20031 2.33665e-19)
(0.499687 0.200523 4.61983e-19)
(0.482384 0.221025 1.17135e-19)
(0.446046 0.116 2.32486e-19)
(1.17283 0.460531 2.67402e-19)
(1.18534 0.255421 2.76869e-19)
(0.00457845 2.1792 2.04673e-20)
(0.0479955 1.9051 0)
(0.956005 0.0310671 0)
(0.928718 0.0151541 0)
(0.855253 -0.010694 0)
(0.0110877 3.07435 0)
(0.0197858 2.94417 8.2977e-19)
(0.016478 2.95635 0)
(0.00626374 2.85069 -8.22967e-19)
(0.00628872 3.09162 1.97055e-19)
(0.00725236 3.08266 0)
(0.789902 1.8297 -2.30118e-19)
(1.25252 2.50943 6.30323e-19)
(0.772274 1.96975 -1.46224e-18)
(0.0204492 2.98227 -3.34208e-19)
(0.0364714 3.00355 0)
(-0.0331525 2.87965 0)
(-0.0911053 2.04597 1.68514e-21)
(-0.131221 1.88934 3.28119e-19)
(-0.087435 1.84595 5.84886e-21)
(0.274233 1.35233 7.20301e-19)
(0.213501 0.464999 -4.96161e-19)
(0.0633358 1.96502 4.90242e-19)
(0.137811 1.85276 -6.1102e-19)
(0.178595 1.45696 8.59217e-20)
(0.00372937 3.11792 -1.14636e-18)
(0.0170427 3.118 1.2259e-18)
(-0.00892986 2.98086 5.36093e-19)
(-0.0029946 2.97744 -4.79181e-19)
(-0.021516 2.88187 -5.45995e-19)
(0.00872501 3.09876 -1.44478e-18)
(0.00200403 3.10682 1.40615e-18)
(0.251564 0.650785 0)
(0.210168 0.639532 -5.14063e-19)
(0.10429 0.216005 2.31411e-19)
(0.332357 0.857525 7.0239e-19)
(0.175759 0.24061 -1.07671e-18)
(1.17656 0.173466 -4.32267e-20)
(1.1857 0.308883 0)
(1.16486 0.121173 1.04718e-19)
(0.00649409 2.19954 2.10912e-21)
(0.00324805 2.20084 0)
(0.0218129 1.94442 0)
(0.337271 1.25056 -2.61001e-19)
(0.356785 1.06994 -5.5683e-19)
(0.186672 0.335012 9.63405e-19)
(1.00584 -0.0108995 0)
(1.00765 -0.0076764 2.35532e-19)
(-0.185696 1.57625 0)
(-0.190065 1.52803 0)
(1.00221 0.0035252 1.82003e-21)
(1.00372 0.00945731 4.83876e-19)
(-0.0458044 2.08947 2.13602e-20)
(-0.0229132 2.12552 0)
(0.0374414 3.18033 1.4458e-19)
(0.397986 3.49597 0)
(1.12827 0.647867 5.07074e-20)
(1.01298 0.0130507 -2.11105e-21)
(1.02116 -0.0105271 0)
(1.00173 0.000157723 9.97545e-23)
(0.104637 1.35477 0)
(0.149351 2.57567 0)
(0.0845816 1.13612 0)
(-0.00337495 2.61725 -1.84702e-19)
(-0.0746184 2.61489 -1.97177e-19)
(1.00651 0.0292185 2.73072e-21)
(1.05845 -0.00263516 0)
(1.08278 0.0174219 0)
(-0.23968 1.9002 0)
(-0.163748 2.40132 0)
(-0.231847 1.22428 0)
(0.275263 1.46459 -4.06043e-19)
(1.01124 -0.00973359 0)
(1.00933 -0.0149883 0)
(1.00249 0.000727706 3.007e-19)
(1.00548 -0.00487215 -3.53631e-19)
(1.00118 -0.00104469 0)
(-0.307553 1.79168 0)
(-0.237883 1.59793 0)
(-0.254144 1.72338 0)
(-0.227048 1.2421 0)
(-0.233746 1.39788 0)
(-0.189192 1.28951 0)
(1.03435 -0.00688182 0)
(1.02082 0.0154837 -1.03642e-21)
(0.786608 1.25566 4.88828e-19)
(1.00222 0.000373053 -2.98281e-19)
(1.00411 0.00526528 3.52825e-19)
(1.00116 0.00204173 0)
(1.01291 0.0102078 2.93926e-19)
(1.00798 0.00823212 -3.62732e-19)
(1.00867 0.0145779 0)
(-0.140089 2.38734 0)
(-0.0649064 2.24374 -1.8498e-19)
(-0.0614495 2.26179 1.54245e-19)
(1.20012 0.260374 3.6904e-21)
(1.13754 0.0887491 0)
(0.0474427 3.07757 -5.51435e-19)
(0.0666373 2.85276 -4.32472e-20)
(0.144522 3.19491 8.79844e-19)
(0.139497 3.22401 -2.20427e-20)
(0.137529 3.23727 0)
(0.0204912 3.13777 1.23912e-19)
(0.0781844 3.16137 5.38294e-19)
(0.0711014 3.18762 -2.38178e-19)
(0.0234219 3.12943 0)
(0.658985 0.316478 0)
(0.577213 0.371056 0)
(1.0997 0.676466 -2.04677e-19)
(1.09685 0.808602 3.27178e-19)
(1.15726 0.568015 0)
(1.18689 0.51327 0)
(1.01616 0.0132979 -5.44542e-19)
(1.01497 0.0142231 6.80863e-19)
(1.02507 -0.0103134 0)
(1.02299 -0.0124625 0)
(1.00657 0.00243676 0)
(1.01049 0.00360698 0)
(1.00436 0.00185994 0)
(1.00977 0.00615013 0)
(1.00789 0.0057749 0)
(1.00452 0.00460213 0)
(0.0934881 1.35433 0)
(0.0881033 1.31736 0)
(0.119816 1.38223 0)
(0.133676 1.40757 0)
(0.147392 2.59765 0)
(0.18882 2.6571 -2.27372e-19)
(0.0993638 2.65465 0)
(0.0864778 2.65726 5.58795e-21)
(0.0285077 2.68024 1.83225e-19)
(0.0790723 1.09205 0)
(0.0178963 0.971691 0)
(0.128177 1.1886 0)
(0.0262102 1.14145 0)
(0.0459125 2.02296 2.70734e-19)
(-0.0801113 2.6313 -2.55138e-19)
(-0.0181902 2.6612 -3.05161e-19)
(-0.0536435 2.66626 0)
(-0.136266 2.6501 5.5041e-19)
(-0.167562 2.6228 3.5872e-19)
(0.0279454 2.11087 -1.75347e-19)
(-0.0559457 2.51762 3.59635e-19)
(0.00941297 2.49633 3.66074e-19)
(1.01517 0.0350562 5.4551e-19)
(1.00869 0.0197875 -6.70876e-19)
(1.00683 0.0404738 -5.53253e-19)
(0.988614 0.0203179 7.12952e-19)
(1.05931 0.00328147 0)
(1.04615 -0.0110859 0)
(1.08218 0.0245244 0)
(1.06611 0.00449205 0)
(1.06231 -0.00526392 0)
(1.12134 0.0781745 0)
(1.09437 0.0408954 0)
(1.09581 0.0335543 0)
(-0.155145 2.13339 6.06197e-21)
(-0.267073 2.03819 0)
(-0.196274 2.03702 0)
(-0.209504 2.52485 -1.73889e-19)
(-0.197161 2.50563 6.81577e-21)
(-0.389269 1.89819 -1.29835e-19)
(-0.314127 1.80568 1.30715e-19)
(-0.334323 1.536 0)
(-0.332739 1.5653 0)
(-0.303971 1.59406 0)
(-0.225806 1.1965 0)
(-0.119114 1.02471 0)
(0.371574 1.47684 7.68034e-19)
(0.405104 1.48895 3.08013e-19)
(0.592315 2.44291 -1.64829e-19)
(0.405948 2.5362 4.55032e-19)
(0.352145 2.08578 -3.52007e-20)
(1.02091 -0.00848686 0)
(1.01545 -0.00992164 0)
(1.0148 -0.0156099 0)
(1.00773 -0.00145735 0)
(1.00497 -0.00110078 0)
(1.00773 -0.00491841 0)
(1.00922 -0.00381286 0)
(1.01408 -0.00453001 0)
(1.02156 0.0157797 5.2208e-19)
(1.01816 0.0157419 -6.72394e-19)
(1.02207 0.0175517 -5.23495e-19)
(1.01948 0.0162603 6.55442e-19)
(0.754691 1.30606 0)
(0.688451 1.36037 5.67224e-19)
(0.864974 1.19914 3.2752e-19)
(0.909267 1.15661 -4.3568e-19)
(1.15979 2.61601 -4.42583e-19)
(0.829398 0.0971468 3.29515e-19)
(1.13795 0.104035 0)
(1.18143 0.185441 9.72948e-22)
(1.16629 0.158147 1.57811e-22)
(0.998166 0.128304 0)
(0.140193 2.96351 1.87359e-19)
(0.118531 2.86928 -7.17296e-19)
(0.0299237 2.36716 5.05746e-19)
(0.0947351 0.0369436 -2.14179e-19)
(0.342884 3.42488 -4.11556e-19)
(0.196841 3.31659 0)
(0.238987 3.35922 5.3598e-19)
(0.249432 3.03649 -8.92384e-19)
(0.34344 3.1955 0)
(0.00605372 3.12099 2.8054e-20)
(0.0167588 3.12969 -3.52754e-19)
(0.0146145 3.12567 5.19189e-19)
(0.0361174 3.14011 0)
(0.0346988 3.15096 0)
(1.22071 2.61619 0)
(0.549298 0.84096 -2.77485e-19)
(1.02802 0.983318 -1.79518e-19)
(0.965561 1.05327 0)
(0.811452 0.955705 3.48732e-20)
(1.05076 0.86649 3.02679e-20)
(0.37839 0.419564 -5.70527e-19)
(0.701342 0.326867 -2.2893e-20)
(0.69034 0.254547 2.53772e-19)
(0.591407 0.40102 1.93685e-20)
(0.513189 0.379615 -7.88776e-19)
(0.669583 0.355163 0)
(0.691741 0.433678 4.18821e-19)
(0.697597 0.431898 0)
(0.628594 0.387896 0)
(0.612065 0.321207 0)
(0.778831 0.611529 1.68279e-19)
(1.19698 0.278553 -1.83459e-20)
(1.19188 0.41471 0)
(1.20611 0.36289 0)
(0.769532 0.204168 3.73302e-19)
(0.824374 0.542395 -2.12959e-19)
(0.731349 0.517042 3.52455e-19)
(0.920473 0.418561 -3.42996e-19)
(1.02002 0.0144017 3.61287e-19)
(1.01795 0.0140919 -3.66862e-19)
(1.016 0.0155128 0)
(1.03557 -0.00643102 0)
(1.02931 -0.0088265 -3.33558e-19)
(1.02706 -0.0127493 3.30114e-19)
(1.02522 0.00942187 0)
(1.02387 0.0129794 0)
(1.01147 0.00391707 0)
(1.01436 0.00876846 0)
(1.01518 0.00358701 0)
(1.01408 0.00274244 0)
(0.0657319 1.34283 0)
(0.0605864 1.28113 0)
(0.153152 1.3353 2.98697e-19)
(0.257751 1.46254 2.30229e-19)
(0.152261 1.43708 4.88905e-19)
(0.180225 1.44479 -7.99451e-19)
(0.177776 1.37303 0)
(0.126373 1.59795 2.36427e-19)
(0.116962 1.56782 0)
(0.350713 2.04041 5.11472e-20)
(0.351132 2.3709 2.75016e-19)
(0.184346 1.43923 -2.06306e-19)
(0.261415 1.36315 1.71532e-19)
(0.196057 1.3533 -1.37379e-19)
(0.269904 1.30125 2.68303e-19)
(0.239138 1.57612 0)
(0.252099 1.61728 -1.70586e-19)
(0.0476624 2.27232 8.99737e-20)
(0.0420994 2.66874 0)
(0.0705969 2.40186 -1.48733e-19)
(0.0409014 2.42158 0)
(0.0654583 2.66756 -7.41752e-21)
(0.0428144 2.69719 0)
(0.173392 1.48587 3.53562e-19)
(0.157564 1.57142 0)
(0.139607 1.38762 0)
(0.197319 1.38045 -4.07239e-19)
(-0.00470947 2.64488 -2.77372e-20)
(0.0252098 2.69731 -2.40554e-19)
(0.0123782 2.71828 -1.68194e-21)
(0.0677592 2.0766 -3.31936e-19)
(0.142084 1.79155 -1.37623e-19)
(-0.0277631 0.982855 0)
(-0.0224747 0.899737 0)
(0.051722 1.604 -3.84251e-19)
(0.101457 1.45194 -3.98783e-19)
(0.0934581 1.58837 5.06493e-19)
(0.0419444 1.60773 0)
(-0.29327 2.33254 6.6198e-19)
(-0.241277 2.52992 -2.5695e-19)
(-0.258164 2.52499 8.17732e-20)
(-0.0365641 2.07136 4.03171e-19)
(-0.222889 2.58963 1.33869e-19)
(-0.136704 2.55546 -4.45961e-19)
(1.02076 0.0203519 -3.55535e-19)
(1.0181 0.0259724 3.57731e-19)
(1.01476 0.0173609 0)
(1.01809 0.0572082 5.08337e-19)
(0.996707 0.0486357 -5.92635e-19)
(0.961228 0.0304186 6.80005e-19)
(1.01637 0.0883862 -6.63443e-20)
(1.04179 -0.00682441 0)
(1.04884 -0.00340291 3.03289e-19)
(1.03801 -0.0108276 -3.03383e-19)
(1.0656 0.0325926 -1.7016e-20)
(1.05889 0.0143651 1.50791e-19)
(1.06284 0.0451376 0)
(1.05841 0.0376462 -5.54897e-20)
(1.0362 0.0348549 0)
(1.03045 0.0324127 0)
(1.0273 0.0125658 0)
(1.02437 0.0152497 0)
(1.04214 0.0257425 1.15289e-19)
(1.03868 0.0200049 -2.61317e-19)
(1.05299 0.0227605 -1.18617e-19)
(1.05063 0.0231037 -1.34326e-19)
(1.07219 0.0537764 2.46594e-19)
(1.08342 0.046868 0)
(1.09089 0.0935866 0)
(-0.313828 2.30801 1.72383e-19)
(-0.302819 2.08209 1.0805e-20)
(-0.302505 2.12484 0)
(-0.222033 2.31198 -1.71362e-19)
(-0.164021 2.18516 -1.66515e-20)
(-0.191755 2.25411 3.18374e-20)
(-0.196506 2.63854 -2.88275e-19)
(-0.221459 2.59281 2.51915e-20)
(-0.230367 2.58702 -1.01067e-19)
(-0.214573 2.60064 2.10578e-19)
(-0.217046 2.58344 -2.50294e-19)
(-0.441401 1.73553 -1.63676e-20)
(-0.369761 1.92235 -2.84362e-19)
(0.362145 1.40865 -3.77305e-19)
(0.358174 1.35148 -3.48886e-19)
(0.637724 1.40748 -5.48596e-19)
(0.506522 1.47275 -2.97551e-19)
(0.555309 1.44901 0)
(0.588642 2.41687 1.33576e-19)
(0.655938 2.40639 2.38053e-19)
(0.411369 2.51214 7.97005e-20)
(0.405143 2.55566 -2.16242e-19)
(0.515023 2.51233 3.04228e-19)
(0.545979 2.45633 0)
(0.48788 2.50445 -3.76412e-19)
(0.249465 2.5838 6.50036e-19)
(0.354337 2.55939 -8.03025e-20)
(0.286381 2.64325 -9.73605e-19)
(0.93026 2.3838 2.97495e-19)
(0.828366 2.38245 0)
(1.01082 7.9324e-05 1.1973e-20)
(1.01501 -0.00553352 -9.70769e-21)
(1.01747 -0.00366736 -1.76121e-19)
(1.01472 -0.000970833 1.77027e-19)
(1.01215 0.000772682 0)
(0.624782 1.27705 0)
(0.638081 1.15923 0)
(0.741063 1.06483 0)
(0.630272 1.13261 0)
(1.18699 2.63272 5.66511e-20)
(1.07695 2.3736 0)
(0.844102 2.21524 -1.08546e-21)
(0.827769 2.47481 0)
(0.921133 2.56071 -2.98185e-20)
(0.95736 2.51508 1.98922e-20)
(0.839566 0.147127 0)
(0.807923 0.138657 9.38912e-20)
(0.926355 0.122224 4.94022e-19)
(0.857799 0.118616 -1.95516e-19)
(0.841477 0.0625869 -5.87761e-19)
(1.05207 0.220084 -3.26904e-19)
(0.96923 0.273267 -1.57555e-20)
(0.907161 0.270167 4.52499e-19)
(0.986434 0.20105 3.44521e-19)
(0.941823 0.160771 -6.29468e-19)
(0.914254 0.170012 8.08174e-20)
(0.940964 0.232466 -1.60898e-19)
(0.918205 0.192134 0)
(0.981747 0.160878 3.04107e-19)
(1.02958 0.168315 0)
(1.02357 0.194304 0)
(1.08559 0.112084 1.06981e-19)
(1.05532 0.160491 -1.31474e-20)
(1.0465 0.223792 -5.95557e-20)
(1.0807 0.194257 0)
(1.02674 0.0389302 2.70629e-19)
(1.04684 0.0486856 3.25471e-19)
(1.03844 0.0357665 -2.69417e-19)
(1.04877 0.05471 -2.18836e-19)
(1.02388 0.0613359 -3.57867e-19)
(0.983171 0.13036 0)
(1.00151 0.083231 0)
(0.97156 0.0457974 -2.45531e-19)
(0.927401 0.0618404 1.00893e-19)
(1.03879 0.0874407 3.06032e-19)
(1.05958 0.112675 -3.22243e-19)
(1.06397 0.14042 2.93373e-19)
(1.02821 0.128286 0)
(1.06845 0.0997382 0)
(1.05638 0.0793871 -1.33492e-19)
(1.04973 0.0841811 -2.46321e-19)
(0.585227 1.09029 -6.45715e-20)
(0.620186 1.42822 1.6683e-19)
(1.16069 2.74999 5.85781e-20)
(1.22737 3.08917 -6.10607e-20)
(1.25162 2.73143 4.73065e-19)
(1.28321 2.71483 -3.00673e-19)
(1.21121 2.35499 -8.98528e-21)
(1.2141 2.99365 1.56707e-19)
(1.23265 2.95916 -1.56283e-19)
(1.21909 3.24286 -2.51958e-19)
(1.38053 2.97561 3.4867e-19)
(1.3725 2.89352 0)
(0.545564 0.848045 -1.81878e-20)
(0.147555 1.26887 3.99039e-19)
(0.525115 0.47902 3.74801e-19)
(0.363011 0.239844 4.07499e-19)
(0.532542 0.406744 4.43303e-19)
(0.542679 0.490576 -6.91639e-19)
(0.544516 0.493002 5.6642e-19)
(0.499353 0.424214 -2.2609e-19)
(0.433039 0.364407 5.1932e-19)
(0.771213 0.258133 -2.09575e-19)
(0.732363 0.28848 0)
(0.727317 0.22743 1.03813e-20)
(0.714008 0.518863 2.1554e-19)
(0.681509 0.490821 -7.94777e-19)
(0.603261 0.487022 1.66487e-20)
(0.619257 0.476356 0)
(0.673289 0.728635 1.81463e-19)
(0.809678 0.76398 1.02325e-19)
(0.73911 0.841759 -1.26416e-19)
(0.852411 0.799044 -3.52227e-20)
(0.882254 0.836975 7.59316e-21)
(0.89095 0.839104 -7.77388e-21)
(0.819861 0.640055 -2.85311e-19)
(0.899193 0.69355 3.27258e-20)
(0.953844 0.703453 0)
(0.943599 0.677883 -3.82962e-20)
(0.995526 0.314378 8.1935e-20)
(1.10952 0.286983 3.89679e-20)
(1.03632 0.255953 1.33617e-19)
(0.974861 0.347287 -1.80702e-19)
(1.02042 0.413096 0)
(1.07537 0.402412 0)
(0.895458 0.353063 5.23993e-21)
(0.837171 0.287705 0)
(0.854538 0.276198 2.28995e-19)
(0.890743 0.277466 -6.31259e-21)
(0.91252 0.421587 9.42601e-19)
(0.869741 0.484672 2.40919e-19)
(0.87386 0.449177 -2.94565e-19)
(0.804636 0.435971 3.16201e-19)
(0.78797 0.436438 2.09434e-19)
(0.755622 0.42204 -2.05573e-19)
(1.02815 -0.000696583 2.8109e-19)
(1.02013 -2.01278e-05 0)
(1.01855 0.00099263 1.889e-19)
(1.02128 -0.00218749 -4.25641e-19)
(1.02212 0.00402599 2.06971e-19)
(1.02032 0.0107352 -4.34404e-19)
(1.02139 0.0101724 0)
(1.02102 0.0103631 -9.13893e-20)
(1.01598 0.00739944 2.29335e-19)
(1.01678 0.0100743 -1.14627e-19)
(1.01747 0.00933502 8.42826e-20)
(0.0803599 1.26541 0)
(0.126613 1.33281 0)
(0.0654318 1.31991 0)
(0.0508563 1.21916 0)
(0.0575441 1.38349 -6.35414e-19)
(0.0821339 1.3465 2.02624e-19)
(0.103221 1.5097 1.40217e-19)
(0.0881215 1.34875 -1.58909e-19)
(0.0684258 1.47048 3.84754e-19)
(0.0587494 1.4523 -2.94256e-19)
(0.0587231 1.37091 -4.46357e-21)
(0.0655261 1.37867 3.85995e-19)
(0.0756245 1.34684 5.6899e-20)
(0.075566 1.40072 5.11779e-20)
(0.104222 2.39347 1.65397e-19)
(0.0995133 2.4276 0)
(0.173408 2.06517 -2.17369e-20)
(0.100994 1.71416 -9.34566e-20)
(0.227922 2.06884 1.71723e-20)
(0.21136 2.45384 0)
(0.269465 2.4074 -1.73626e-19)
(0.302644 2.40862 1.23767e-19)
(0.227377 2.02221 4.75213e-20)
(0.149982 2.18442 1.37284e-20)
(0.147877 2.30808 0)
(0.028578 1.87903 3.94744e-19)
(-0.0188922 2.39032 4.21988e-19)
(-0.010086 2.17554 0)
(0.0120658 2.4522 -1.29961e-20)
(-0.00443855 2.30509 -1.82264e-19)
(0.138085 1.41034 -7.68956e-20)
(0.0607669 1.2749 1.30471e-18)
(0.0505801 1.35874 -3.84604e-19)
(0.143947 1.46848 -4.16091e-19)
(0.155842 1.52541 0)
(-0.0113829 1.24365 0)
(-0.140089 1.0479 -3.98464e-19)
(-0.156852 1.15386 1.31167e-19)
(-0.0798966 1.18208 0)
(-0.0892638 0.968828 -3.05131e-19)
(-0.0836734 0.952867 5.97784e-19)
(1.04073 0.00989164 0)
(1.04647 0.00581002 -2.85072e-20)
(1.03939 0.0184443 -2.0824e-19)
(1.04817 0.0144096 0)
(1.05085 0.0137992 0)
(1.03516 0.00959478 -6.1565e-21)
(1.03111 0.0104445 3.40845e-19)
(1.03092 0.0144474 4.1265e-19)
(1.02613 0.0187331 0)
(1.02386 0.0195682 0)
(1.03512 0.0212913 2.09393e-19)
(1.02632 0.0251865 0)
(1.02592 0.023436 0)
(-0.28077 2.28005 0)
(-0.389558 2.02667 -5.44098e-20)
(-0.364405 2.17181 -1.48071e-19)
(-0.160757 1.27223 0)
(-0.385532 1.86879 -2.81973e-19)
(-0.388515 1.64537 1.04558e-19)
(-0.299708 1.30913 0)
(0.390885 1.69697 0)
(0.358757 1.27771 5.70687e-19)
(0.300797 1.33662 0)
(0.412229 1.27222 -7.50719e-19)
(0.458837 1.44539 0)
(0.438496 1.3839 3.51412e-19)
(1.0296 2.70355 -5.72329e-21)
(0.953991 2.41766 -3.75322e-19)
(0.897017 2.17876 4.25734e-19)
(0.840356 2.37576 1.34356e-19)
(0.844467 2.51793 0)
(0.912685 2.51132 0)
(0.912416 2.37767 0)
(0.892495 2.358 -5.11673e-19)
(0.692877 2.49365 -5.52207e-20)
(0.801464 2.48478 -2.27839e-20)
(0.813393 2.45664 1.74344e-20)
(0.689551 2.38539 0)
(0.793494 2.38427 0)
(0.753006 2.39425 -2.4437e-19)
(0.770413 2.50655 0)
(0.598031 1.0842 0)
(0.493507 0.939865 -6.76969e-20)
(0.554048 0.966665 -5.40872e-21)
(0.524119 1.0696 0)
(0.527395 1.02415 1.03999e-19)
(0.761932 0.859643 -4.72475e-21)
(0.767586 1.00017 0)
(0.743454 0.957627 -3.21406e-20)
(0.63358 1.02064 0)
(0.638883 0.935881 0)
(1.16532 2.77186 1.93622e-20)
(1.14409 2.83548 9.59484e-20)
(0.936286 2.36123 -2.35309e-19)
(0.902927 2.33814 2.08172e-20)
(1.12892 2.74599 0)
(1.08054 2.71701 -2.48388e-20)
(1.08782 2.49661 -1.09567e-19)
(0.983302 2.23632 -3.00574e-20)
(0.49825 1.37243 0)
(0.508365 1.08003 5.69668e-20)
(0.544103 1.14945 0)
(0.860524 0.215957 0)
(0.817284 0.168581 0)
(0.774158 0.15339 0)
(0.851449 0.222571 -3.60209e-19)
(0.791683 0.219518 2.21066e-19)
(0.936526 0.051185 -2.07164e-19)
(0.952 0.0996012 0)
(0.925397 0.105062 9.19395e-20)
(0.882245 0.0824754 3.74607e-19)
(0.866428 0.0457 -2.30937e-19)
(1.16719 3.36801 -9.46753e-19)
(1.21442 3.28732 0)
(1.16576 3.39534 -1.87284e-18)
(0.652076 3.55553 1.60602e-18)
(0.879277 3.12138 3.31974e-19)
(0.522322 0.869617 2.87673e-19)
(0.444221 0.867723 0)
(0.349364 0.512342 -9.28453e-20)
(0.45159 0.689119 4.50087e-19)
(0.528959 0.480859 -1.23057e-19)
(0.507245 0.523764 1.43691e-19)
(0.648644 0.541308 2.99062e-19)
(0.678862 0.565369 0)
(0.635889 0.619859 0)
(0.589746 0.560838 0)
(0.950271 0.58612 -3.49629e-20)
(0.871634 0.532097 -2.33371e-19)
(0.898436 0.565929 1.28265e-19)
(0.930334 0.50141 -1.73315e-19)
(1.0328 0.471342 0)
(1.0433 0.558861 -1.75709e-20)
(0.831029 0.388086 -4.65249e-19)
(0.835933 0.372579 -5.44055e-19)
(0.785809 0.383537 3.64506e-19)
(0.778978 0.352056 -4.04545e-19)
(0.835191 0.310332 -3.01471e-19)
(0.789957 0.305725 3.70493e-19)
(1.0265 0.00517381 -2.20867e-19)
(1.02609 0.0056588 4.52559e-19)
(1.02895 -0.000974178 2.67625e-19)
(1.03305 0.000430877 -3.30517e-19)
(1.03317 0.0081327 0)
(1.02973 0.00829045 -5.33693e-19)
(0.0293922 1.65357 -5.47938e-20)
(0.0404589 1.57048 0)
(0.0720413 1.69802 -4.51808e-19)
(0.0858427 1.68404 4.17051e-19)
(0.081421 1.51333 -2.62887e-19)
(0.0739207 1.48373 0)
(-0.0618426 2.07048 0)
(-0.0469601 1.56562 1.56589e-19)
(-0.197146 1.56138 -1.42791e-19)
(-0.283733 1.85898 -4.06658e-20)
(-0.239155 2.27277 2.7157e-19)
(-0.182661 2.24635 -1.10983e-19)
(0.492684 1.38003 3.36745e-19)
(0.488109 1.38568 -3.61028e-19)
(0.434289 1.27154 3.6976e-19)
(0.429665 1.29196 -2.19405e-20)
(0.615997 1.28555 0)
(0.535489 1.3746 4.83746e-19)
(0.549892 1.38342 -4.70634e-19)
(0.440701 1.26011 -3.55965e-19)
(0.494944 1.21544 0)
(0.549732 1.18526 0)
(0.658417 2.45135 8.11731e-20)
(0.66915 2.47759 6.14789e-19)
(0.718047 2.49435 -4.22998e-19)
(0.623545 2.47699 -1.30115e-19)
(0.561221 2.57051 1.20037e-19)
(0.51234 2.5427 -3.49762e-19)
(0.968669 2.38058 -2.30899e-19)
(1.01022 2.40009 0)
(0.912092 2.15903 -2.97224e-19)
(1.04902 2.69754 0)
(1.05104 2.68455 0)
(0.622436 2.28202 1.82206e-19)
(1.04804 3.16914 4.31091e-19)
(0.91891 3.03828 -3.68289e-19)
(0.287928 0.938235 0)
(0.332523 0.802844 -1.80558e-19)
(0.493549 0.759531 -1.12049e-19)
(0.397301 2.02914 0)
(0.4694 2.78802 -2.31098e-19)
(0.428949 2.55268 0)
(0.683681 0.679383 -3.78639e-19)
(0.756281 0.673563 4.92293e-19)
(0.77491 0.622379 -4.82559e-19)
(0.664727 0.6513 -5.43881e-20)
(0.711683 0.600652 -2.23461e-19)
(1.00984 2.77448 -3.27768e-19)
(1.04381 2.82933 2.25982e-19)
(0.647956 2.16819 1.56623e-19)
(0.607848 1.72982 -1.37509e-19)
(0.706323 1.92025 4.20846e-20)
(0.994988 2.45796 -7.40904e-20)
(0.997383 2.45212 -1.01432e-19)
(0.67284 1.86177 -5.80538e-22)
(0.463961 1.35056 -4.88271e-20)
)
;

boundaryField
{
    wall-4
    {
        type            noSlip;
    }
    velocity-inlet-5
    {
        type            fixedValue;
        value           uniform (1 0 0);
    }
    velocity-inlet-6
    {
        type            fixedValue;
        value           uniform (0 3 0);
    }
    pressure-outlet-7
    {
        type            zeroGradient;
    }
    wall-8
    {
        type            noSlip;
    }
    frontAndBackPlanes
    {
        type            empty;
    }
}


// ************************************************************************* //
