/*--------------------------------*- C++ -*----------------------------------*\
  =========                 |
  \\      /  F ield         | OpenFOAM: The Open Source CFD Toolbox
   \\    /   O peration     | Website:  https://openfoam.org
    \\  /    A nd           | Version:  13
     \\/     M anipulation  |
\*---------------------------------------------------------------------------*/
FoamFile
{
    format      ascii;
    class       volScalarField;
    location    "3.185";
    object      T;
}
// * * * * * * * * * * * * * * * * * * * * * * * * * * * * * * * * * * * * * //

dimensions      [0 0 0 1 0 0 0];

internalField   nonuniform List<scalar> 
1000
(
1.88682e-68
2.72951e-68
4.78649e-68
8.96277e-68
1.70898e-67
3.27182e-67
6.26489e-67
1.19854e-66
2.29028e-66
4.37101e-66
8.33155e-66
1.58605e-65
3.01549e-65
5.72588e-65
1.08586e-64
2.0566e-64
3.89019e-64
7.34913e-64
1.38658e-63
2.61276e-63
4.91694e-63
9.24133e-63
1.73467e-62
3.25192e-62
6.08842e-62
1.13844e-61
2.12597e-61
3.96501e-61
7.38536e-61
1.37385e-60
2.55237e-60
4.73574e-60
8.77546e-60
1.62401e-59
3.00156e-59
5.54041e-59
1.02135e-58
1.88035e-58
3.45734e-58
6.34864e-58
1.16427e-57
2.13236e-57
3.90034e-57
7.12487e-57
1.29983e-56
2.36824e-56
4.30923e-56
7.83078e-56
1.42116e-55
2.57579e-55
4.66239e-55
8.42826e-55
1.52159e-54
2.74338e-54
4.93973e-54
8.88279e-54
1.59523e-53
2.86105e-53
5.12455e-53
9.16669e-53
1.63756e-52
2.9215e-52
5.20524e-52
9.26193e-52
1.64584e-51
2.92077e-51
5.17645e-51
9.162e-51
1.61947e-50
2.85875e-50
5.03968e-50
8.87263e-50
1.55999e-49
2.73914e-49
4.80317e-49
8.41127e-49
1.47101e-48
2.56914e-48
4.48106e-48
7.80534e-48
1.35776e-47
2.35868e-47
4.09199e-47
7.08953e-47
1.22664e-46
2.1195e-46
3.65734e-46
6.3025e-46
1.08461e-45
1.86403e-45
3.19923e-45
5.48342e-45
9.3858e-45
1.60437e-44
2.73874e-44
4.66884e-44
7.94839e-44
1.35133e-43
2.29432e-43
3.89008e-43
6.58678e-43
1.11378e-42
1.88075e-42
3.17158e-42
5.34107e-42
8.98233e-42
1.50854e-41
2.53008e-41
4.23759e-41
7.08777e-41
1.18388e-40
1.97474e-40
3.28943e-40
5.47186e-40
9.0898e-40
1.50792e-39
2.49808e-39
4.13275e-39
6.82771e-39
1.12645e-38
1.8559e-38
3.0535e-38
5.017e-38
8.23173e-38
1.34877e-37
2.20693e-37
3.60609e-37
5.88418e-37
9.58815e-37
1.56021e-36
2.5353e-36
4.1141e-36
6.66681e-36
1.07884e-35
1.7434e-35
2.81341e-35
4.53382e-35
7.29613e-35
1.17251e-34
1.88164e-34
3.01544e-34
4.82569e-34
7.71192e-34
1.23072e-33
1.96133e-33
3.1213e-33
4.96035e-33
7.87195e-33
1.24751e-32
1.97423e-32
3.11992e-32
4.92356e-32
7.759e-32
1.22102e-31
1.9188e-31
3.01111e-31
4.71859e-31
7.38393e-31
1.15385e-30
1.80054e-30
2.8057e-30
4.36585e-30
6.78395e-30
1.05265e-29
1.63106e-29
2.52374e-29
3.89945e-29
6.01655e-29
9.26994e-29
1.42624e-28
2.19124e-28
3.3618e-28
5.15037e-28
7.8793e-28
1.2037e-27
1.83626e-27
2.79726e-27
4.25512e-27
6.46357e-27
9.80426e-27
1.48504e-26
2.24617e-26
3.39255e-26
5.1167e-26
7.70608e-26
1.15893e-25
1.74044e-25
2.60999e-25
3.90839e-25
5.84433e-25
8.72669e-25
1.30119e-24
1.93736e-24
2.88042e-24
4.2764e-24
6.33982e-24
9.38535e-24
1.38739e-23
2.04798e-23
3.01873e-23
4.44322e-23
6.5305e-23
9.58448e-23
1.40464e-22
2.05557e-22
3.00383e-22
4.38319e-22
6.38671e-22
9.29259e-22
1.35011e-21
1.95871e-21
2.83755e-21
4.10477e-21
5.92931e-21
8.55244e-21
1.23182e-20
1.77162e-20
2.54429e-20
3.64864e-20
5.22474e-20
7.47079e-20
1.06669e-19
1.52081e-19
2.16512e-19
3.07791e-19
4.36915e-19
6.19306e-19
8.76557e-19
1.23886e-18
1.74835e-18
2.46379e-18
3.46691e-18
4.87132e-18
6.83466e-18
9.57529e-18
1.33953e-17
1.87118e-17
2.61002e-17
3.63527e-17
5.05583e-17
7.02121e-17
9.73632e-17
1.34816e-16
1.86401e-16
2.57347e-16
3.54775e-16
4.8837e-16
6.71283e-16
9.2135e-16
1.26271e-15
1.72801e-15
2.36129e-15
3.2219e-15
4.3897e-15
5.97199e-15
8.11266e-15
1.10044e-14
1.4905e-14
2.01583e-14
2.7223e-14
3.67095e-14
4.94286e-14
6.64565e-14
8.92186e-14
1.196e-13
1.60091e-13
2.13973e-13
2.85567e-13
3.80554e-13
5.06386e-13
6.72828e-13
8.92655e-13
1.18255e-12
1.56428e-12
2.06616e-12
2.72503e-12
3.58867e-12
4.71903e-12
6.19624e-12
8.12381e-12
1.06352e-11
1.39024e-11
1.81463e-11
2.36506e-11
3.07787e-11
3.99959e-11
5.18961e-11
6.7237e-11
8.69837e-11
1.12363e-10
1.44931e-10
1.86661e-10
2.40049e-10
3.08249e-10
3.95238e-10
5.06021e-10
6.46894e-10
8.25756e-10
1.0525e-09
1.33952e-09
1.70228e-09
2.16005e-09
2.73686e-09
3.46253e-09
4.3741e-09
5.51744e-09
6.94929e-09
8.7397e-09
1.0975e-08
1.37616e-08
1.723e-08
2.15405e-08
2.68893e-08
3.35164e-08
4.17146e-08
5.18409e-08
6.43295e-08
7.9708e-08
9.8616e-08
1.21828e-07
1.50279e-07
1.851e-07
2.27649e-07
2.79563e-07
3.42806e-07
4.19731e-07
5.13154e-07
6.26439e-07
7.63597e-07
9.29403e-07
1.12953e-06
1.37072e-06
1.66093e-06
2.00961e-06
2.42787e-06
2.92883e-06
3.52793e-06
4.24327e-06
5.09609e-06
6.11125e-06
7.31777e-06
8.74951e-06
1.04459e-05
1.24527e-05
1.48232e-05
1.76187e-05
2.09106e-05
2.47808e-05
2.93239e-05
3.46488e-05
4.08802e-05
4.81611e-05
5.66552e-05
6.65492e-05
7.8056e-05
9.14177e-05
0.000106909
0.000124842
0.000145569
0.000169488
0.000197048
0.000228754
0.000265172
0.000306939
0.000354764
0.000409443
0.000471859
0.000542996
0.000623948
0.000715925
0.000820265
0.000938447
0.0010721
0.00122301
0.00139314
0.00158464
0.00179986
0.00204136
0.00231193
0.00261459
0.00295263
0.00332957
0.00374926
0.00421581
0.00473364
0.00530748
0.00594241
0.00664384
0.0074175
0.00826952
0.00920637
0.0102349
0.0113622
0.012596
0.0139442
0.015415
0.0170171
0.0187595
0.0206516
0.022703
0.0249235
0.0273234
0.0299132
0.0327034
0.0357049
0.0389287
0.0423856
0.0460869
0.0500436
0.0542666
0.0587669
0.0635552
0.0686418
0.0740369
0.0797503
0.0857912
0.0921685
0.0988902
0.105964
0.113396
0.121193
0.12936
0.137901
0.146819
0.156115
0.165792
0.175848
0.186282
0.197092
0.208273
0.21982
0.231726
0.243983
0.256582
0.269511
0.282759
0.296313
0.310156
0.324274
0.33865
0.353264
0.368098
0.383131
0.398342
0.413709
0.429208
0.444818
0.460512
0.476268
0.49206
0.507864
0.523654
0.539406
0.555095
0.570696
0.586185
0.601539
0.616734
0.631748
0.646559
0.661147
0.675492
0.689574
0.703377
0.716883
0.730077
0.742944
0.755472
0.767649
0.779463
0.790906
0.801969
0.812645
0.822928
0.832815
0.8423
0.851381
0.860058
0.868328
0.876192
0.883651
0.890707
0.897361
0.903616
0.909475
0.914942
0.920021
0.924714
0.929027
0.932964
0.936527
0.939722
0.942551
0.945018
0.947127
0.94888
0.950279
0.951327
0.952025
0.952374
0.952374
0.952025
0.951327
0.950279
0.94888
0.947127
0.945018
0.942551
0.939722
0.936527
0.932964
0.929027
0.924714
0.920021
0.914942
0.909475
0.903616
0.897361
0.890707
0.883651
0.876192
0.868328
0.860058
0.851381
0.8423
0.832815
0.822928
0.812645
0.801969
0.790906
0.779463
0.767649
0.755472
0.742944
0.730077
0.716883
0.703377
0.689574
0.675492
0.661147
0.646559
0.631748
0.616734
0.601539
0.586185
0.570696
0.555095
0.539406
0.523654
0.507864
0.49206
0.476268
0.460512
0.444818
0.429208
0.413709
0.398342
0.383131
0.368098
0.353264
0.33865
0.324274
0.310156
0.296313
0.282759
0.269511
0.256582
0.243983
0.231726
0.21982
0.208273
0.197092
0.186282
0.175848
0.165792
0.156115
0.146819
0.137901
0.12936
0.121193
0.113396
0.105964
0.0988902
0.0921685
0.0857912
0.0797503
0.0740369
0.0686418
0.0635552
0.0587669
0.0542666
0.0500436
0.0460869
0.0423856
0.0389287
0.0357049
0.0327034
0.0299132
0.0273234
0.0249235
0.022703
0.0206516
0.0187595
0.0170171
0.015415
0.0139442
0.012596
0.0113622
0.0102349
0.00920637
0.00826952
0.0074175
0.00664384
0.00594241
0.00530748
0.00473364
0.00421581
0.00374926
0.00332957
0.00295263
0.00261459
0.00231193
0.00204136
0.00179986
0.00158464
0.00139314
0.00122301
0.0010721
0.000938447
0.000820265
0.000715925
0.000623948
0.000542996
0.000471859
0.000409443
0.000354764
0.000306939
0.000265172
0.000228754
0.000197048
0.000169488
0.000145569
0.000124842
0.000106909
9.14177e-05
7.8056e-05
6.65492e-05
5.66552e-05
4.81611e-05
4.08802e-05
3.46488e-05
2.93239e-05
2.47808e-05
2.09106e-05
1.76187e-05
1.48232e-05
1.24527e-05
1.04459e-05
8.74951e-06
7.31777e-06
6.11125e-06
5.09609e-06
4.24327e-06
3.52793e-06
2.92883e-06
2.42787e-06
2.00961e-06
1.66093e-06
1.37072e-06
1.12953e-06
9.29403e-07
7.63597e-07
6.26439e-07
5.13154e-07
4.19731e-07
3.42806e-07
2.79563e-07
2.27649e-07
1.851e-07
1.50279e-07
1.21828e-07
9.8616e-08
7.9708e-08
6.43295e-08
5.18409e-08
4.17146e-08
3.35164e-08
2.68893e-08
2.15405e-08
1.723e-08
1.37616e-08
1.0975e-08
8.7397e-09
6.94929e-09
5.51744e-09
4.3741e-09
3.46253e-09
2.73686e-09
2.16005e-09
1.70228e-09
1.33952e-09
1.0525e-09
8.25756e-10
6.46894e-10
5.06021e-10
3.95238e-10
3.08249e-10
2.40049e-10
1.86661e-10
1.44931e-10
1.12363e-10
8.69837e-11
6.7237e-11
5.18961e-11
3.99959e-11
3.07787e-11
2.36506e-11
1.81463e-11
1.39024e-11
1.06352e-11
8.12381e-12
6.19624e-12
4.71903e-12
3.58867e-12
2.72503e-12
2.06616e-12
1.56428e-12
1.18255e-12
8.92655e-13
6.72828e-13
5.06386e-13
3.80554e-13
2.85567e-13
2.13973e-13
1.60091e-13
1.196e-13
8.92186e-14
6.64565e-14
4.94286e-14
3.67095e-14
2.7223e-14
2.01583e-14
1.4905e-14
1.10044e-14
8.11266e-15
5.97199e-15
4.3897e-15
3.2219e-15
2.36129e-15
1.72801e-15
1.26271e-15
9.2135e-16
6.71283e-16
4.8837e-16
3.54775e-16
2.57347e-16
1.86401e-16
1.34816e-16
9.73632e-17
7.02121e-17
5.05583e-17
3.63527e-17
2.61002e-17
1.87118e-17
1.33953e-17
9.57529e-18
6.83466e-18
4.87132e-18
3.46691e-18
2.46379e-18
1.74835e-18
1.23886e-18
8.76557e-19
6.19306e-19
4.36915e-19
3.07791e-19
2.16512e-19
1.52081e-19
1.06669e-19
7.47079e-20
5.22474e-20
3.64864e-20
2.54429e-20
1.77162e-20
1.23182e-20
8.55244e-21
5.92931e-21
4.10477e-21
2.83755e-21
1.95871e-21
1.35011e-21
9.29259e-22
6.38671e-22
4.38319e-22
3.00383e-22
2.05557e-22
1.40464e-22
9.58448e-23
6.5305e-23
4.44322e-23
3.01873e-23
2.04798e-23
1.38739e-23
9.38535e-24
6.33982e-24
4.2764e-24
2.88042e-24
1.93736e-24
1.30119e-24
8.72669e-25
5.84433e-25
3.90839e-25
2.60999e-25
1.74044e-25
1.15893e-25
7.70608e-26
5.1167e-26
3.39255e-26
2.24617e-26
1.48504e-26
9.80426e-27
6.46357e-27
4.25512e-27
2.79726e-27
1.83626e-27
1.2037e-27
7.8793e-28
5.15037e-28
3.3618e-28
2.19124e-28
1.42624e-28
9.26994e-29
6.01655e-29
3.89945e-29
2.52374e-29
1.63106e-29
1.05265e-29
6.78395e-30
4.36585e-30
2.8057e-30
1.80054e-30
1.15385e-30
7.38393e-31
4.71859e-31
3.01111e-31
1.9188e-31
1.22102e-31
7.759e-32
4.92356e-32
3.11992e-32
1.97423e-32
1.24751e-32
7.87195e-33
4.96035e-33
3.1213e-33
1.96133e-33
1.23072e-33
7.71192e-34
4.82569e-34
3.01544e-34
1.88164e-34
1.17251e-34
7.29613e-35
4.53382e-35
2.81341e-35
1.7434e-35
1.07884e-35
6.66681e-36
4.1141e-36
2.5353e-36
1.56021e-36
9.58815e-37
5.88418e-37
3.60609e-37
2.20693e-37
1.34877e-37
8.23173e-38
5.017e-38
3.0535e-38
1.8559e-38
1.12645e-38
6.82771e-39
4.13275e-39
2.49808e-39
1.50792e-39
9.0898e-40
5.47186e-40
3.28943e-40
1.97474e-40
1.18388e-40
7.08777e-41
4.23759e-41
2.53008e-41
1.50854e-41
8.98233e-42
5.34107e-42
3.17158e-42
1.88075e-42
1.11378e-42
6.58678e-43
3.89008e-43
2.29432e-43
1.35133e-43
7.94839e-44
4.66884e-44
2.73874e-44
1.60437e-44
9.3858e-45
5.48342e-45
3.19923e-45
1.86403e-45
1.08461e-45
6.3025e-46
3.65734e-46
2.1195e-46
1.22664e-46
7.08953e-47
4.09199e-47
2.35868e-47
1.35776e-47
7.80534e-48
4.48106e-48
2.56914e-48
1.47101e-48
8.41127e-49
4.80317e-49
2.73914e-49
1.55999e-49
8.87263e-50
5.03968e-50
2.85875e-50
1.61947e-50
9.162e-51
5.17645e-51
2.92077e-51
1.64584e-51
9.26193e-52
5.20524e-52
2.9215e-52
1.63756e-52
9.16669e-53
5.12455e-53
2.86105e-53
1.59523e-53
8.88279e-54
4.93973e-54
2.74338e-54
1.52159e-54
8.42826e-55
4.66239e-55
2.57579e-55
1.42116e-55
7.83078e-56
4.30923e-56
2.36824e-56
1.29983e-56
7.12487e-57
3.90034e-57
2.13236e-57
1.16427e-57
6.34864e-58
3.45734e-58
1.88035e-58
1.02135e-58
5.54041e-59
3.00156e-59
1.62401e-59
8.77546e-60
4.73574e-60
2.55237e-60
1.37385e-60
7.38536e-61
3.96501e-61
2.12597e-61
1.13844e-61
6.08842e-62
3.25192e-62
1.73467e-62
9.24133e-63
4.91694e-63
2.61276e-63
1.38658e-63
7.34913e-64
3.89019e-64
2.0566e-64
1.08586e-64
5.72588e-65
3.01549e-65
1.58605e-65
8.33155e-66
4.37101e-66
2.29028e-66
1.19854e-66
6.26489e-67
3.27182e-67
1.70898e-67
8.96277e-68
4.78649e-68
2.72951e-68
1.88682e-68
)
;

boundaryField
{
    sides
    {
        type            zeroGradient;
    }
    empty
    {
        type            empty;
    }
}


// ************************************************************************* //
