/*--------------------------------*- C++ -*----------------------------------*\
  =========                 |
  \\      /  F ield         | OpenFOAM: The Open Source CFD Toolbox
   \\    /   O peration     | Website:  https://openfoam.org
    \\  /    A nd           | Version:  13
     \\/     M anipulation  |
\*---------------------------------------------------------------------------*/
FoamFile
{
    format      ascii;
    class       volScalarField;
    location    "17";
    object      p;
}
// * * * * * * * * * * * * * * * * * * * * * * * * * * * * * * * * * * * * * //

dimensions      [0 2 -2 0 0 0 0];

internalField   nonuniform List<scalar> 
918
(
0.238879
0.921477
0.0163165
0.238059
0.000109072
0.888613
-0.829677
0.421408
0.218923
-0.348828
0.0120308
0.209551
0.74899
0.516456
-1.45596
0.010934
0.375574
-0.710588
0.217695
0.00636203
0.496172
0.225669
0.22864
0.219179
0.277871
0.509132
0.629475
0.00708397
-0.00289313
0.000842675
0.00540081
-0.00311804
0.00360046
0.772239
0.823349
0.846008
0.189015
0.0223872
-0.679629
-0.758696
-0.745231
-0.88682
0.410024
0.413968
-0.475723
0.424562
0.440308
0.206513
0.218223
0.219148
0.220435
0.219267
0.220698
0.158297
-0.395666
-0.437989
-0.286554
-0.226887
0.0535543
0.00725473
-0.00443219
0.0207365
0.0174855
0.147446
0.206235
0.204501
0.215048
0.223998
0.861027
0.832917
0.859061
0.772787
0.789299
0.726925
0.699465
0.536319
0.557604
0.502487
0.493101
-1.89796
-2.86942
-0.854652
-0.594468
0.000740786
0.0161853
0.0213653
0.361092
0.369029
0.370642
0.383056
0.798452
-0.706168
-0.827411
0.217648
0.216465
0.225268
0.225905
0.221906
0.221008
0.0125289
0.0172316
-0.00270324
0.00359
0.00313078
0.477187
0.473687
0.219675
0.216684
0.232355
0.254132
0.243784
-0.0093013
0.289912
0.312358
0.310902
0.49081
0.488289
0.495844
0.602819
0.565957
0.666931
0.690103
0.0118207
0.00326375
0.00830676
0.00671918
0.00758446
0.184223
0.177395
0.201003
0.191946
0.194244
-0.0609759
-0.196853
0.106806
0.128322
-0.583382
-0.651904
-0.769048
-0.778373
-0.905596
0.233799
0.396228
0.400607
-0.489729
-0.407019
-0.555907
-0.333485
-0.406138
0.198256
0.204282
0.199743
0.213937
0.208542
0.210492
0.222518
0.219558
0.221116
0.207967
0.30801
0.0901834
0.0903289
-0.581385
-0.477177
-0.557854
-0.157977
-0.116258
0.0524129
0.0544507
0.041028
0.0424587
-0.0760577
-0.0186288
-0.0484576
0.0212621
0.0196625
0.140852
0.13197
0.156001
0.162171
0.197072
0.198167
0.201271
0.200127
0.650122
0.672391
0.680053
0.653886
-3.87866
-6.69867
-0.260777
-0.116347
0.00314579
0.00299138
0.00179589
0.00489979
0.00299239
0.00137518
0.0258188
0.0233409
0.0226164
0.0254245
0.344517
0.349974
0.745719
0.73111
0.695833
0.666285
0.205763
0.207798
0.213469
0.209289
0.02204
0.0198091
0.0224984
0.44006
0.45984
0.458247
-0.0439925
-0.132827
0.038208
0.0649892
0.331431
0.317296
0.334173
0.374226
0.412335
0.697499
0.715919
0.714159
0.722772
0.766831
0.78326
0.748545
0.167079
0.173994
0.17047
0.205086
0.202307
0.203056
0.197484
0.199856
0.196625
-0.351216
-0.737832
0.184331
0.1975
0.169965
0.174101
0.313255
0.388235
0.376665
0.38706
0.3899
-0.268909
-0.335938
0.0587243
0.0623926
0.0898
0.120678
0.104634
0.621201
0.581971
0.631843
0.605174
0.566814
0.592018
-0.690729
-2.21945
-1.32123
0.250814
0.0545003
0.14642
0.0407019
0.026046
0.0320172
0.692307
0.770885
0.38675
0.590561
0.550177
0.455058
0.48648
0.5389
0.463781
0.498419
0.534874
0.516885
0.186001
0.182001
0.160948
0.46629
0.532986
-0.158803
-0.20664
-0.264339
0.0462544
0.0471842
0.0595805
0.73995
0.603914
0.694453
0.216574
0.217238
0.0144122
0.02513
0.221264
0.221297
0.00758768
0.00752709
0.126539
-1.16878
-0.162805
0.209784
0.200346
0.216799
-0.407691
0.0934526
-0.00126443
0.100452
0.0563354
0.208842
0.157062
0.123507
0.00719902
0.0176455
0.0114366
-0.550556
0.214263
0.212638
0.216419
0.217384
0.218112
0.00811291
0.0113269
0.0075061
0.00968369
0.0104125
0.00799152
0.183636
0.197242
-0.478732
0.216386
0.218619
0.218399
0.211637
0.217069
0.215175
0.0145697
0.00926366
0.00924643
-0.0578244
0.0564629
0.386452
0.498867
0.33504
0.106841
-0.139093
0.281093
0.351049
0.246363
0.416464
0.379926
0.408372
-0.103477
-0.250441
-0.0970227
-0.153944
0.207315
0.206047
0.198663
0.196887
0.211814
0.20997
0.214403
0.211434
0.214131
0.215512
-0.369976
-0.285659
-0.450398
-0.469088
0.0375328
0.294867
-0.0169446
0.0248813
0.0956584
0.00734959
0.0157303
-0.0108652
-0.0145025
0.0280276
0.0522858
0.0776642
0.0492732
0.0558212
0.029527
0.0233138
0.0382663
0.0304978
0.203745
0.200425
0.207676
0.214646
0.164452
0.167483
0.139453
0.154686
0.144663
0.0886783
0.121082
0.100229
0.00782929
0.00856184
0.00590019
0.0206524
0.0236558
0.011161
0.00942773
0.0138088
0.0111166
0.00973433
0.0135203
0.0168417
-0.512525
-0.600665
0.663597
0.606225
-0.101167
0.20339
0.209814
0.206493
0.211258
0.21448
0.215215
0.213015
0.209786
0.197752
0.200055
0.196154
0.195443
-0.42351
-0.558544
-0.374484
-0.438106
-0.170554
0.322333
0.0680794
0.00966021
0.00519823
0.214049
0.592155
0.405459
0.451303
0.477694
-0.669437
-0.268067
-0.598858
0.014199
-0.166737
0.384005
0.438399
0.463435
0.40773
0.355162
-0.425714
0.209344
-0.348878
-0.309787
-0.119657
-0.220017
0.430436
0.364055
0.372201
0.397463
0.421273
0.373108
0.353412
0.350988
0.386928
0.391827
0.187199
-0.0247083
-0.0715944
-0.106597
0.351083
0.227634
0.283916
0.202494
0.202014
0.205431
0.204079
0.187708
0.194458
0.190027
0.195036
0.198039
0.207543
0.207154
0.203099
0.205469
-0.19935
-0.149888
-0.43242
-0.498228
-0.49691
-0.528934
-0.467423
-0.645346
-0.61025
-0.15697
-0.00140293
-0.591856
-0.464579
-0.509253
-0.430235
-0.341466
-0.294782
-0.0471027
0.0844283
-0.0634379
0.00056824
0.0361995
0.0483146
0.00387056
-0.00501172
-0.0468784
-0.010813
0.0738861
0.058363
0.0688251
0.0323522
0.0267241
0.015444
0.0174593
-0.0554732
-0.0710876
-0.0482429
-0.0800946
0.0200988
0.0220547
0.0256575
0.0329575
0.0350025
0.0388655
0.195728
0.196835
0.195781
0.210248
0.221307
0.236022
0.204802
0.182798
0.175322
0.175554
0.15417
0.16113
0.159277
0.170073
0.187775
0.195052
0.192924
0.195386
0.181769
0.182986
0.170427
0.174342
0.155487
0.138356
0.12797
0.0159407
0.0102881
0.0120531
0.0126554
0.00946865
0.0105498
0.0359778
0.031491
0.0350214
0.028422
0.0262476
0.0167113
0.0161953
-0.428575
-0.341474
-0.509583
-0.536209
-0.608549
0.577577
0.701539
0.529853
0.292867
0.325618
0.530627
0.672228
0.266531
0.435552
0.505031
0.198983
0.490508
0.20806
0.208229
0.205905
0.204772
0.205765
-0.329213
-0.227766
-0.217981
-0.163371
-0.0415503
0.0722809
-0.0540682
-0.151988
-0.0163981
-0.00622941
0.317506
0.332508
0.275799
0.302384
0.301499
0.129512
0.203751
0.2581
0.213374
0.255202
0.276856
0.242413
0.269131
0.216933
0.177124
0.176173
0.12534
0.142467
0.120044
0.104458
0.198148
0.178238
0.187702
0.179864
0.199234
0.226867
0.222183
0.244829
0.258829
0.186978
0.149653
0.158524
0.185158
0.148117
0.16005
0.173028
-0.105252
-0.191569
-0.113277
-0.411888
-0.31825
-0.334549
-0.380247
-0.343192
-0.0537087
-0.764433
-0.72776
-1.36536
0.148127
0.623975
0.38108
0.350478
0.41751
0.392517
0.392868
0.428477
0.437105
0.339718
0.358027
0.35947
0.316722
0.342068
0.368089
0.367604
0.1908
0.0774392
0.0633994
0.0348235
-0.0851719
-0.0544915
0.148624
0.0704261
-0.00032878
0.00569489
0.164763
0.0615225
0.122577
0.15844
0.0929086
0.0508215
0.240966
0.309825
0.299507
0.274329
0.193278
0.206145
0.229407
0.262756
0.290287
0.324488
0.196274
0.200227
0.201513
0.19985
0.196044
0.199205
0.199592
0.201839
0.202864
0.205373
0.204434
-0.0384053
-0.0573451
-0.112421
-0.0686977
-0.366719
-0.423978
-0.50978
-0.45913
-0.0950647
-0.133414
-0.276899
-0.184602
-0.128375
-0.0988999
-0.23149
-0.216009
-0.27606
-0.384102
-0.219525
-0.00454579
0.115922
-0.0257236
-0.289889
-0.172245
-0.0954531
-0.0218925
0.0375428
0.0331117
0.00949221
-0.0136307
0.0196908
0.0146253
0.0114725
0.0159904
0.014239
0.0146717
0.0189946
0.0182839
0.0190688
0.0180102
0.0191222
0.184134
0.17802
0.17841
0.174111
0.173682
0.183905
0.188286
0.189662
0.193991
0.196108
0.187943
0.192193
0.194896
0.0240878
0.0205787
0.0238501
0.0178548
0.0183894
0.0175321
0.0166342
-0.15617
-0.233741
-0.162633
-0.314944
-0.436748
-0.39237
0.136425
0.116141
0.147792
0.366575
0.233081
0.128841
0.208482
0.3199
-0.0321539
0.175112
-0.00456754
0.555462
0.435202
0.586508
0.244521
-0.0912009
0.0547388
0.106786
-0.0855208
-0.00742859
0.00392611
-0.104067
-0.0698989
-0.0411639
0.0537799
-0.0609252
-0.0888895
-0.344317
-0.177497
-0.0221385
-0.0419286
0.0867843
0.146232
-0.0980021
-0.153987
-0.195765
0.304517
0.326368
0.34351
0.312347
0.336806
0.263286
0.25453
0.271871
0.282389
0.276724
-1.09974
-0.811872
-1.7561
-1.07424
-0.629105
0.175414
0.136754
0.411608
0.311623
0.393092
0.376711
0.341914
0.306341
0.311921
0.348416
0.0610321
0.167453
0.144561
0.146761
0.0542637
-0.00858255
0.275557
0.26859
0.306737
0.330803
0.298325
0.331731
0.192395
0.192156
0.193405
0.189909
0.189555
0.191316
-0.17258
-0.156581
-0.289229
-0.350446
-0.380094
-0.315594
0.0306995
0.0228401
0.0199397
0.0205652
0.0280989
0.0305874
-0.166767
-0.198743
-0.288909
-0.229451
-0.323957
-0.391068
-0.409156
-0.316361
-0.230913
-0.230159
0.114043
0.366694
0.206186
0.36924
0.22568
0.269721
0.149579
0.145702
0.177123
0.04634
0.1155
-0.132093
-0.628612
-0.540922
0.4233
0.444868
0.230175
0.0363974
-0.187553
0.00727042
0.224819
0.16585
0.206797
0.272207
0.2657
-0.335652
-0.258175
-0.0224433
0.204147
-0.0830597
-0.105627
-0.102032
0.0548063
-0.00863526
)
;

boundaryField
{
    wall-4
    {
        type            zeroGradient;
    }
    velocity-inlet-5
    {
        type            zeroGradient;
    }
    velocity-inlet-6
    {
        type            zeroGradient;
    }
    pressure-outlet-7
    {
        type            fixedValue;
        value           uniform 0;
    }
    wall-8
    {
        type            zeroGradient;
    }
    frontAndBackPlanes
    {
        type            empty;
    }
}


// ************************************************************************* //
