/*--------------------------------*- C++ -*----------------------------------*\
  =========                 |
  \\      /  F ield         | OpenFOAM: The Open Source CFD Toolbox
   \\    /   O peration     | Website:  https://openfoam.org
    \\  /    A nd           | Version:  13
     \\/     M anipulation  |
\*---------------------------------------------------------------------------*/
FoamFile
{
    format      ascii;
    class       surfaceScalarField;
    location    "17";
    object      phi;
}
// * * * * * * * * * * * * * * * * * * * * * * * * * * * * * * * * * * * * * //

dimensions      [0 3 -1 0 0 0 0];

internalField   nonuniform List<scalar> 
1300
(
3.75095
5.62643
-6.09142
3.75095
-5.92617
5.62643
-4.55098
4.55098
-1.35777
1.35777
1.87666
1.87429
-3.02021
3.02021
-4.43588
4.43588
-2.72886
2.72886
-5.24649
5.24649
-5.06837
5.06837
4.68463
-4.68463
-4.83867
4.83867
-1.81213
1.81213
-3.73681
3.73681
3.17165
-3.17165
-4.79664
4.79664
-0.46907
0.46907
-0.553383
4.30434
3.19757
3.19757
-2.44584
2.44584
-4.85179
4.85179
6.21836
-6.21836
9.24677
-9.24677
-3.15536
-3.41132
1.32012
-8.1672
-4.60605
-4.60605
-8.44041
8.44041
-2.81398
2.81245
2.92719
-2.92719
-1.75071
1.75071
-4.51273
-0.0382504
-4.51273
4.51369
0.0372844
4.51369
-1.45458
0.09681
-1.45458
4.05382
-4.05382
1.19785
0.159921
1.19785
3.06476
-3.06476
-1.87716
3.75382
1.87379
-1.87161
6.17595
-1.87934
3.75363
-5.29019
5.29019
-2.99312
-0.0270804
-2.99312
3.27009
-0.249882
3.27009
-5.32431
5.32431
-4.2901
-0.14578
-4.2901
4.53426
-0.0983823
4.53426
2.95339
-2.95339
-2.76308
0.0342162
-2.76308
2.67764
0.0512258
2.67764
0.353564
5.27287
-5.97999
8.79245
-5.27287
0.0263722
5.20853
0.0379656
5.20853
-5.10612
0.0377527
-5.10612
5.00899
0.0593762
5.00899
4.77682
-0.0921895
4.77682
-4.79928
0.114641
-4.79928
-3.33058
-3.43421
-4.93671
0.0980433
-4.93671
-1.82899
0.0168541
-1.82899
1.7476
0.0645347
1.7476
-3.5427
3.5427
-4.19103
0.45422
-4.19103
3.12697
0.0446799
3.12697
1.86869
1.88226
5.61964
-5.61964
2.448
-4.72279
-0.0738547
-4.72279
-4.88922
-4.35756
4.88922
-0.0925727
-0.788431
0.319361
-0.788431
3.15946
0.038111
3.15946
2.60184
0.0757949
-2.60184
0.156002
3.3826
-3.3826
1.80487
0.640969
1.80487
-5.57045
5.57045
4.949
0.0599895
-4.949
0.0972088
6.15766
0.0607033
6.15766
-6.1996
-0.018764
-6.1996
3.36115
-6.77247
-3.42505
4.72631
0.112366
-4.72631
0.120252
2.89484
0.0323493
2.89484
-2.91241
2.91241
-2.97902
0.0518315
-2.97902
-2.16717
0.416468
-2.16717
1.42797
0.322735
1.42797
-4.38455
-0.128177
-4.38455
-4.43502
0.243993
4.43502
0.0786703
0.904957
-0.904957
-1.5727
0.118127
-1.5727
-4.20818
-0.176373
4.20818
-0.154364
-3.93443
-0.119382
-3.93443
-3.02538
0.0463571
3.02538
0.0393874
3.112
0.0474558
-3.112
0.0472399
-1.8708
3.75306
-1.88015
3.75394
-5.12472
-0.165463
-5.12472
5.27589
0.0142953
5.27589
3.33913
0.397676
-3.33913
0.34601
3.6996
-0.429512
3.6996
-5.33919
0.0148838
-5.33919
5.24471
0.0796043
5.24471
4.05279
-0.353195
-4.05279
-0.237301
4.59728
-0.0630266
4.59728
3.00638
-0.0529865
3.00638
-2.91075
-0.0426459
-2.91075
2.79648
-2.79648
2.77709
0.0193852
-2.77709
0.0140131
-11.1327
11.114
-0.0351554
-11.0976
5.17337
5.17337
4.19954
0.577288
4.19954
-5.0099
0.21062
-5.0099
3.32124
-6.74628
3.4231
-6.75367
3.42989
-11.5971
3.3568
-6.79101
5.0829
-5.0829
5.01334
0.0695583
-5.01334
0.0766268
-1.8223
-0.00669168
-1.8223
-2.89766
-0.645046
-2.89766
4.13098
-0.588281
4.13098
-3.03261
3.03261
-3.08229
0.0496793
3.08229
0.0446748
4.65727
-0.0599892
-4.65727
-0.065516
1.00974
0.188105
-1.00974
0.221309
3.58179
-0.199183
3.58179
-3.20072
-0.181885
-3.20072
-1.81373
-0.00856516
1.81373
-0.00886102
-5.81813
0.247687
-5.81813
-11.1906
0.0930311
-11.1527
-6.10657
-6.10657
2.33384
11.1263
-2.88608
-0.0246624
2.88608
0.00875515
2.97571
0.0569061
-2.97571
0.0632981
-2.84867
0.0521889
2.84867
0.0637433
-2.55502
0.387843
-2.55502
-0.996729
0.996729
-1.18962
0.192894
1.18962
0.238348
1.14074
-0.23578
1.14074
1.67809
0.0695091
-1.67809
0.105386
-3.83318
-0.101251
-3.83318
5.25639
0.0195023
5.25639
-3.08187
-0.11885
3.08187
-0.0754913
-0.033288
11.1473
-5.14008
0.0339639
5.14008
-11.208
11.2419
-3.23764
0.682622
3.23764
0.961895
5.29577
0.274673
-5.29577
0.285878
5.16724
0.077464
-5.16724
0.0843419
-2.37842
-0.519239
-2.37842
-4.73607
-0.388656
4.73607
-0.605085
-11.476
-0.20255
11.6786
-11.4167
6.02068
0.136975
-6.02068
11.3789
-0.864747
-0.04021
0.864747
0.131982
1.46699
-0.326249
1.46699
3.74143
-0.159641
-3.74143
-0.0917558
-5.32373
-0.0154639
5.32373
-0.0673409
-1.89744
-0.480979
1.89744
-0.430453
-4.2665
4.30461
1.90945
-3.32057
-3.4519
-7.67813
1.8512
1.90186
4.2992
-7.1704
-4.42668
-7.05015
7.27529
-6.98942
-9.30554
9.21335
7.45772
-7.57711
-5.78055
5.82523
6.4816
-6.44222
1.8785
1.87532
6.29145
-6.31853
-15.9171
15.7516
9.40347
-9.54925
12.0249
-12.01
-13.0694
13.1468
-5.75608
5.79029
-6.63513
6.59248
-6.80113
6.72564
-3.27418
-3.47949
9.27442
-9.17637
11.6997
-11.7736
-8.01029
8.46451
3.38279
0.921816
3.43025
-1.88185
3.76035
-1.87179
3.78124
3.43469
-6.70887
3.31159
-6.76349
6.08148
5.61821
-5.98891
-1.68922
-5.85347
5.88582
-5.81932
5.88306
8.975
-9.01325
-1.88619
3.76152
-1.86775
3.76962
-3.42424
-2.35631
3.37956
0.919631
5.67166
3.60275
-5.78403
-1.26612
-7.66738
7.50774
-7.96991
7.78802
-0.458395
5.82713
-5.36874
4.3934
-1.55301
7.38014
5.72228
5.9329
5.8684
-5.59373
1.12102
-6.48975
-6.39254
-2.63161
2.74974
2.66679
-2.50687
5.88388
1.57385
5.72951
-5.48105
-2.09606
-5.5823
3.81614
2.00909
3.86581
4.06677
2.41483
4.11313
3.02846
-3.03646
0.00800273
-3.05799
6.08645
0.725054
-5.4143
-4.49467
4.41493
1.87652
4.16505
-4.51318
-1.80535
-4.16717
-9.89808
-6.01899
-10.2867
9.63274
6.11887
9.64703
-10.0204
9.95304
6.49022
2.91324
6.39184
-5.8035
-3.74575
-6.0408
10.7259
-1.75776
-8.96811
-7.6042
-5.46518
7.52459
4.50029
7.84585
5.30099
7.93019
3.37011
7.35576
-7.8704
2.40522
-3.84866
-1.90742
-3.83465
3.74408
2.04621
3.79531
-4.1299
-2.50523
-4.15456
-4.1956
-2.60553
4.24859
2.34389
-4.30025
-3.66966
4.4191
2.30654
3.14162
-7.5683
3.64939
-7.12888
-6.48037
-2.696
-6.40374
4.21047
2.59807
-6.80854
-2.49841
10.9511
-5.3329
9.26189
-7.22638
-4.54717
-7.2919
-6.7294
-1.28089
-6.48541
-8.77397
8.25474
-9.18396
8.59568
13.0031
-6.27121
-6.73184
-3.97072
-2.4715
3.92348
-0.49323
-3.71036
3.71837
0.0499836
3.83122
4.75304
4.25981
-3.88957
-1.92975
-3.82627
3.8356
2.04746
3.88779
6.73914
2.23586
6.77642
-6.40986
-2.60339
-6.53803
9.07849
-8.66202
2.95048
-2.95904
5.20985
2.57817
-5.01067
-2.65671
6.0144
-3.03677
-2.97763
-12.2297
10.6029
1.62678
-4.84952
-0.45612
0.0129502
-5.51692
-3.78862
5.40228
0.530626
11.1335
7.34489
-5.51356
5.76124
6.16504
6.22503
-0.167519
5.84327
-5.16064
5.19821
-2.22683
-2.97138
5.25999
-5.43636
-1.27804
-5.23126
3.95322
0.293149
1.90508
-1.58572
-2.0836
-0.548009
-1.97821
1.62496
1.04183
1.81307
0.947656
1.80208
-3.00182
0.607977
2.39384
-2.05416
-1.89889
-3.54449
-0.912243
4.45673
5.47182
2.03592
-5.38007
-0.202233
2.73798
-2.67344
-0.74997
-2.79452
2.07288
-2.82285
-3.52251
-1.80623
5.32874
-3.36926
-0.457004
3.31236
0.553457
-3.80284
-2.05062
3.75101
0.362118
-3.13944
6.24318
-3.10374
-5.06919
2.53067
3.55578
4.53976
-4.78962
2.43984
2.34978
-1.23384
4.39413
-0.229086
3.96462
-5.51195
3.7066
5.02856
3.43596
-5.42623
1.25907
-4.25289
9.86931
-8.37123
-1.49808
5.78769
4.08162
7.56739
5.43566
-5.72458
13.292
-2.17602
-6.19521
6.42891
-2.99295
5.86477
-8.85773
-11.3004
5.10523
-10.582
10.2944
0.287582
-2.40754
-7.61284
12.9895
-2.0537
-10.9358
7.59333
-6.05233
-4.54661
10.5989
-7.81009
8.29236
-3.54875
-4.74361
-7.90983
-4.10017
7.92529
2.02775
-9.68686
12.0921
-2.33111
5.75546
0.63638
5.69243
5.06365
-5.80978
0.746132
2.74644
-6.29519
4.59735
-10.4071
-5.03204
9.76248
-4.73044
-7.72804
-6.9907
-0.737344
1.89431
10.1978
-7.1953
5.39469
1.8006
3.33797
0.549816
-3.35736
-0.477288
0.354423
4.46565
-4.82008
4.14973
4.22553
3.39005
1.0756
3.79216
2.09366
-3.80091
-0.353649
-4.06884
1.46331
-1.72495
-3.58388
5.04719
-4.0145
0.430616
-2.67695
-3.5262
6.20315
-4.58437
3.08028
3.1629
5.12774
-4.90858
1.38239
-2.42297
-2.48562
2.63211
-4.35706
1.9317
3.11549
4.23824
0.568581
4.9899
4.77258
-7.58797
0.45909
8.37533
-7.10921
1.84696
6.08324
-7.24165
0.250949
-6.15279
1.06978
-6.40268
-5.73876
5.5287
-6.8096
-3.32903
6.07828
0.698142
-6.15695
-0.328455
-5.8786
-2.89538
-6.35958
-3.15423
-6.02973
-8.87881
-1.57996
-7.29885
6.67478
-6.83303
-3.4537
7.43812
1.15756
-7.32369
7.28348
-7.3673
7.04105
0.0944061
3.62396
4.35421
1.88272
-2.39012
4.27283
-4.97008
7.20594
-8.43381
3.46372
3.97007
-6.57347
-4.46373
5.01572
4.06277
5.33846
9.00764
-10.6201
1.61251
-10.9914
12.1408
-1.1494
-16.7666
5.77523
-7.75897
2.69897
0.251513
2.69227
0.665459
2.40787
-3.07333
-2.29358
-2.30245
-2.24965
-3.29342
5.54307
1.09033
-3.32917
2.23884
-3.41397
4.50431
-0.102334
-3.22684
5.21578
-2.80791
5.46729
-3.51631
1.95098
3.20649
5.47649
-2.27
4.20889
-1.63072
1.74124
-4.01124
-1.55218
-2.99244
5.03865
-3.21071
3.64133
-0.218579
3.85991
-4.0108
0.974033
-0.620754
3.60477
3.76077
4.11671
-3.04111
2.87216
-4.50287
-1.13908
-3.93429
-0.8188
-0.251796
-3.73421
3.98601
6.13621
-6.38801
-5.29648
9.60214
-4.30567
7.72739
-5.42911
-2.29828
-4.27402
-4.38801
3.88617
1.95709
9.68448
0.197303
-5.62641
-4.96334
-4.00145
3.2034
1.99481
-2.08673
3.71351
2.07378
-0.168705
0.618945
1.19412
1.91175
-1.2928
0.170283
1.74146
-1.41543
1.9985
0.739476
-2.06801
0.0897957
-1.34292
3.41579
1.05093
-2.09275
0.799952
1.13083
-3.35767
4.66906
-2.34374
-2.32532
5.79989
1.17992
-3.52366
4.05134
-3.75819
2.29425
-3.20649
-1.22941
-4.9876
-3.41375
-2.43253
4.67137
-3.11054
5.14645
1.14887
-4.94422
6.09309
-3.50505
1.69881
-2.98593
3.72541
-0.99926
-1.98667
2.72145
2.60729
-2.81045
0.0159317
-0.0889957
2.30979
-2.39878
-0.513057
-2.56722
-4.55326
4.91538
-2.1344
4.57424
2.13843
-1.91681
6.49105
1.81199
-3.7288
-3.2572
-3.71421
-1.37902
3.16075
-1.58058
-4.46022
-6.32419
4.81342
-0.848795
-6.5512
9.09991
-2.54871
-4.67468
0.968081
4.81961
-8.12099
1.8258
-3.52364
5.57627
5.34719
4.49839
-12.3238
1.38795
-6.20491
2.37908
-8.58398
6.4607
-3.37235
8.47757
-11.0772
7.62348
-9.91962
6.97949
-1.60449
5.68505
-4.93891
3.28306
-7.38324
-5.35549
6.82705
-3.91381
7.46343
-4.35403
11.8175
-6.68513
7.02402
4.79344
-1.47538
-5.81652
-6.83994
5.36456
0.184072
5.87651
4.9561
-2.86245
4.60245
2.25983
-4.6828
-2.09723
-6.55252
1.86972
-3.38962
-1.91251
3.78223
3.21523
3.76505
1.29661
-3.28776
6.88927
-7.62662
-2.15884
-3.57992
6.79454
-1.42998
4.1553
-7.73523
-2.24737
4.92913
-0.921359
-4.00777
1.34209
-4.67111
1.58807
-6.25918
5.22152
-5.54998
2.15763
-9.91659
-5.16606
-5.03408
-2.20663
-5.16067
-7.66226
5.45563
-1.88703
5.39646
-8.70777
7.78641
-3.433
8.88863
-5.29959
-1.05998
5.73005
1.311
10.1996
0.13949
-4.60322
-1.77982
3.88963
-2.10981
1.42358
-3.59472
0.294911
2.48399
3.3159
-6.43721
-0.136255
-4.73948
-3.91561
7.97838
5.68653
11.8227
1.2026
9.19796
-1.21959
10.4006
4.11887
4.35722
-3.01842
4.63093
0.967586
4.43131
-0.828204
2.77919
1.86407
1.88092
0.792519
2.29488
1.4659
3.26891
0.195582
-2.10686
4.66253
-8.66397
-0.963887
-8.08668
1.12666
5.75606
-4.6294
3.11491
-1.1201
1.0051
0.223455
-1.81433
1.59087
-2.74792
-1.98303
-0.241568
-1.54088
2.34084
1.87491
-2.09927
-0.648655
0.288091
-3.70184
2.9184
-2.90247
-0.295185
5.7979
-2.73238
0.333594
-1.03356
-2.23363
-2.78164
2.69184
6.22935
0.261704
3.12561
5.17708
3.12646
0.264012
7.20887
-6.92129
-3.19826
-5.53334
0.927359
5.74697
2.27557
7.92221
7.06901
5.63903
-2.0962
-9.72282
6.49608
-1.86515
5.34669
-1.33892
-4.92027
4.89419
2.31175
-5.59234
0.042358
-4.87791
-6.74306
-0.580475
8.36689
-9.61916
8.55918
5.6638
1.63505
-4.36507
-0.669009
4.17218
0.185043
10.5856
-1.14237
-6.89978
8.04214
-4.61369
3.64981
0.916703
2.79681
2.50757
1.38747
-5.5123
-10.1417
-1.76242
-1.59525
-4.08773
0.368997
-2.24391
6.27888
-2.62907
3.98059
5.41307
6.41817
-2.18991
-4.1981
6.49557
-2.51498
3.90319
)
;

boundaryField
{
    wall-4
    {
        type            calculated;
        value           uniform 0;
    }
    velocity-inlet-5
    {
        type            calculated;
        value           uniform -3.75095;
    }
    velocity-inlet-6
    {
        type            calculated;
        value           uniform -5.62643;
    }
    pressure-outlet-7
    {
        type            calculated;
        value           nonuniform List<scalar> 8(6.09142 5.92617 6.56667 6.84708 6.76479 6.7862 6.74433 6.78669);
    }
    wall-8
    {
        type            calculated;
        value           uniform 0;
    }
    frontAndBackPlanes
    {
        type            empty;
    }
}


// ************************************************************************* //
