/*--------------------------------*- C++ -*----------------------------------*\
  =========                 |
  \\      /  F ield         | OpenFOAM: The Open Source CFD Toolbox
   \\    /   O peration     | Website:  https://openfoam.org
    \\  /    A nd           | Version:  13
     \\/     M anipulation  |
\*---------------------------------------------------------------------------*/
FoamFile
{
    format      ascii;
    class       volVectorField;
    location    "17";
    object      U;
}
// * * * * * * * * * * * * * * * * * * * * * * * * * * * * * * * * * * * * * //

dimensions      [0 1 -1 0 0 0 0];

internalField   nonuniform List<vector> 
918
(
(0.98516 -0.00050394 0)
(0.00500502 2.96625 0)
(-0.00414472 1.62326 0)
(0.979715 0.00212287 0)
(-0.00322135 1.57983 2.04777e-21)
(-0.00703342 2.94879 -1.8875e-18)
(0.850351 1.20606 7.27798e-19)
(0.46278 0.215175 -9.22311e-21)
(0.99991 -0.000305048 0)
(0.0045488 0.889869 0)
(-0.0058714 1.27984 0)
(0.796452 -0.00780773 0)
(0.0110988 2.93039 0)
(0.0013503 2.79473 0)
(-0.0182595 3.16896 1.08185e-18)
(-0.00607036 1.49166 -1.26487e-20)
(0.574291 0.0999476 5.7843e-19)
(0.179712 1.15953 6.44182e-19)
(0.963361 0.00509171 0)
(-0.00451329 1.3974 0)
(0.153421 0.262518 -4.90321e-19)
(1.00184 -0.00502546 0)
(1.00027 -0.00973413 0)
(0.975782 -0.00649224 0)
(0.713467 -0.0294058 0)
(0.0184701 2.6302 0)
(-0.0152217 2.91022 6.53698e-19)
(-0.0178048 1.64068 0)
(-0.0171281 1.75098 0)
(-0.0160448 1.63586 0)
(-0.00493134 1.82535 0)
(-0.00263316 1.60184 -1.62018e-21)
(-0.00473438 1.49631 0)
(-0.0206241 2.98758 -6.60859e-23)
(-0.0167036 3.0053 1.46716e-18)
(0.00210269 3.00021 0)
(0.865615 -0.00800488 0)
(0.389594 0.927626 -2.13837e-20)
(0.842714 1.21644 -1.01927e-18)
(0.993714 1.06106 9.5906e-19)
(0.708423 1.30785 -1.69984e-19)
(0.703216 1.2892 9.58612e-19)
(0.488686 0.285784 8.9991e-21)
(0.4794 0.191244 0)
(1.17877 0.570432 0)
(0.461252 0.31013 4.23758e-20)
(0.420948 0.21075 -4.39733e-20)
(0.919827 -0.00727207 0)
(1.00037 9.2367e-05 0)
(0.999918 0.000326946 0)
(1.00343 -0.00779221 0)
(1.00096 -0.00106795 0)
(1.00017 -8.39568e-06 0)
(0.0689999 1.62929 -3.00835e-19)
(0.0112687 0.957766 0)
(0.0484792 0.859109 0)
(-0.0346306 1.00994 0)
(-0.0272562 0.952851 0)
(-0.000507382 1.5818 0)
(-0.0135315 1.42291 0)
(-0.0184394 1.24808 0)
(-0.00782964 1.47256 0)
(-0.00530605 1.30179 0)
(0.874125 -0.000380718 0)
(0.884106 0.00983002 0)
(0.809233 -0.00209993 0)
(0.877012 0.0146009 0)
(0.781385 -0.00882281 0)
(0.0146988 3.0004 6.91282e-19)
(0.0115191 3.00789 0)
(0.0061337 3.00284 0)
(0.0135368 2.99732 7.71135e-24)
(0.00799575 2.95847 -1.02742e-18)
(0.0144969 2.98211 0)
(0.0107954 2.90362 0)
(0.0249443 2.93049 1.38938e-24)
(0.0041733 2.82512 0)
(0.0314861 2.91546 0)
(-0.00635378 2.74351 0)
(0.309738 3.56734 0)
(-0.132653 3.64937 0)
(0.139941 3.25959 -1.00682e-18)
(-0.0112249 2.9927 0)
(-0.0137555 1.80353 0)
(-0.00393379 1.63373 1.24779e-20)
(-0.00494638 1.50453 -2.00605e-20)
(0.631056 0.160738 -1.9931e-19)
(0.583915 0.0570007 -1.94795e-19)
(0.600585 0.194444 -5.99339e-19)
(0.548721 0.125086 -3.98843e-19)
(0.249597 0.931927 0)
(0.270616 1.30482 -6.52811e-19)
(0.363368 1.27938 1.07574e-18)
(0.987893 0.00847646 0)
(0.943342 0.00606349 0)
(1.00031 0.00055172 0)
(1.00288 0.00928477 0)
(1.00297 0.00835752 -1.12582e-18)
(0.99202 0.00977914 8.5001e-19)
(-0.0171253 1.53533 0)
(-0.00756693 1.38229 0)
(-0.026043 1.64571 0)
(-0.0209051 1.57323 0)
(-0.00353077 1.4331 0)
(0.227209 0.280572 1.50995e-19)
(0.276286 0.259919 0)
(0.993595 -0.00824888 0)
(0.954432 -0.00665831 0)
(0.850131 0.0197512 0)
(0.81665 0.0331479 0)
(0.759954 -0.0205816 0)
(1.00983 -0.00574539 0)
(0.761928 0.0502364 0)
(0.627827 -0.0148122 7.76283e-19)
(-0.0355617 2.86577 3.37094e-19)
(0.0435146 2.90752 0)
(0.0570272 2.88308 0)
(-0.00574076 2.69612 0)
(-0.0129062 2.98543 6.00908e-19)
(-0.0182987 2.89567 0)
(-0.0153044 2.98816 -1.90079e-18)
(-0.0134428 2.92526 6.56376e-19)
(-0.0151475 1.81374 0)
(-0.0116104 1.80922 0)
(-0.00291595 1.63078 -2.62158e-22)
(-0.00229001 1.60079 0)
(-0.00558915 1.49375 0)
(0.930511 -0.0052985 0)
(0.852502 -0.00728321 0)
(0.860329 0.00940214 0)
(0.945249 -0.00625434 0)
(0.884067 -0.00712727 0)
(0.5038 1.12233 1.63589e-20)
(0.556109 1.17792 0)
(0.347416 0.863495 5.73013e-21)
(0.291331 0.726199 0)
(0.954127 1.09428 -2.76194e-19)
(1.06779 0.897006 5.63349e-19)
(0.424695 1.3814 0)
(0.553599 1.37014 0)
(0.554549 1.31724 0)
(0.0932685 0.134162 -1.26613e-19)
(0.520548 0.265975 0)
(0.505116 0.168053 1.14677e-19)
(1.03753 0.947344 0)
(1.10413 0.790551 0)
(1.13061 0.734878 -4.87674e-19)
(1.15757 0.628479 0)
(1.20875 0.409358 5.94957e-20)
(0.956291 -0.00799092 0)
(0.962075 -0.00940635 0)
(0.902224 -0.00803622 0)
(0.984226 -0.00903861 0)
(0.974833 -0.00944786 0)
(0.936724 -0.00625045 0)
(1.00007 0.0022598 0)
(1.00093 0.00150035 0)
(0.999884 0.00085063 0)
(0.02125 1.86583 1.83028e-19)
(0.0693164 1.58503 0)
(0.0282842 1.85021 2.08139e-19)
(0.0174221 1.60308 -1.55525e-19)
(0.107323 1.16252 -5.34293e-19)
(0.0632635 1.01754 0)
(0.129351 0.984051 0)
(-0.0581777 1.12596 0)
(-0.0412496 1.0779 0)
(0.0137771 1.73711 -9.45578e-22)
(0.00722342 1.59987 0)
(-0.00265358 1.71825 -3.6357e-20)
(-0.00976584 1.56726 7.24047e-20)
(-0.0456731 1.26147 0)
(-0.02951 1.36073 0)
(-0.0287947 1.17954 0)
(-0.00977177 1.50283 0)
(-0.00639236 1.32015 0)
(0.953588 0.0144568 0)
(0.894625 0.00182279 0)
(0.934483 0.00958494 0)
(0.86185 0.000321732 0)
(0.813328 0.000218715 0)
(0.904838 0.00487338 0)
(0.896524 0.00401978 0)
(0.808374 -0.0043777 0)
(0.00585913 3.06482 -6.088e-21)
(0.0164687 3.05808 0)
(0.0147436 2.96916 0)
(0.00850985 2.87631 0)
(0.926811 3.98544 0)
(1.24204 3.31389 1.01193e-18)
(0.071543 3.08501 0)
(-0.025897 2.9125 0)
(-0.0154001 1.79714 0)
(-0.0161902 1.79934 0)
(-0.0144304 1.79802 0)
(-0.0089364 1.81295 5.35855e-21)
(-0.0130016 1.81083 0)
(-0.0112169 1.80934 0)
(-0.00217693 1.51303 1.19089e-21)
(0.000524038 1.66227 2.14284e-20)
(-0.00108457 1.64906 2.05036e-20)
(-0.00185203 1.50428 0)
(0.654633 0.116527 2.92429e-19)
(0.594106 0.0256407 -2.85008e-19)
(0.214617 1.51252 0)
(0.291682 0.701999 -2.28667e-19)
(0.137015 1.62765 -7.54209e-19)
(0.171937 1.18337 7.53714e-19)
(0.90385 0.00873092 0)
(0.968468 0.0114104 0)
(0.975144 0.0106078 0)
(0.925688 0.00713767 0)
(-0.0137552 1.51738 0)
(-0.0150833 1.5233 0)
(-0.00751249 1.34686 0)
(0.418527 0.320753 3.89841e-19)
(0.352468 0.301414 -4.75387e-19)
(0.363754 0.234294 0)
(1.12926 0.082955 -2.42029e-21)
(1.11441 0.037681 0)
(1.04438 0.0349904 0)
(0.954907 0.0062133 0)
(0.670685 0.0880558 0)
(0.701105 0.0632407 -1.25001e-18)
(0.605537 0.0115158 4.77377e-19)
(0.00994282 2.98236 4.26186e-19)
(-0.032184 2.86816 4.88251e-20)
(0.0038137 3.05016 -1.3144e-20)
(0.0199889 3.04356 4.73078e-19)
(-0.0150396 2.99656 2.18152e-20)
(-0.0129806 2.94945 -8.83347e-23)
(-0.0172676 3.012 -4.13529e-19)
(0.0147625 3.02411 2.98673e-19)
(0.00726274 3.03666 -4.66862e-19)
(0.93007 0.00722923 0)
(0.93023 0.00108428 0)
(0.848664 -0.00275372 0)
(0.956791 0.0129631 0)
(0.942747 0.0131775 0)
(0.882094 0.00815713 0)
(0.914418 0.0103297 0)
(0.924691 0.0143227 0)
(0.833244 0.00684688 0)
(0.71322 1.40743 3.15702e-19)
(0.749014 1.51898 0)
(0.219107 0.365959 2.60239e-20)
(0.169295 0.563924 2.08888e-19)
(0.256583 0.680265 -1.22029e-19)
(0.221208 0.56654 2.24955e-19)
(0.287849 0.667217 7.29945e-19)
(0.109369 0.161781 2.13589e-19)
(0.576276 0.221988 4.29106e-19)
(0.547179 0.246499 1.06279e-19)
(0.52898 0.152869 2.15856e-19)
(1.19686 0.4655 2.8631e-19)
(1.21221 0.258181 3.00225e-19)
(0.0338057 1.78982 6.94231e-20)
(0.0255119 1.57951 0)
(0.99705 0.0265363 0)
(0.965404 0.0172339 0)
(0.918607 -0.000763696 0)
(0.0109154 3.07453 0)
(0.0199301 2.94404 8.12919e-19)
(0.0165742 2.9564 0)
(0.00613634 2.8508 -8.06309e-19)
(0.00608005 3.09127 1.92743e-19)
(0.00747819 3.08274 0)
(0.782936 1.82443 -2.36037e-19)
(1.24885 2.50906 6.47652e-19)
(0.765703 1.96626 -1.48325e-18)
(0.0213025 2.98463 -3.12644e-19)
(0.0376793 3.00862 0)
(-0.0316098 2.88307 0)
(-0.00411411 1.68055 -4.36906e-21)
(-0.00176683 1.67426 -4.82146e-20)
(-0.00283735 1.53546 -6.35579e-21)
(0.25031 1.32425 7.14583e-19)
(0.251728 0.462194 -4.95702e-19)
(0.0385104 1.85091 4.88633e-19)
(0.103923 1.76507 -6.35632e-19)
(0.115742 1.41753 1.10223e-19)
(0.00266049 3.11836 -1.14021e-18)
(0.0176756 3.11773 1.2184e-18)
(-0.00859951 2.98125 5.21603e-19)
(-0.00256148 2.97793 -4.62209e-19)
(-0.0214125 2.88255 -5.31235e-19)
(0.00885792 3.09927 -1.41305e-18)
(0.00247181 3.10644 1.37234e-18)
(0.222544 0.589721 0)
(0.152375 0.562739 -3.99001e-19)
(0.134619 0.18673 1.76835e-19)
(0.320798 0.796914 6.54163e-19)
(0.170822 0.208592 -1.0001e-18)
(1.20999 0.170364 -5.24412e-20)
(1.21167 0.310125 0)
(1.19731 0.118413 1.17222e-19)
(0.0241739 1.75597 -7.85964e-22)
(0.0469736 1.77079 0)
(0.0257438 1.594 0)
(0.29844 1.20094 -2.58385e-19)
(0.34873 1.01609 -5.50692e-19)
(0.190991 0.310559 9.37097e-19)
(1.00585 -0.0110526 0)
(1.00768 -0.00774604 2.05622e-19)
(-0.0156458 1.80139 0)
(-0.0258535 1.80962 0)
(1.00223 0.00356506 1.80546e-21)
(1.00377 0.00948132 4.22488e-19)
(-0.0085912 1.81685 -7.09629e-21)
(-0.00696291 1.81586 0)
(0.0405981 3.18518 1.17091e-19)
(0.399262 3.50459 0)
(1.10479 0.644432 5.76359e-20)
(1.0119 0.0122873 -2.30413e-21)
(1.0212 -0.0103225 0)
(1.00169 0.000128198 -1.76728e-23)
(-0.0434751 1.11083 0)
(-0.0197846 2.64229 0)
(-0.0891112 1.66432 0)
(-0.0654312 1.99063 7.57397e-20)
(-0.0525487 1.89347 4.23736e-20)
(1.00441 0.00988551 2.07839e-21)
(1.04492 0.0161651 0)
(1.06982 0.0285128 0)
(-0.017984 1.80124 0)
(-0.0097438 1.83121 0)
(-0.0260039 1.79106 0)
(0.322939 1.37807 -4.67815e-19)
(1.0112 -0.00960057 0)
(1.00944 -0.015624 0)
(1.00227 0.00045989 2.59558e-19)
(1.00559 -0.00486525 -3.09897e-19)
(1.00116 -0.00103697 0)
(-0.0201964 1.7982 0)
(-0.0182568 1.79668 0)
(-0.0175795 1.7989 0)
(-0.0262207 1.79199 0)
(-0.0241888 1.79082 0)
(-0.0270593 1.79291 0)
(1.02627 -0.0131763 0)
(1.02072 0.0194189 -8.37337e-22)
(0.792936 1.26617 5.18595e-19)
(1.00308 0.000261471 -2.62939e-19)
(1.00321 0.00576624 3.14322e-19)
(1.00125 0.00210103 0)
(1.01239 0.0105744 2.55498e-19)
(1.00783 0.00815892 -3.16694e-19)
(1.00881 0.0142617 0)
(-0.0101211 1.83107 0)
(-0.00952319 1.82486 1.15646e-20)
(-0.00844077 1.82359 -8.15383e-21)
(1.18347 0.250578 -4.27402e-20)
(1.12296 0.0848195 0)
(0.0566652 3.07855 -5.29644e-19)
(0.0692251 2.85093 -4.25346e-20)
(0.148784 3.19938 8.13506e-19)
(0.14282 3.22809 -5.02331e-21)
(0.140894 3.24565 0)
(0.0226102 3.13885 1.15269e-19)
(0.0820239 3.16332 5.17111e-19)
(0.0749281 3.19078 -2.22732e-19)
(0.0265653 3.12859 0)
(0.686346 0.326019 0)
(0.62634 0.386211 0)
(1.08139 0.67396 -2.27354e-19)
(1.07652 0.809919 3.59475e-19)
(1.14174 0.56121 0)
(1.17391 0.510992 0)
(1.0155 0.0130396 -4.7263e-19)
(1.01358 0.0141906 5.8959e-19)
(1.02477 -0.0101029 0)
(1.02063 -0.0165273 0)
(1.00664 0.0030485 0)
(1.0102 0.00402726 0)
(1.0045 0.00188241 0)
(1.00952 0.00616487 0)
(1.00779 0.00543908 0)
(1.00532 0.00501882 0)
(-0.0780944 1.13226 0)
(-0.110221 1.10736 0)
(0.0753735 1.11417 0)
(0.118025 1.15682 0)
(0.00990613 2.67224 0)
(0.101343 2.69419 -2.12402e-19)
(-0.0973397 2.63463 0)
(-0.116542 2.55786 1.98936e-20)
(-0.0789471 2.22307 -9.34246e-20)
(-0.0733716 1.67685 0)
(-0.0510076 1.70115 0)
(-0.113687 1.62267 0)
(-0.10012 1.55211 0)
(-0.184155 1.90426 -2.12744e-20)
(-0.065033 1.91941 4.31683e-20)
(-0.063164 1.98508 5.31919e-20)
(-0.0520696 1.95649 0)
(-0.050489 1.89183 -9.42047e-20)
(-0.0338815 1.87415 -4.10034e-20)
(-0.163576 1.88194 1.65225e-20)
(-0.100553 1.88669 -5.75258e-20)
(-0.102816 1.93857 -7.05788e-20)
(1.01233 0.0189823 4.69572e-19)
(1.01195 0.00385058 -5.7824e-19)
(1.00614 0.0199867 -4.88993e-19)
(0.992707 0.0134114 6.16721e-19)
(1.0446 0.0192372 0)
(1.0348 0.00665832 0)
(1.06524 0.0385646 0)
(1.05237 0.0239063 0)
(1.05437 0.0129604 0)
(1.10638 0.0776395 0)
(1.08085 0.04864 0)
(1.08823 0.0374483 0)
(-0.0120448 1.81889 -1.42517e-21)
(-0.0184396 1.8084 0)
(-0.0141146 1.81175 0)
(-0.00990242 1.83746 1.35866e-20)
(-0.00833178 1.83849 -5.61804e-22)
(-0.0240913 1.80439 1.20145e-20)
(-0.0246412 1.80121 -1.22657e-20)
(-0.0272345 1.79838 0)
(-0.0257953 1.79924 0)
(-0.0253332 1.79932 0)
(-0.0260117 1.78925 0)
(-0.0212573 1.77489 0)
(0.426766 1.43702 8.73274e-19)
(0.398707 1.44967 3.22935e-19)
(0.635 2.40041 -1.63744e-19)
(0.40961 2.5463 4.62236e-19)
(0.461089 2.04575 -5.13519e-20)
(1.02131 -0.00805412 0)
(1.01538 -0.00953327 0)
(1.01595 -0.0151249 0)
(1.00752 -0.000747866 0)
(1.00451 -0.00135905 0)
(1.00735 -0.00471628 0)
(1.00965 -0.00392793 0)
(1.01399 -0.00427749 0)
(1.02248 0.0179303 4.54973e-19)
(1.01625 0.0197907 -5.77366e-19)
(1.02274 0.0194805 -4.55241e-19)
(1.01885 0.0165776 5.68758e-19)
(0.764807 1.30736 0)
(0.693274 1.36295 6.16333e-19)
(0.862662 1.19995 3.53304e-19)
(0.903153 1.16685 -4.69785e-19)
(1.14708 2.61113 -5.06434e-19)
(0.834418 0.110111 3.01731e-19)
(1.12372 0.0969919 0)
(1.16826 0.170771 3.97403e-20)
(1.15986 0.154944 1.78052e-21)
(0.974337 0.123298 0)
(0.152859 2.97013 1.24617e-19)
(0.128859 2.87602 -6.72212e-19)
(0.0429216 2.34843 4.91982e-19)
(0.109863 0.117912 -2.0499e-19)
(0.343247 3.43223 -4.41287e-19)
(0.19888 3.32434 0)
(0.239515 3.36969 5.74698e-19)
(0.256457 3.04406 -7.32423e-19)
(0.351695 3.20258 0)
(0.00673241 3.1208 2.69496e-20)
(0.017354 3.12977 -3.44998e-19)
(0.0153885 3.12556 5.07786e-19)
(0.0384736 3.14041 0)
(0.0373446 3.15202 0)
(1.20973 2.61275 0)
(0.50058 0.845069 -2.35525e-19)
(1.01502 0.989288 -1.93737e-19)
(0.957319 1.04582 0)
(0.796432 0.952449 4.88084e-20)
(1.03462 0.867893 3.11493e-20)
(0.404437 0.482674 -5.50684e-19)
(0.714545 0.331881 -2.32243e-20)
(0.698632 0.288192 2.28781e-19)
(0.628673 0.422026 1.83439e-20)
(0.571634 0.411293 -7.54043e-19)
(0.698505 0.349577 0)
(0.722355 0.419776 3.82755e-19)
(0.722821 0.413589 0)
(0.671037 0.391726 0)
(0.659514 0.326043 0)
(0.739495 0.595565 1.43792e-19)
(1.18239 0.268488 1.87805e-20)
(1.18096 0.404676 0)
(1.18915 0.359257 0)
(0.760652 0.219943 3.43099e-19)
(0.791939 0.513774 -1.92274e-19)
(0.716406 0.497305 3.13407e-19)
(0.908772 0.400872 -2.98823e-19)
(1.02014 0.0150891 3.10649e-19)
(1.01739 0.0141938 -3.20128e-19)
(1.01365 0.0163997 0)
(1.02648 -0.0147525 0)
(1.02519 -0.0154248 -2.86961e-19)
(1.01986 -0.0208486 2.83893e-19)
(1.03259 0.0060499 0)
(1.02645 0.0168996 0)
(1.01121 0.00448902 0)
(1.01496 0.00842112 0)
(1.01591 0.00407993 0)
(1.0134 0.00170731 0)
(-0.175853 1.22846 0)
(-0.173142 1.25103 0)
(0.101844 1.02624 4.7695e-19)
(0.30899 1.35515 2.81255e-19)
(0.218873 1.20524 6.21062e-19)
(0.230911 1.26504 -9.92044e-19)
(0.300479 1.17246 0)
(0.148501 1.89088 6.84102e-19)
(-0.00651133 1.77715 0)
(0.48541 2.13831 7.65357e-20)
(0.40365 2.42526 2.24938e-19)
(0.408244 1.50156 -5.95721e-19)
(0.418384 1.28434 2.56962e-19)
(0.356796 1.16545 -2.05562e-19)
(0.488645 1.30664 4.6607e-19)
(0.463085 1.72881 0)
(0.486439 1.71746 -3.50335e-19)
(-0.313981 2.18401 5.122e-20)
(-0.128761 2.34169 0)
(-0.267173 2.37675 -1.59051e-19)
(-0.289723 2.29524 0)
(-0.126353 2.51821 -2.31561e-20)
(-0.0988864 2.39548 0)
(-0.178838 1.75679 4.09085e-21)
(-0.24274 1.82613 0)
(-0.217248 1.65627 0)
(-0.183744 1.67865 -4.61504e-21)
(-0.0862533 2.05092 -3.73678e-20)
(-0.0738735 2.1926 1.00282e-19)
(-0.0523507 2.09837 6.2521e-22)
(-0.0992251 1.83649 2.46563e-20)
(-0.1225 1.82853 9.18324e-21)
(-0.0397574 1.72678 0)
(-0.0260395 1.73842 0)
(-0.33596 1.91989 -6.56149e-20)
(-0.291174 1.692 -8.8349e-20)
(-0.273084 1.82138 1.03103e-19)
(-0.383381 1.87425 0)
(-0.0200881 1.82636 -4.97293e-20)
(-0.0195294 1.83713 2.33262e-20)
(-0.0217393 1.83971 -7.17447e-21)
(-0.0794007 1.82458 -2.98631e-20)
(-0.0462573 1.8624 -1.17232e-20)
(-0.0570104 1.87069 6.55063e-20)
(1.02255 0.0135407 -3.05203e-19)
(1.02082 0.00991126 3.09589e-19)
(1.01702 0.00474974 0)
(1.00045 0.0448177 4.44442e-19)
(0.993463 0.033111 -5.14173e-19)
(0.967652 0.0237771 5.95809e-19)
(0.997485 0.0795482 -5.80663e-20)
(1.02759 -0.00814464 0)
(1.0337 0.00811991 2.579e-19)
(1.02638 -0.005929 -2.56157e-19)
(1.04446 0.0392615 -1.44252e-20)
(1.04761 0.0286767 1.27963e-19)
(1.04193 0.0491198 0)
(1.03445 0.0409614 -4.76324e-20)
(1.02887 0.0272545 0)
(1.02494 0.0200538 0)
(1.03661 0.00856961 0)
(1.03262 0.010594 0)
(1.03625 0.0255874 9.88859e-20)
(1.0389 0.0186519 -2.20618e-19)
(1.03735 0.0304033 -1.00349e-19)
(1.03588 0.0297753 -1.15874e-19)
(1.03872 0.0567472 2.10712e-19)
(1.06802 0.0521205 0)
(1.06579 0.0938311 0)
(-0.020169 1.8265 -1.81324e-20)
(-0.0195898 1.81303 -1.58565e-21)
(-0.0211728 1.81434 0)
(-0.0138767 1.82709 1.92963e-20)
(-0.0130835 1.8211 2.95376e-21)
(-0.0131585 1.8254 -3.04315e-21)
(-0.0290999 1.8688 3.44666e-20)
(-0.0236218 1.84906 -2.64193e-21)
(-0.0331912 1.85361 1.27968e-20)
(-0.0108773 1.84941 -1.84477e-20)
(-0.015377 1.85236 2.2415e-20)
(-0.027763 1.80443 2.82576e-22)
(-0.0267916 1.80809 2.15849e-20)
(0.476806 1.38428 -4.23331e-19)
(0.474471 1.40115 -3.97753e-19)
(0.651414 1.39864 -5.95365e-19)
(0.51381 1.45726 -3.20719e-19)
(0.544911 1.43963 0)
(0.601797 2.38242 1.40287e-19)
(0.697795 2.34476 2.45141e-19)
(0.420598 2.51867 1.06522e-19)
(0.448756 2.58099 -1.44078e-19)
(0.56496 2.51696 3.21381e-19)
(0.530467 2.44379 0)
(0.542939 2.44874 -3.82173e-19)
(0.20905 2.64965 6.14978e-19)
(0.371575 2.59353 -4.84489e-20)
(0.247136 2.67875 -9.75434e-19)
(0.914613 2.36621 2.08992e-19)
(0.821967 2.34291 0)
(1.01078 -3.13869e-05 1.04062e-20)
(1.0151 -0.00508805 -8.34585e-21)
(1.01629 -0.0036746 -1.5099e-19)
(1.01464 -0.000960239 1.53595e-19)
(1.01291 0.000978724 0)
(0.637282 1.25433 0)
(0.641488 1.15361 0)
(0.735565 1.08974 0)
(0.63276 1.11692 0)
(1.17699 2.62957 5.42309e-20)
(1.05865 2.36183 0)
(0.855264 2.26498 -1.97234e-21)
(0.810767 2.49479 0)
(0.906675 2.58517 1.60595e-20)
(0.946673 2.54003 -1.07184e-20)
(0.839504 0.13707 0)
(0.811043 0.143405 8.64748e-20)
(0.920583 0.126831 4.44806e-19)
(0.862552 0.120082 -1.78404e-19)
(0.856428 0.0727706 -5.35824e-19)
(1.0255 0.208828 -2.69228e-19)
(0.956083 0.278817 -1.52664e-20)
(0.883856 0.275436 4.05673e-19)
(0.961627 0.202529 3.04603e-19)
(0.933028 0.159102 -5.60499e-19)
(0.90817 0.174572 7.23252e-20)
(0.925158 0.238084 -1.43223e-19)
(0.905363 0.192637 0)
(0.968097 0.159869 2.68637e-19)
(1.00134 0.158725 0)
(1.00059 0.188155 0)
(1.06151 0.103371 9.04931e-20)
(1.02246 0.148084 -1.37186e-20)
(1.01843 0.211459 -4.94254e-20)
(1.05154 0.180466 0)
(1.01697 0.0247496 2.34483e-19)
(1.03021 0.0432563 2.78825e-19)
(1.02576 0.0294452 -2.32844e-19)
(1.02327 0.0476812 -1.87504e-19)
(1.00596 0.0495793 -3.12659e-19)
(0.976431 0.124835 0)
(0.983276 0.0765885 0)
(0.970653 0.04669 -2.15296e-19)
(0.933904 0.0564701 8.99612e-20)
(1.00532 0.0798478 2.65551e-19)
(1.02572 0.104145 -2.74389e-19)
(1.03074 0.124962 2.49135e-19)
(0.992472 0.122976 0)
(1.03635 0.0929729 0)
(1.02293 0.0789716 -1.14584e-19)
(1.02062 0.0799924 -2.12986e-19)
(0.588881 1.07045 -8.56851e-20)
(0.632562 1.42187 1.85933e-19)
(1.15645 2.75722 8.4286e-20)
(1.21822 3.09545 -6.8454e-20)
(1.24186 2.73002 5.26706e-19)
(1.27395 2.71317 -3.25396e-19)
(1.19886 2.34534 -7.63574e-21)
(1.20476 2.99779 1.81408e-19)
(1.22369 2.96268 -1.93645e-19)
(1.20949 3.24887 -2.64136e-19)
(1.37291 2.97723 3.65737e-19)
(1.36533 2.89427 0)
(0.50023 0.852141 -1.34561e-20)
(0.163862 1.29718 3.68539e-19)
(0.523647 0.546641 3.64538e-19)
(0.355039 0.31814 3.97305e-19)
(0.569505 0.441775 4.20934e-19)
(0.549479 0.504968 -6.68955e-19)
(0.546081 0.525436 5.48375e-19)
(0.519818 0.479886 -2.18875e-19)
(0.485017 0.422096 5.05831e-19)
(0.76826 0.265796 -1.91875e-19)
(0.73697 0.29467 0)
(0.72803 0.247301 1.09404e-20)
(0.711246 0.512785 1.97769e-19)
(0.694077 0.478857 -7.27441e-19)
(0.619109 0.506306 2.01235e-20)
(0.640301 0.476681 0)
(0.626357 0.738112 1.56811e-19)
(0.776716 0.758603 6.53321e-20)
(0.711357 0.847157 -8.49088e-20)
(0.82265 0.790282 -2.32828e-20)
(0.864107 0.833299 1.17804e-20)
(0.872186 0.835445 -1.20625e-20)
(0.782535 0.628393 -2.44161e-19)
(0.866609 0.686458 2.16453e-20)
(0.930893 0.698273 0)
(0.919511 0.672631 -2.40548e-20)
(0.981283 0.313238 6.81199e-20)
(1.08006 0.277681 1.89284e-20)
(1.01064 0.251658 1.10025e-19)
(0.96505 0.342642 -1.54159e-19)
(1.0034 0.401216 0)
(1.05138 0.397035 0)
(0.883949 0.335964 3.20764e-21)
(0.822847 0.278753 0)
(0.833247 0.276602 2.06555e-19)
(0.880841 0.281589 -8.08629e-21)
(0.899572 0.401201 8.17577e-19)
(0.848558 0.458079 2.09735e-19)
(0.860513 0.424511 -2.59791e-19)
(0.805217 0.413415 2.78076e-19)
(0.791756 0.407796 1.88516e-19)
(0.780611 0.399903 -1.8508e-19)
(1.0258 -0.0113108 2.48607e-19)
(1.02064 -0.0056235 0)
(1.01839 -0.00359449 1.63369e-19)
(1.02391 -0.00729934 -3.68701e-19)
(1.02591 -0.000151079 1.78743e-19)
(1.02217 0.0112036 -3.77752e-19)
(1.02338 0.0127733 0)
(1.02217 0.0117903 -7.9463e-20)
(1.01683 0.00609608 1.9702e-19)
(1.01616 0.00969588 -1.00565e-19)
(1.01905 0.00938921 7.4521e-20)
(-0.161608 1.51238 0)
(-0.254226 1.61551 0)
(-0.199992 1.36974 0)
(-0.138889 1.4095 0)
(-0.318877 1.49909 -7.47017e-19)
(-0.199758 1.31585 2.42795e-19)
(-0.15849 1.7841 2.47105e-19)
(-0.187248 1.52287 -2.58805e-19)
(-0.337618 1.68799 1.60062e-19)
(-0.347692 1.67175 -1.23121e-19)
(-0.311634 1.46962 1.03882e-19)
(-0.304773 1.47711 3.08458e-19)
(-0.278047 1.50086 3.08861e-20)
(-0.29596 1.5806 1.78691e-20)
(-0.257246 2.42571 1.7482e-19)
(-0.185626 2.52616 0)
(-0.147283 2.33759 -7.6498e-20)
(-0.223885 1.94352 -1.64234e-19)
(0.406157 2.17778 9.51948e-20)
(0.232151 2.58492 0)
(0.246621 2.51354 -9.00002e-20)
(0.407827 2.48518 6.26105e-20)
(0.219453 2.24434 2.47612e-19)
(0.0704882 2.33909 -1.30743e-19)
(0.00640564 2.59544 0)
(-0.287851 2.00253 4.40736e-20)
(-0.191021 2.00598 -8.91571e-20)
(-0.221182 1.9546 0)
(-0.211107 2.13201 -3.14503e-21)
(-0.299712 2.13213 -1.40793e-20)
(-0.114684 1.74534 3.15605e-21)
(-0.0761563 1.75525 -4.10461e-20)
(-0.0720775 1.77547 1.13642e-20)
(-0.115694 1.77834 1.39894e-20)
(-0.154971 1.76964 0)
(-0.0575793 1.7766 0)
(-0.0246425 1.7757 2.13634e-20)
(-0.0348991 1.78972 -6.63478e-21)
(-0.0418215 1.78304 0)
(-0.0264876 1.7585 1.54275e-20)
(-0.0194593 1.75928 -3.13883e-20)
(1.03439 0.011942 0)
(1.04035 0.0143519 -2.45574e-20)
(1.04218 0.0193351 -1.75735e-19)
(1.04037 0.0203506 0)
(1.0402 0.0218097 0)
(1.04379 0.00885716 -5.85623e-21)
(1.0408 0.00720863 2.96708e-19)
(1.04026 0.0113275 3.54975e-19)
(1.03405 0.0119663 0)
(1.02945 0.00895604 0)
(1.03782 0.0173063 1.79366e-19)
(1.02871 0.011182 0)
(1.02942 0.00986838 0)
(-0.03436 1.82984 0)
(-0.0294745 1.8081 2.55525e-21)
(-0.0287022 1.82277 1.208e-20)
(-0.0307141 1.79357 0)
(-0.0322383 1.80803 1.32652e-20)
(-0.0296448 1.80366 -7.44359e-21)
(-0.0314491 1.79787 0)
(0.366427 1.69691 0)
(0.440234 1.35978 6.13648e-19)
(0.409932 1.37902 0)
(0.451611 1.35414 -8.16397e-19)
(0.494864 1.41196 0)
(0.484686 1.40645 3.82688e-19)
(1.02081 2.71461 -3.95898e-21)
(0.93452 2.40884 -2.63762e-19)
(0.867492 2.14336 3.31947e-19)
(0.830868 2.33971 1.19432e-19)
(0.83135 2.52439 0)
(0.8958 2.5252 0)
(0.897637 2.35584 0)
(0.880201 2.32259 -4.42894e-19)
(0.683195 2.4934 -6.29312e-20)
(0.791991 2.50215 -2.28942e-20)
(0.792118 2.47149 1.77306e-20)
(0.686525 2.33898 0)
(0.786421 2.33772 0)
(0.751222 2.34319 -2.30685e-19)
(0.746685 2.49083 0)
(0.592129 1.08018 0)
(0.468914 0.924689 -2.05854e-20)
(0.516577 0.956913 -2.39075e-21)
(0.512272 1.05096 0)
(0.503876 1.00475 3.47231e-20)
(0.732758 0.874506 1.03456e-20)
(0.761515 1.00827 0)
(0.730213 0.965796 -5.50666e-20)
(0.595996 1.02208 0)
(0.609059 0.937939 0)
(1.15913 2.77648 4.25951e-20)
(1.13927 2.84132 1.16141e-19)
(0.946765 2.37277 -2.67316e-19)
(0.916854 2.34427 3.42615e-20)
(1.12208 2.7497 0)
(1.07053 2.72302 -4.05918e-20)
(1.0743 2.49057 -8.34965e-20)
(0.963056 2.22031 -2.97754e-20)
(0.493605 1.37996 0)
(0.501183 1.0515 7.55222e-20)
(0.558122 1.12988 0)
(0.852435 0.213859 0)
(0.815976 0.15911 0)
(0.776089 0.172526 0)
(0.83576 0.226227 -3.24638e-19)
(0.784611 0.231127 2.01287e-19)
(0.936883 0.052787 -1.83798e-19)
(0.942719 0.100108 0)
(0.925636 0.107759 8.33514e-20)
(0.889986 0.0813754 3.4149e-19)
(0.884862 0.0516084 -2.10391e-19)
(1.16077 3.37451 -9.75996e-19)
(1.20595 3.2944 0)
(1.16223 3.40179 -1.93545e-18)
(0.649105 3.5638 1.65826e-18)
(0.872605 3.13099 3.83893e-19)
(0.48358 0.874258 2.19963e-19)
(0.41451 0.86163 0)
(0.348321 0.561736 -8.30527e-20)
(0.414792 0.691452 3.81529e-19)
(0.521606 0.540771 -1.14291e-19)
(0.503856 0.565601 1.28351e-19)
(0.630217 0.555582 2.75797e-19)
(0.65136 0.558776 0)
(0.602627 0.633734 0)
(0.565187 0.570501 0)
(0.916754 0.578015 -4.557e-20)
(0.848003 0.512368 -2.02992e-19)
(0.868793 0.547457 1.04247e-19)
(0.914051 0.483082 -1.47985e-19)
(1.006 0.465506 0)
(1.02661 0.542423 -1.05619e-20)
(0.835941 0.368146 -4.12684e-19)
(0.83778 0.354337 -4.78987e-19)
(0.802024 0.367567 3.24578e-19)
(0.780304 0.346092 -3.65438e-19)
(0.82597 0.300083 -2.72294e-19)
(0.783903 0.302251 3.3476e-19)
(1.03185 -0.000284841 -1.89088e-19)
(1.03424 -0.00125059 3.86003e-19)
(1.02833 -0.0104322 2.36465e-19)
(1.03261 -0.0109253 -2.84297e-19)
(1.03756 0.00328766 0)
(1.0375 0.00527371 -4.66523e-19)
(-0.417014 1.95956 7.79575e-22)
(-0.381143 1.85649 0)
(-0.385781 1.94845 -6.48939e-19)
(-0.327333 1.93131 6.25264e-19)
(-0.291963 1.77311 -4.6367e-19)
(-0.377022 1.80817 0)
(-0.0702234 1.82409 0)
(-0.0545054 1.79434 -7.04756e-21)
(-0.0419984 1.7962 6.40449e-21)
(-0.0382877 1.80737 2.91088e-21)
(-0.0471616 1.83068 -1.40762e-20)
(-0.0535731 1.83052 9.54801e-21)
(0.477113 1.40793 3.64971e-19)
(0.440101 1.41332 -3.92106e-19)
(0.451989 1.32161 4.11501e-19)
(0.408056 1.34878 -2.1457e-20)
(0.629173 1.28572 0)
(0.548263 1.39283 5.25145e-19)
(0.580321 1.35848 -5.1033e-19)
(0.471759 1.29306 -3.92039e-19)
(0.496646 1.24019 0)
(0.548468 1.17326 0)
(0.64705 2.45125 9.11601e-20)
(0.672959 2.45596 6.36844e-19)
(0.707707 2.46818 -4.31573e-19)
(0.649233 2.44523 -1.28568e-19)
(0.586902 2.56843 1.36785e-19)
(0.577481 2.54371 -3.85857e-19)
(0.949348 2.3705 -1.794e-19)
(0.994882 2.39404 0)
(0.884631 2.12991 -2.47663e-19)
(1.03964 2.7066 0)
(1.03885 2.69752 0)
(0.613105 2.30146 2.36723e-19)
(1.04037 3.17939 4.757e-19)
(0.912084 3.05168 -4.26925e-19)
(0.294261 0.980396 0)
(0.34238 0.847293 -1.48996e-19)
(0.477904 0.790357 -6.82768e-20)
(0.404824 2.06229 0)
(0.475013 2.80062 -2.67408e-19)
(0.433438 2.56843 0)
(0.634151 0.68629 -3.25465e-19)
(0.710227 0.66662 4.23133e-19)
(0.731153 0.610741 -4.15059e-19)
(0.617824 0.64795 -4.82587e-20)
(0.677237 0.605639 -1.98243e-19)
(0.999046 2.78996 -3.61625e-19)
(1.03662 2.84259 2.7108e-19)
(0.646599 2.19693 7.27143e-20)
(0.594297 1.73953 -8.27855e-20)
(0.70054 1.92391 7.20159e-20)
(0.983518 2.47522 -7.64525e-20)
(0.988098 2.46415 -1.37644e-19)
(0.660699 1.88178 -3.71743e-21)
(0.446144 1.34883 -5.7991e-20)
)
;

boundaryField
{
    wall-4
    {
        type            noSlip;
    }
    velocity-inlet-5
    {
        type            fixedValue;
        value           uniform (1 0 0);
    }
    velocity-inlet-6
    {
        type            fixedValue;
        value           uniform (0 3 0);
    }
    pressure-outlet-7
    {
        type            zeroGradient;
    }
    wall-8
    {
        type            noSlip;
    }
    frontAndBackPlanes
    {
        type            empty;
    }
}


// ************************************************************************* //
