/*--------------------------------*- C++ -*----------------------------------*\
  =========                 |
  \\      /  F ield         | OpenFOAM: The Open Source CFD Toolbox
   \\    /   O peration     | Website:  https://openfoam.org
    \\  /    A nd           | Version:  13
     \\/     M anipulation  |
\*---------------------------------------------------------------------------*/
FoamFile
{
    format      ascii;
    class       volScalarField;
    location    "0.007";
    object      mag(U);
}
// * * * * * * * * * * * * * * * * * * * * * * * * * * * * * * * * * * * * * //

dimensions      [0 1 -1 0 0 0 0];

internalField   nonuniform List<scalar> 
1000
(
6.79184e-12
6.5424e-12
7.15361e-12
8.45771e-12
8.08282e-12
9.37234e-12
7.91361e-12
9.79537e-12
7.47161e-12
9.76036e-12
7.48037e-12
8.32059e-12
6.92459e-12
9.0908e-12
7.77795e-12
8.76696e-12
8.28413e-12
8.85449e-12
7.73127e-12
8.27391e-12
6.99023e-12
6.95231e-12
6.34839e-12
5.86118e-12
6.38924e-12
7.00774e-12
5.88452e-12
5.4221e-12
4.72191e-12
4.30325e-12
5.45857e-12
4.56874e-12
5.1712e-12
3.76352e-12
6.15146e-12
2.08452e-12
2.6899e-12
2.14725e-12
3.45719e-12
1.7213e-12
2.22019e-12
2.05243e-12
3.33174e-12
2.77159e-12
4.05235e-12
1.96345e-12
1.59002e-12
1.84675e-12
2.19393e-12
1.41643e-12
3.00498e-12
1.12906e-12
2.88537e-12
1.99262e-12
2.93788e-12
3.52867e-12
3.94732e-12
5.07784e-12
4.83277e-12
6.20252e-12
2.61113e-12
4.58916e-12
2.81389e-12
3.71976e-12
8.13971e-13
5.90785e-13
1.07508e-12
8.34393e-13
7.4687e-13
9.97771e-13
2.68114e-12
2.3223e-12
3.35362e-12
3.08375e-12
4.58187e-12
3.98233e-12
5.11868e-12
5.28352e-12
6.00705e-12
6.41549e-12
6.1573e-12
6.09311e-12
5.40168e-12
6.38048e-12
4.00275e-12
6.95085e-12
5.06909e-12
6.06248e-12
3.99692e-12
6.94209e-12
4.80651e-12
7.75169e-12
6.2667e-12
6.96106e-12
5.80866e-12
7.50954e-12
5.01074e-12
6.55115e-12
4.95676e-12
7.68021e-12
7.44098e-12
9.08643e-12
9.28773e-12
8.78739e-12
7.82171e-12
7.85964e-12
6.80789e-12
8.26224e-12
8.36727e-12
9.76765e-12
9.96604e-12
9.75307e-12
9.3738e-12
9.44819e-12
9.27023e-12
1.0039e-11
8.80343e-12
8.62255e-12
9.04996e-12
8.85886e-12
8.88075e-12
7.56789e-12
6.59054e-12
6.33964e-12
6.57304e-12
6.58616e-12
7.13465e-12
7.49933e-12
6.28712e-12
7.13173e-12
6.27254e-12
6.34547e-12
7.09818e-12
6.88374e-12
7.47599e-12
8.39645e-12
7.66854e-12
6.59783e-12
5.11722e-12
4.5279e-12
4.18072e-12
2.17059e-12
1.95032e-12
3.48053e-12
3.93419e-12
5.47753e-12
5.08221e-12
5.97787e-12
5.67592e-12
4.89112e-12
3.58847e-12
2.86203e-12
1.72714e-12
4.94509e-13
1.9722e-12
1.82925e-12
1.34203e-13
1.56084e-13
4.91592e-13
8.31476e-13
2.31063e-12
2.28875e-12
1.9547e-12
2.77596e-12
1.33474e-12
2.18809e-14
3.47178e-13
1.42372e-12
2.29458e-12
3.19316e-12
2.94226e-12
1.85842e-12
1.20783e-12
7.71668e-13
4.06986e-13
4.7117e-13
1.19762e-12
4.15154e-12
7.6029e-12
1.58053e-11
2.86801e-11
5.69648e-11
1.12044e-10
2.20561e-10
4.3296e-10
8.4528e-10
1.63921e-09
3.15979e-09
6.05224e-09
1.15156e-08
2.17697e-08
4.08845e-08
7.62757e-08
1.41346e-07
2.60151e-07
4.7552e-07
8.63129e-07
1.55561e-06
2.78356e-06
4.94455e-06
8.71826e-06
1.52567e-05
2.64949e-05
4.56542e-05
7.80472e-05
0.000132351
0.000222602
0.000371272
0.000613964
0.00100648
0.00163529
0.00263284
0.00419954
0.00663476
0.0103797
0.0160754
0.0246393
0.0373628
0.0560321
0.0830701
0.121692
0.176062
0.251415
0.354114
0.491548
0.67179
0.90284
1.19116
1.53953
1.94666
2.40997
2.92741
3.49691
4.11584
4.78108
5.48925
6.2368
7.02023
7.83613
8.6813
9.55278
10.4479
11.3641
12.2994
13.2518
14.2195
15.201
16.195
17.2004
18.2159
19.2408
20.2742
21.3154
22.3637
23.4186
24.4794
25.5459
26.6174
27.6938
28.7746
29.8596
30.9484
32.0409
33.1367
34.2358
35.3378
36.4427
37.5502
38.6603
39.7728
40.8876
42.0045
43.1235
44.2444
45.3672
46.4918
47.6181
48.7461
49.8756
51.0066
52.139
53.2728
54.4079
55.5443
56.6819
57.8208
58.9607
60.1017
61.2438
62.3869
63.531
64.676
65.822
66.9688
68.1164
69.2649
70.4142
71.5642
72.715
73.8665
75.0187
76.1715
77.325
78.4791
79.6338
80.7891
81.945
83.1014
84.2583
85.4157
86.5736
87.732
88.8908
90.0501
91.2098
92.3699
93.5304
94.6913
95.8525
97.0141
98.1761
99.3383
100.501
101.664
102.827
103.99
105.154
106.318
107.482
108.647
109.811
110.976
112.141
113.307
114.472
115.638
116.804
117.97
119.136
120.302
121.469
122.636
123.802
124.969
126.136
127.303
128.47
129.638
130.805
131.972
133.14
134.307
135.475
136.643
137.811
138.978
140.146
141.313
142.482
143.65
144.818
145.985
147.152
148.321
149.49
150.658
151.823
152.991
154.161
155.331
156.498
157.661
158.828
160.001
161.177
162.343
163.501
164.665
165.849
167.039
168.21
169.358
170.52
171.728
172.96
174.157
175.293
176.455
177.717
179.038
180.306
181.43
182.575
183.903
185.309
186.637
187.704
188.742
190.018
191.353
192.63
193.658
194.575
195.728
196.994
198.257
199.402
200.343
201.393
202.645
203.898
205.115
206.15
207.161
208.405
209.709
210.911
211.891
212.866
214.084
215.364
216.562
217.52
218.448
219.678
221.029
222.314
223.38
224.272
225.365
226.688
227.975
229.105
229.978
230.9
232.164
233.55
234.86
235.956
236.831
237.876
239.28
240.778
242.117
243.193
243.976
244.51
245.305
246.568
247.983
249.363
250.561
251.712
252.927
253.958
254.897
256
257.182
258.381
259.502
260.358
261.261
262.494
263.876
265.14
266.046
266.869
267.894
269.026
269.985
270.772
271.792
273.059
274.213
275.124
276.045
277.04
277.966
278.675
279.256
280.006
280.87
281.682
282.316
282.831
283.465
284.198
284.754
285.208
285.788
286.412
287.004
287.49
287.766
288.001
288.354
288.756
289.14
289.379
289.553
289.814
290.119
290.378
290.506
290.625
290.844
291.103
291.294
291.411
291.568
291.782
291.974
292.084
292.185
292.333
292.49
292.626
292.695
292.747
292.841
292.951
293.057
293.158
293.262
293.36
293.416
293.455
293.521
293.599
293.647
293.669
293.711
293.775
293.836
293.865
293.883
293.917
293.963
293.994
294.002
294.013
294.044
294.077
294.095
294.106
294.121
294.136
294.148
294.162
294.181
294.184
294.171
294.163
294.174
294.189
294.186
294.169
294.16
294.166
294.171
294.16
294.141
294.135
294.142
294.141
294.125
294.101
294.093
294.1
294.099
294.081
294.058
294.052
294.057
294.055
294.044
294.031
294.026
294.028
294.025
294.016
294.005
294.003
294.008
294.005
293.991
293.978
293.978
293.982
293.98
293.97
293.959
293.956
293.96
293.958
293.948
293.939
293.941
293.945
293.938
293.928
293.924
293.926
293.926
293.923
293.918
293.912
293.91
293.909
293.906
293.902
293.899
293.899
293.897
293.892
293.887
293.886
293.888
293.887
293.882
293.877
293.873
293.873
293.872
293.87
293.866
293.863
293.861
293.859
293.856
293.852
293.85
293.848
293.845
293.84
293.837
293.837
293.834
293.828
293.823
293.823
293.822
293.817
293.81
293.807
293.807
293.806
293.8
293.794
293.791
293.792
293.789
293.782
293.776
293.776
293.776
293.771
293.763
293.759
293.761
293.76
293.753
293.746
293.744
293.744
293.744
293.739
293.734
293.73
293.728
293.726
293.723
293.719
293.716
293.714
293.71
293.706
293.704
293.702
293.698
293.694
293.693
293.692
293.69
293.688
293.688
293.69
293.692
293.694
293.698
293.706
293.717
293.73
293.746
293.768
293.794
293.823
293.855
293.888
293.922
293.952
293.971
293.978
293.971
293.945
293.889
293.804
293.698
293.575
293.446
293.347
293.316
293.353
293.419
293.475
293.514
293.545
293.571
293.584
293.58
293.573
293.572
293.575
293.575
293.568
293.562
293.562
293.565
293.562
293.554
293.548
293.546
293.544
293.54
293.536
293.534
293.532
293.527
293.522
293.521
293.519
293.515
293.51
293.508
293.507
293.503
293.499
293.496
293.495
293.492
293.488
293.484
293.483
293.481
293.478
293.474
293.472
293.471
293.468
293.464
293.462
293.461
293.459
293.455
293.453
293.452
293.45
293.447
293.444
293.443
293.442
293.44
293.437
293.435
293.434
293.433
293.43
293.428
293.427
293.426
293.425
293.422
293.421
293.42
293.419
293.417
293.415
293.415
293.414
293.412
293.41
293.409
293.409
293.408
293.406
293.404
293.404
293.404
293.402
293.4
293.399
293.399
293.398
293.397
293.395
293.394
293.393
293.392
293.391
293.389
293.388
293.387
293.386
293.383
293.382
293.38
293.379
293.377
293.374
293.372
293.37
293.368
293.364
293.362
293.359
293.355
293.351
293.347
293.343
293.339
293.332
293.325
293.32
293.317
293.308
293.296
293.288
293.284
293.277
293.265
293.25
293.237
293.227
293.217
293.198
293.172
293.15
293.13
293.11
293.083
293.045
293.007
292.977
292.947
292.904
292.845
292.79
292.744
292.698
292.628
292.534
292.449
292.377
292.304
292.197
292.048
291.905
291.784
291.667
291.504
291.261
291.014
290.802
290.597
290.329
289.909
289.423
288.949
288.425
287.765
286.726
285.194
283.323
280.978
277.66
272.555
264.288
250.734
225.265
163.615
61.7243
10.4209
1.62569
0.239889
0.0352592
0.00517509
0.000758899
0.000111281
1.63175e-05
2.39272e-06
3.50869e-07
5.14509e-08
7.54564e-09
1.1067e-09
1.63146e-10
2.04806e-11
1.90073e-12
2.91163e-12
3.44698e-12
2.04952e-12
2.47401e-12
3.98817e-12
2.63593e-12
2.20414e-12
1.33474e-12
4.28867e-13
1.07071e-12
1.6965e-12
2.77013e-12
3.34779e-12
4.14134e-12
3.6089e-12
4.49435e-12
5.09535e-12
5.47754e-12
3.72998e-12
3.27339e-12
3.57389e-12
9.14625e-13
2.59946e-12
4.44621e-12
5.24706e-12
4.82111e-12
4.75692e-12
6.37757e-12
6.03477e-12
5.9312e-12
5.00928e-12
5.26019e-12
4.8109e-12
8.03032e-12
6.45781e-12
6.73205e-12
6.99462e-12
5.45566e-12
7.15216e-12
7.45266e-12
8.53358e-12
9.59554e-12
8.72467e-12
7.90778e-12
8.50295e-12
9.97189e-12
9.50655e-12
9.83477e-12
7.94425e-12
8.94203e-12
8.97995e-12
8.59193e-12
7.94134e-12
7.46871e-12
7.35638e-12
6.63285e-12
6.88667e-12
6.48552e-12
7.94134e-12
7.1507e-12
7.49642e-12
7.57228e-12
6.99899e-12
8.17036e-12
7.95738e-12
7.07922e-12
7.05589e-12
8.04782e-12
8.37895e-12
7.73274e-12
7.95009e-12
6.6241e-12
6.27546e-12
4.98594e-12
5.30103e-12
6.12521e-12
5.71531e-12
5.44107e-12
6.10042e-12
6.24045e-12
6.23754e-12
8.27976e-12
7.27032e-12
9.24836e-12
7.74587e-12
7.41619e-12
7.21926e-12
6.54679e-12
6.43884e-12
6.51324e-12
5.37543e-12
5.51984e-12
5.98809e-12
)
;

boundaryField
{
    sides
    {
        type            calculated;
        value           nonuniform List<scalar> 2(5.98809e-12 6.79184e-12);
    }
    empty
    {
        type            empty;
    }
}


// ************************************************************************* //
