/*--------------------------------*- C++ -*----------------------------------*\
  =========                 |
  \\      /  F ield         | OpenFOAM: The Open Source CFD Toolbox
   \\    /   O peration     | Website:  https://openfoam.org
    \\  /    A nd           | Version:  13
     \\/     M anipulation  |
\*---------------------------------------------------------------------------*/
FoamFile
{
    format      ascii;
    class       volScalarField;
    location    "0.007";
    object      p;
}
// * * * * * * * * * * * * * * * * * * * * * * * * * * * * * * * * * * * * * //

dimensions      [1 -1 -2 0 0 0 0];

internalField   nonuniform List<scalar> 
1000
(
100000
100000
100000
100000
100000
100000
100000
100000
100000
100000
100000
100000
100000
100000
100000
100000
100000
100000
100000
100000
100000
100000
100000
100000
100000
100000
100000
100000
100000
100000
100000
100000
100000
100000
100000
100000
100000
100000
100000
100000
100000
100000
100000
100000
100000
100000
100000
100000
100000
100000
100000
100000
100000
100000
100000
100000
100000
100000
100000
100000
100000
100000
100000
100000
100000
100000
100000
100000
100000
100000
100000
100000
100000
100000
100000
100000
100000
100000
100000
100000
100000
100000
100000
100000
100000
100000
100000
100000
100000
100000
100000
100000
100000
100000
100000
100000
100000
100000
100000
100000
100000
100000
100000
100000
100000
100000
100000
100000
100000
100000
100000
100000
100000
100000
100000
100000
100000
100000
100000
100000
100000
100000
100000
100000
100000
100000
100000
100000
100000
100000
100000
100000
100000
100000
100000
100000
100000
100000
100000
100000
100000
100000
100000
100000
100000
100000
100000
100000
100000
100000
100000
100000
100000
100000
100000
100000
100000
100000
100000
100000
100000
100000
100000
100000
100000
100000
100000
100000
100000
100000
100000
100000
100000
100000
100000
100000
100000
100000
100000
100000
100000
100000
100000
100000
100000
100000
100000
100000
100000
100000
100000
100000
100000
100000
100000
100000
100000
100000
100000
100000
100000
100000
100000
100000
100000
100000
99999.9
99999.9
99999.8
99999.6
99999.4
99999
99998.4
99997.5
99996.2
99994
99990.9
99986.1
99979.2
99969.2
99954.8
99934.6
99906.6
99868.3
99817.1
99749.9
99663.5
99555.7
99425.1
99272.7
99099.8
98907
98695.3
98465.8
98219.7
97958.4
97683.2
97395.7
97097.1
96788.8
96471.8
96147.2
95815.9
95478.9
95136.8
94790.3
94440
94086.5
93730.1
93371.3
93010.4
92647.8
92283.8
91918.5
91552.2
91185.1
90817.4
90449.2
90080.7
89711.9
89343.1
88974.3
88605.6
88237.1
87868.8
87500.9
87133.4
86766.3
86399.8
86033.8
85668.3
85303.6
84939.5
84576.1
84213.4
83851.5
83490.5
83130.2
82770.8
82412.2
82054.5
81697.8
81341.9
80987
80633.1
80280.1
79928.1
79577.1
79227
78878
78530.1
78183.1
77837.2
77492.4
77148.6
76805.8
76464.2
76123.6
75784.1
75445.6
75108.3
74772.1
74437
74103
73770.1
73438.3
73107.6
72778.1
72449.6
72122.3
71796.2
71471.1
71147.2
70824.5
70502.8
70182.3
69863
69544.8
69227.7
68911.8
68597
68283.3
67970.8
67659.5
67349.2
67040.2
66732.2
66425.4
66119.8
65815.3
65511.9
65209.7
64908.6
64608.7
64309.8
64012.2
63715.6
63420.2
63126
62832.8
62540.8
62249.9
61960.2
61671.5
61384.1
61097.7
60812.4
60528.2
60245.2
59963.4
59682.5
59402.8
59124.2
58846.8
58570.5
58295.2
58020.8
57747.7
57476
57205.3
56935.3
56666.1
56398.5
56132.6
55867.7
55602.7
55338.2
55075.9
54816.4
54557.5
54296.9
54035.8
53778.8
53526.8
53275
53017.4
52756.5
52503.5
52261.3
52018.8
51761.7
51492.1
51238.8
51009.1
50780.1
50521.7
50221.6
49955.7
49740.8
49527.8
49278.4
48914
48616.8
48424.2
48225.2
48016.8
47611.8
47286.5
47128.2
46951.8
46792
46476.7
46097.6
45948.5
45792.3
45629.7
45455.8
45042.1
44842.1
44707.7
44526.8
44379.8
44069.6
43777.1
43652.5
43497.2
43307
42976.1
42700.6
42582.5
42443.4
42291.1
41971.1
41655.9
41544.4
41431.7
41258.7
41037.2
40644.5
40502.2
40415.3
40277.6
40101.1
39739.5
39487.5
39393.5
39312.2
39160.5
38960.9
38558.8
38362.9
38265.6
38157.3
37991.5
37786.5
37604
37120.1
36909
36813.1
36720
36612.2
36375.8
36198.8
36110.7
35862.8
35602.8
35492.2
35379.8
35281.6
35198.6
34837.6
34619.2
34539.8
34489.5
34416
34066.7
33864.7
33780.9
33735.6
33569.6
33205.5
33110.9
33074.2
32985.6
32688.2
32565.9
32476.8
32382.7
32201.6
31936
31860.4
31804.8
31769.6
31699.6
31552
31528.6
31541.8
31405.7
31239.4
31215.2
31205.5
31209.5
31213.6
31068.2
30988.4
30974.3
30971.4
30984.3
30889.7
30795.4
30784.5
30788.3
30794.8
30695.6
30644
30639.2
30651.9
30627.6
30548.4
30537.3
30544.1
30548.1
30486.7
30460.6
30458
30462.8
30471.7
30429.2
30397.7
30393.6
30391.2
30388.1
30385.5
30387.7
30395.4
30373.9
30352.4
30352.6
30361.3
30348.7
30322.7
30319.9
30325.3
30332.3
30316.7
30304.7
30305
30314.2
30313.6
30298.4
30294.5
30301
30306.9
30303.6
30299.7
30299.9
30300.5
30299.1
30301.5
30310
30308.3
30297.8
30295.1
30304.5
30313.6
30311.6
30303.1
30302.4
30312.3
30316.8
30313.6
30307.1
30309.6
30321.2
30323.7
30319.9
30312.4
30316
30329.2
30331.6
30327.3
30320.3
30324.9
30334.2
30335.4
30334
30330.6
30333.5
30339.4
30340.3
30338.8
30336
30339.9
30346.9
30347.4
30342.3
30339.6
30345.1
30350.3
30351
30348.5
30345.2
30347.8
30353.8
30354.2
30349.7
30347.7
30353.2
30357.1
30354.6
30350.7
30351.5
30355.7
30356.6
30356.8
30355.3
30354.4
30355.1
30356.5
30356.5
30355.5
30355.6
30357.4
30357.7
30355.9
30354.9
30356.4
30358.5
30358.9
30357.2
30355.5
30355.3
30356.2
30357
30356.7
30355.7
30355.5
30355.8
30356.2
30355.6
30354.9
30355.2
30356
30355.3
30353.6
30353.7
30355.4
30355.3
30352.7
30352
30353.7
30355
30352.9
30350.7
30350.7
30352.9
30353.7
30351
30349.3
30349.8
30352.1
30351.8
30348.2
30347.3
30349.4
30351.4
30348.8
30345.7
30345.9
30349.1
30349.6
30345.9
30344.3
30344.6
30346.8
30347.3
30345.3
30344.2
30344.1
30344.2
30344.4
30343.5
30342.9
30343
30342.9
30341.7
30341.3
30341.4
30341.4
30340
30339.5
30339.6
30339.9
30338.8
30337.9
30337.8
30338.1
30337.7
30336.4
30336.1
30336.4
30336.6
30335.7
30335
30335.1
30335.6
30335.3
30334.2
30334
30334.3
30334.3
30332.2
30330.7
30330.4
30330.7
30327.9
30324.2
30323.9
30325.4
30324.6
30325
30325.4
30331
30332.4
30331.1
30327.2
30326.8
30328.7
30329.2
30325.3
30323.7
30324.2
30326.5
30326.6
30323.3
30321.9
30322.9
30324.9
30324.1
30321.7
30321.4
30321.9
30322.1
30321
30320.4
30320.6
30320.7
30319.4
30318.8
30319.1
30319.4
30318.3
30317.4
30317.5
30317.8
30317.2
30316.1
30316
30316.3
30316.1
30314.8
30314.6
30314.9
30315
30313.8
30313.3
30313.4
30313.7
30313.1
30312.1
30312.1
30312.4
30312.3
30311.2
30310.9
30311.1
30311.3
30310.5
30310
30310
30310.2
30309.9
30309.1
30309
30309.1
30309.2
30308.5
30308.2
30308.3
30308.4
30308.1
30307.5
30307.5
30307.7
30307.6
30306.9
30306.8
30307.1
30307.2
30306.6
30306.1
30306.3
30306.7
30306.5
30305.7
30305.6
30305.9
30306.1
30305.6
30305.3
30305.2
30305.3
30305.4
30305.1
30304.8
30304.8
30304.8
30304.8
30304.4
30304.3
30304.3
30304.4
30304.2
30303.8
30303.8
30303.8
30303.8
30303.5
30303.2
30303.1
30303.2
30303
30302.4
30302.3
30302.6
30302.3
30301.3
30301.3
30301.8
30301.6
30299.9
30299.6
30300.2
30300.6
30299.1
30297.4
30297
30297.6
30298.4
30296
30293.3
30293.5
30293.6
30293.6
30291.4
30288
30286.3
30285.9
30286.8
30285
30277.9
30276.2
30275.8
30276.6
30273
30262.7
30260.7
30260
30260.9
30254.1
30239.1
30234.8
30233.5
30235.3
30226.7
30200.2
30193
30190.3
30191.8
30183.8
30140
30122.4
30116.6
30117
30110.8
30039.7
29991.7
29970.3
29951.7
29936
29837.5
29630.9
29497.9
29361.1
29137.9
28746.5
28022.9
26869.4
24927.6
20299.6
12252.7
10406.7
10061.3
10009.1
10001.3
10000.2
10000
10000
10000
10000
10000
10000
10000
10000
10000
10000
10000
10000
10000
10000
10000
10000
10000
10000
10000
10000
10000
10000
10000
10000
10000
10000
10000
10000
10000
10000
10000
10000
10000
10000
10000
10000
10000
10000
10000
10000
10000
10000
10000
10000
10000
10000
10000
10000
10000
10000
10000
10000
10000
10000
10000
10000
10000
10000
10000
10000
10000
10000
10000
10000
10000
10000
10000
10000
10000
10000
10000
10000
10000
10000
10000
10000
10000
10000
10000
10000
10000
10000
10000
10000
10000
10000
10000
10000
10000
10000
10000
10000
10000
10000
10000
10000
10000
10000
10000
10000
10000
10000
10000
10000
)
;

boundaryField
{
    sides
    {
        type            zeroGradient;
    }
    empty
    {
        type            empty;
    }
}


// ************************************************************************* //
