/*--------------------------------*- C++ -*----------------------------------*\
  =========                 |
  \\      /  F ield         | OpenFOAM: The Open Source CFD Toolbox
   \\    /   O peration     | Website:  https://openfoam.org
    \\  /    A nd           | Version:  13
     \\/     M anipulation  |
\*---------------------------------------------------------------------------*/
FoamFile
{
    format      ascii;
    class       surfaceScalarField;
    location    "0.007";
    object      phi;
}
// * * * * * * * * * * * * * * * * * * * * * * * * * * * * * * * * * * * * * //

dimensions      [1 0 -1 0 0 0 0];

internalField   nonuniform List<scalar> 
999
(
-2.76046e-11
-2.64677e-11
-3.16973e-11
-3.34808e-11
-3.5385e-11
-3.31823e-11
-3.56337e-11
-3.444e-11
-3.34879e-11
-3.60956e-11
-3.03615e-11
-3.08518e-11
-3.1271e-11
-3.37295e-11
-3.25358e-11
-3.42339e-11
-3.50937e-11
-3.32321e-11
-3.19886e-11
-2.95159e-11
-2.89333e-11
-2.56932e-11
-2.42579e-11
-2.49045e-11
-2.67235e-11
-2.56009e-11
-2.224e-11
-2.04352e-11
-1.80052e-11
-1.95328e-11
-2.00018e-11
-1.97531e-11
-1.66267e-11
-2.08757e-11
-1.72449e-11
-9.031e-12
-9.13047e-12
-1.09495e-11
-1.08784e-11
-7.49623e-12
-9.031e-12
-1.01821e-11
-1.24984e-11
-1.36353e-11
-1.2669e-11
-6.48015e-12
-7.27596e-12
-8.29203e-12
-6.89226e-12
-9.35074e-12
-7.82308e-12
-8.19256e-12
-9.8126e-12
-9.63496e-12
-1.34932e-11
-1.46869e-11
-1.76357e-11
-1.9611e-11
-2.26237e-11
-1.74794e-11
-1.37561e-11
-1.55467e-11
-1.32161e-11
-8.10019e-12
-3.24007e-12
7.67386e-13
4.72511e-12
2.54374e-12
3.97193e-12
6.90648e-12
1.0111e-11
1.22142e-11
1.19371e-11
1.57385e-11
1.74865e-11
1.84244e-11
2.01084e-11
2.31566e-11
2.51461e-11
2.42366e-11
2.40234e-11
2.41087e-11
2.24318e-11
2.14371e-11
2.20979e-11
2.33129e-11
2.29292e-11
1.94191e-11
2.14371e-11
2.44e-11
2.44214e-11
2.80025e-11
2.67661e-11
2.46203e-11
2.76188e-11
2.43503e-11
2.36753e-11
2.23963e-11
2.47624e-11
3.10081e-11
3.35163e-11
3.70122e-11
3.61382e-11
3.28058e-11
3.21094e-11
2.78106e-11
3.04681e-11
3.36584e-11
3.63158e-11
4.0167e-11
3.9087e-11
3.79075e-11
3.75096e-11
3.68203e-11
3.93356e-11
3.73319e-11
3.37295e-11
3.61595e-11
3.54063e-11
3.62377e-11
3.22871e-11
2.87912e-11
2.53095e-11
2.57145e-11
2.68372e-11
2.70006e-11
2.88196e-11
2.84643e-11
2.58211e-11
2.76685e-11
2.43219e-11
2.68656e-11
2.83649e-11
2.84501e-11
3.11928e-11
3.30473e-11
2.78817e-11
2.27089e-11
1.97034e-11
1.64704e-11
1.35287e-11
7.70228e-12
1.16458e-11
1.42393e-11
1.81757e-11
2.15223e-11
2.19202e-11
2.39382e-11
2.01723e-11
1.73657e-11
1.35429e-11
9.05231e-12
3.81561e-12
5.71276e-12
6.71463e-12
4.11404e-12
-2.13163e-14
-7.38964e-13
-2.44427e-12
-6.40199e-12
-9.25837e-12
-8.76099e-12
-8.93152e-12
-8.71125e-12
-2.85638e-12
-5.61329e-13
1.93268e-12
7.76623e-12
1.10774e-11
1.18945e-11
9.88365e-12
6.39488e-12
3.59535e-12
2.70717e-12
-3.90799e-13
1.80478e-12
9.96891e-12
2.32347e-11
4.43379e-11
8.52012e-11
1.64519e-10
3.23084e-10
6.35701e-10
1.25137e-09
2.44927e-09
4.76293e-09
9.2055e-09
1.76821e-08
3.37433e-08
6.39718e-08
1.20496e-07
2.25467e-07
4.19073e-07
7.7367e-07
1.41855e-06
2.58297e-06
4.67021e-06
8.38397e-06
1.49422e-05
2.64353e-05
4.64202e-05
8.08966e-05
0.000139894
0.000240026
0.00040855
0.000689757
0.0011549
0.00191744
0.00315609
0.00514933
0.00832607
0.0133391
0.0211696
0.0332734
0.0517801
0.0797607
0.121574
0.183301
0.273276
0.402682
0.58619
0.842541
1.19494
1.67104
2.30214
3.12125
4.15908
5.4367
6.95364
8.69434
10.6478
12.8051
15.1551
17.6842
20.3776
23.2196
26.1946
29.2874
32.4836
35.7699
39.1342
42.5655
46.054
49.591
53.1688
56.7806
60.4204
64.0828
67.7633
71.4577
75.1624
78.8742
82.5902
86.308
90.0252
93.74
97.4506
101.155
104.853
108.542
112.221
115.89
119.547
123.191
126.823
130.441
134.044
137.632
141.205
144.762
148.302
151.826
155.332
158.821
162.293
165.746
169.181
172.598
175.996
179.376
182.736
186.078
189.4
192.703
195.986
199.25
202.494
205.718
208.922
212.107
215.272
218.416
221.541
224.645
227.729
230.794
233.838
236.861
239.865
242.848
245.811
248.754
251.676
254.579
257.461
260.322
263.164
265.985
268.786
271.567
274.328
277.068
279.789
282.489
285.17
287.83
290.47
293.09
295.691
298.271
300.832
303.373
305.894
308.395
310.877
313.339
315.781
318.204
320.608
322.992
325.356
327.702
330.027
332.334
334.622
336.89
339.14
341.37
343.582
345.775
347.948
350.103
352.239
354.357
356.457
358.537
360.598
362.642
364.669
366.677
368.664
370.633
372.588
374.526
376.443
378.337
380.215
382.083
383.937
385.764
387.562
389.348
391.139
392.917
394.652
396.343
398.036
399.764
401.487
403.127
404.681
406.269
407.972
409.689
411.233
412.58
414.024
415.783
417.618
419.108
420.082
421.263
423.253
425.48
427.144
427.452
427.968
430.533
433.563
435.994
435.67
434.266
437.761
441.712
445.072
445.784
440.701
444.472
448.561
451.774
455.105
447.471
449.779
453.761
456.176
460.494
457.028
454.277
458.098
460.695
463.242
465.384
459.259
462.421
466.36
467.912
468.455
463.441
466.834
470.959
473.543
475.402
467.685
470.678
475.188
477.473
479.751
474.038
473.446
477.623
481.607
482.819
482.175
475.486
478.83
483.3
486.662
487.496
483.51
479.352
483.09
487.413
490.339
490.617
493.722
488.016
480.726
483.845
487.599
491.303
492.039
489.519
493.564
495.785
488.215
490.422
493.811
496.774
502.07
500.4
491.405
494.617
499.252
505.421
502.229
494.788
498.18
503.126
508.843
497.547
496.658
500.835
506.222
500.05
496.832
499.599
501.615
503.68
495.211
495.461
497.879
500.574
503.945
500.453
501.509
505.2
507.423
497.995
498.802
500.668
502.896
506.559
505.511
500.048
501.203
502.825
505.404
506.254
500.321
501.034
502.341
504.868
504.072
500.128
500.86
502.193
503.927
500.506
499.913
500.645
502.321
501.528
499.347
499.765
500.329
501.681
501.514
499.148
499.329
499.619
499.914
500.176
500.531
501.409
501.599
500.139
500.294
500.938
501.39
499.917
499.774
499.964
500.708
500.608
499.618
499.614
500.026
500.447
499.927
499.501
499.617
500.184
500.221
499.908
499.889
499.917
499.865
499.781
500.223
500.366
499.852
499.501
499.582
500.302
500.325
499.863
499.598
499.817
500.234
500.181
499.691
499.512
500.02
500.24
500.17
499.626
499.448
500.087
500.313
500.251
499.702
499.592
500.155
500.233
500.198
499.936
499.856
500.178
500.213
500.162
499.918
499.867
500.286
500.341
500.181
499.846
499.873
500.278
500.296
500.243
499.965
499.916
500.251
500.323
500.178
499.913
499.986
500.326
500.305
500.004
499.934
500.11
500.193
500.194
500.147
500.043
500.025
500.102
500.11
500.063
500.02
500.084
500.141
500.09
499.985
499.993
500.138
500.165
500.145
499.999
499.974
499.977
500.032
500.027
499.962
499.924
499.912
499.929
499.915
499.852
499.837
499.878
499.884
499.774
499.743
499.8
499.851
499.743
499.652
499.666
499.782
499.753
499.567
499.532
499.586
499.677
499.614
499.448
499.418
499.512
499.56
499.398
499.275
499.281
499.432
499.397
499.137
499.079
499.181
499.27
499.15
498.961
498.918
498.987
499.034
498.971
498.84
498.805
498.775
498.762
498.707
498.612
498.565
498.526
498.427
498.325
498.262
498.217
498.104
497.99
497.924
497.879
497.795
497.63
497.518
497.402
497.249
496.953
496.633
496.238
495.724
494.969
493.907
492.529
490.678
488.154
484.712
480.228
474.468
467.188
458.13
447.188
434.536
420.249
404.604
387.936
371.263
355.229
340.782
328.93
320.595
315.589
312.962
311.572
310.785
310.477
310.413
310.474
310.401
310.312
310.334
310.458
310.581
310.623
310.637
310.708
310.838
310.888
310.823
310.811
310.826
310.857
310.853
310.828
310.839
310.864
310.853
310.823
310.832
310.859
310.859
310.818
310.822
310.841
310.851
310.811
310.808
310.821
310.838
310.807
310.793
310.8
310.82
310.81
310.777
310.78
310.799
310.804
310.765
310.762
310.775
310.789
310.762
310.748
310.754
310.769
310.761
310.735
310.738
310.745
310.752
310.729
310.725
310.728
310.738
310.732
310.716
310.717
310.727
310.731
310.71
310.71
310.72
310.73
310.712
310.703
310.711
310.727
310.72
310.697
310.701
310.718
310.724
310.703
310.696
310.7
310.714
310.715
310.696
310.696
310.7
310.707
310.704
310.693
310.695
310.697
310.702
310.697
310.69
310.691
310.694
310.698
310.687
310.685
310.687
310.692
310.691
310.677
310.679
310.684
310.686
310.672
310.673
310.677
310.681
310.662
310.659
310.664
310.682
310.66
310.629
310.63
310.673
310.685
310.595
310.584
310.619
310.666
310.642
310.544
310.55
310.561
310.597
310.623
310.473
310.445
310.47
310.497
310.533
310.381
310.307
310.327
310.381
310.437
310.158
310.081
310.108
310.206
310.285
309.79
309.687
309.753
309.886
310.035
309.31
309.058
309.128
309.314
309.618
308.684
307.977
308.072
308.338
308.849
307.817
305.938
305.92
306.164
306.756
306.822
301.801
299.176
298.775
297.619
294.483
286.43
270.63
251.633
213.215
78.6292
16.1711
2.55449
0.381976
0.0560761
0.00822988
0.00120749
0.000177064
2.5963e-05
3.80704e-06
5.58253e-07
8.18626e-08
1.20044e-08
1.76053e-09
2.58441e-10
3.7331e-11
4.44711e-12
-4.36096e-13
-1.5592e-12
-1.25944e-12
-1.26521e-12
-1.51745e-12
-1.53522e-12
-1.32916e-12
-8.17568e-13
-2.64677e-13
-1.13243e-13
1.05693e-13
1.22258e-12
1.46638e-12
1.90026e-12
2.02949e-12
1.89937e-12
2.40652e-12
2.67431e-12
2.25331e-12
1.75016e-12
1.80389e-12
1.05871e-12
8.18456e-13
1.86207e-12
2.35278e-12
2.53442e-12
2.36344e-12
2.71694e-12
3.18456e-12
2.98561e-12
2.70317e-12
2.60281e-12
2.40785e-12
3.33378e-12
3.58247e-12
3.36975e-12
3.37286e-12
3.06866e-12
3.0842e-12
3.73612e-12
4.02656e-12
4.3805e-12
4.74643e-12
4.02123e-12
4.15401e-12
4.58167e-12
4.91518e-12
4.88098e-12
4.40181e-12
4.11626e-12
4.55191e-12
4.38982e-12
4.08829e-12
3.85958e-12
3.61e-12
3.62732e-12
3.26761e-12
3.41238e-12
3.52163e-12
3.71791e-12
3.61178e-12
3.87201e-12
3.60068e-12
3.73968e-12
4.09228e-12
3.81606e-12
3.39595e-12
3.86668e-12
4.13536e-12
4.08296e-12
3.83116e-12
3.66995e-12
3.22187e-12
2.90346e-12
2.48379e-12
2.92344e-12
2.93632e-12
2.71916e-12
3.01403e-12
2.97362e-12
3.02602e-12
3.56959e-12
4.0008e-12
4.01279e-12
4.34008e-12
3.70015e-12
3.71569e-12
3.34799e-12
3.23608e-12
3.26983e-12
3.01048e-12
2.6299e-12
2.97273e-12
)
;

boundaryField
{
    sides
    {
        type            calculated;
        value           nonuniform List<scalar> 2(2.98387e-12 2.70433e-11);
    }
    empty
    {
        type            empty;
    }
}


// ************************************************************************* //
