/*--------------------------------*- C++ -*----------------------------------*\
  =========                 |
  \\      /  F ield         | OpenFOAM: The Open Source CFD Toolbox
   \\    /   O peration     | Website:  https://openfoam.org
    \\  /    A nd           | Version:  13
     \\/     M anipulation  |
\*---------------------------------------------------------------------------*/
FoamFile
{
    format      ascii;
    class       volScalarField;
    location    "0.007";
    object      rho;
}
// * * * * * * * * * * * * * * * * * * * * * * * * * * * * * * * * * * * * * //

dimensions      [1 -3 0 0 0 0 0];

internalField   nonuniform List<scalar> 
1000
(
0.997575
0.997575
0.997575
0.997575
0.997575
0.997575
0.997575
0.997575
0.997575
0.997575
0.997575
0.997575
0.997575
0.997575
0.997575
0.997575
0.997575
0.997575
0.997575
0.997575
0.997575
0.997575
0.997575
0.997575
0.997575
0.997575
0.997575
0.997575
0.997575
0.997575
0.997575
0.997575
0.997575
0.997575
0.997575
0.997575
0.997575
0.997575
0.997575
0.997575
0.997575
0.997575
0.997575
0.997575
0.997575
0.997575
0.997575
0.997575
0.997575
0.997575
0.997575
0.997575
0.997575
0.997575
0.997575
0.997575
0.997575
0.997575
0.997575
0.997575
0.997575
0.997575
0.997575
0.997575
0.997575
0.997575
0.997575
0.997575
0.997575
0.997575
0.997575
0.997575
0.997575
0.997575
0.997575
0.997575
0.997575
0.997575
0.997575
0.997575
0.997575
0.997575
0.997575
0.997575
0.997575
0.997575
0.997575
0.997575
0.997575
0.997575
0.997575
0.997575
0.997575
0.997575
0.997575
0.997575
0.997575
0.997575
0.997575
0.997575
0.997575
0.997575
0.997575
0.997575
0.997575
0.997575
0.997575
0.997575
0.997575
0.997575
0.997575
0.997575
0.997575
0.997575
0.997575
0.997575
0.997575
0.997575
0.997575
0.997575
0.997575
0.997575
0.997575
0.997575
0.997575
0.997575
0.997575
0.997575
0.997575
0.997575
0.997575
0.997575
0.997575
0.997575
0.997575
0.997575
0.997575
0.997575
0.997575
0.997575
0.997575
0.997575
0.997575
0.997575
0.997575
0.997575
0.997575
0.997575
0.997575
0.997575
0.997575
0.997575
0.997575
0.997575
0.997575
0.997575
0.997575
0.997575
0.997575
0.997575
0.997575
0.997575
0.997575
0.997575
0.997575
0.997575
0.997575
0.997575
0.997575
0.997575
0.997575
0.997575
0.997575
0.997575
0.997575
0.997575
0.997575
0.997575
0.997575
0.997575
0.997575
0.997575
0.997575
0.997575
0.997575
0.997575
0.997575
0.997575
0.997575
0.997575
0.997575
0.997575
0.997575
0.997575
0.997575
0.997575
0.997575
0.997575
0.997575
0.997575
0.997575
0.997575
0.997574
0.997574
0.997574
0.997574
0.997574
0.997574
0.997573
0.997572
0.99757
0.997568
0.997563
0.997557
0.997547
0.997532
0.99751
0.997476
0.997427
0.997355
0.997253
0.997109
0.996909
0.996637
0.996272
0.995793
0.995178
0.994409
0.993478
0.992391
0.991157
0.98978
0.988268
0.986626
0.984866
0.982994
0.981023
0.978961
0.976818
0.974602
0.972323
0.969986
0.9676
0.965169
0.962699
0.960195
0.957661
0.9551
0.952517
0.949913
0.94729
0.944653
0.942002
0.939338
0.936665
0.933982
0.931292
0.928595
0.925893
0.923186
0.920475
0.917761
0.915045
0.912327
0.909607
0.906887
0.904166
0.901446
0.898725
0.896006
0.893288
0.890571
0.887856
0.885143
0.882432
0.879724
0.877018
0.874315
0.871615
0.868918
0.866225
0.863534
0.860848
0.858165
0.855486
0.852812
0.850141
0.847474
0.844812
0.842154
0.8395
0.836851
0.834206
0.831567
0.828932
0.826301
0.823676
0.821056
0.81844
0.81583
0.813225
0.810624
0.80803
0.80544
0.802856
0.800277
0.797703
0.795135
0.792572
0.790015
0.787463
0.784917
0.782376
0.779841
0.777312
0.774788
0.77227
0.769758
0.767251
0.76475
0.762255
0.759766
0.757283
0.754805
0.752333
0.749867
0.747407
0.744953
0.742505
0.740063
0.737627
0.735196
0.732772
0.730354
0.727941
0.725535
0.723134
0.72074
0.718351
0.715969
0.713593
0.711222
0.708858
0.7065
0.704147
0.701801
0.699461
0.697127
0.694799
0.692477
0.690161
0.687851
0.685546
0.683249
0.680959
0.678672
0.676391
0.674117
0.671852
0.669592
0.667335
0.665082
0.662838
0.660607
0.65838
0.65615
0.653921
0.651708
0.649515
0.647324
0.645115
0.6429
0.640717
0.638573
0.636426
0.634228
0.632
0.629837
0.627761
0.625679
0.623469
0.621153
0.618976
0.616993
0.615009
0.612768
0.610177
0.607883
0.606012
0.60415
0.601963
0.598792
0.596227
0.594529
0.59277
0.590923
0.587349
0.584542
0.583125
0.581547
0.580128
0.577284
0.574003
0.572667
0.571252
0.569808
0.568206
0.564544
0.562783
0.561549
0.559917
0.558586
0.555759
0.553189
0.552046
0.550615
0.548894
0.545885
0.543445
0.542355
0.541068
0.539678
0.536724
0.533923
0.532884
0.531812
0.530225
0.528146
0.524586
0.523278
0.522448
0.521159
0.519535
0.516179
0.513893
0.512986
0.512194
0.510775
0.50892
0.505219
0.50343
0.502478
0.501398
0.499784
0.49788
0.496139
0.491648
0.489729
0.488795
0.487884
0.48682
0.484543
0.482868
0.481982
0.479581
0.477213
0.476178
0.475103
0.474156
0.473278
0.46976
0.467684
0.466858
0.466336
0.465578
0.46229
0.460488
0.459704
0.459232
0.457474
0.453966
0.45299
0.452568
0.451615
0.448787
0.44766
0.446804
0.445904
0.44408
0.441531
0.440752
0.440143
0.439726
0.438942
0.437516
0.437315
0.437453
0.436057
0.434461
0.434175
0.434044
0.43409
0.434133
0.432719
0.431983
0.431821
0.431759
0.431832
0.430815
0.429888
0.429763
0.429819
0.429905
0.428954
0.428485
0.428428
0.428531
0.428237
0.427453
0.42734
0.427408
0.427436
0.426822
0.426573
0.426537
0.426583
0.426667
0.42624
0.425953
0.425917
0.425895
0.425863
0.425834
0.425853
0.425918
0.425691
0.425488
0.425493
0.425581
0.425448
0.425199
0.425168
0.425214
0.425264
0.425091
0.424965
0.424962
0.425053
0.425051
0.424919
0.424901
0.424982
0.425051
0.425021
0.424983
0.424981
0.424978
0.424954
0.424973
0.425047
0.425023
0.424917
0.424891
0.424988
0.425074
0.425052
0.42497
0.424964
0.425062
0.425102
0.425065
0.424999
0.425025
0.425136
0.425158
0.425119
0.425049
0.425092
0.425227
0.425256
0.425219
0.425161
0.425217
0.425313
0.425329
0.425318
0.425287
0.425315
0.425368
0.425372
0.425351
0.425318
0.425353
0.425413
0.425413
0.425357
0.425329
0.425383
0.42543
0.425434
0.425406
0.425372
0.425397
0.42545
0.42545
0.4254
0.425377
0.425427
0.425457
0.425425
0.425382
0.425385
0.42542
0.425422
0.425418
0.425398
0.425383
0.425386
0.425395
0.425392
0.42538
0.42538
0.425396
0.425397
0.425378
0.425368
0.425382
0.425399
0.4254
0.425379
0.425357
0.425348
0.425349
0.425346
0.425332
0.425309
0.425295
0.425285
0.425277
0.425262
0.425246
0.42524
0.425241
0.425225
0.425202
0.425195
0.425202
0.425192
0.425158
0.425142
0.425147
0.425148
0.425116
0.425083
0.42507
0.425078
0.425072
0.425032
0.425001
0.424989
0.424994
0.424973
0.42492
0.424893
0.424892
0.424889
0.424842
0.42479
0.424769
0.424777
0.424757
0.424698
0.424658
0.424636
0.424633
0.424611
0.424566
0.424527
0.424495
0.424464
0.424429
0.42438
0.424331
0.424283
0.424229
0.42416
0.424097
0.424037
0.423975
0.4239
0.423835
0.423773
0.423709
0.423625
0.423528
0.423421
0.42329
0.423112
0.422874
0.422571
0.422169
0.421624
0.420868
0.419843
0.418454
0.416575
0.414042
0.410679
0.406305
0.400719
0.39374
0.38523
0.375177
0.363653
0.350858
0.33712
0.32295
0.308988
0.295965
0.284746
0.276209
0.270614
0.267434
0.265741
0.264889
0.264482
0.264328
0.264289
0.264283
0.26426
0.264266
0.264302
0.264372
0.26445
0.264517
0.264582
0.264635
0.264676
0.264688
0.264684
0.26469
0.264699
0.264705
0.264704
0.264707
0.264714
0.26472
0.264717
0.264718
0.264724
0.26473
0.264726
0.264724
0.264727
0.264732
0.26473
0.264726
0.264727
0.264731
0.264732
0.264726
0.264727
0.26473
0.264733
0.264727
0.264725
0.264727
0.264731
0.264728
0.264723
0.264724
0.264727
0.264727
0.264722
0.264721
0.264723
0.264725
0.264721
0.264719
0.26472
0.264723
0.264722
0.264719
0.264719
0.264721
0.264723
0.26472
0.26472
0.264722
0.264724
0.264723
0.264722
0.264724
0.264726
0.264727
0.264725
0.264726
0.264729
0.264731
0.264729
0.264728
0.26473
0.264734
0.264734
0.26473
0.264731
0.264734
0.264736
0.264734
0.264733
0.264734
0.264735
0.264737
0.264736
0.264735
0.264736
0.264737
0.264738
0.264736
0.264736
0.264737
0.264738
0.264738
0.264736
0.264736
0.264737
0.264738
0.264737
0.264735
0.264736
0.264737
0.264736
0.264734
0.264734
0.264736
0.264735
0.264729
0.26473
0.264734
0.264733
0.264723
0.264722
0.264727
0.26473
0.264721
0.264711
0.26471
0.264714
0.264719
0.264704
0.264689
0.26469
0.264691
0.264692
0.264678
0.264658
0.264649
0.264646
0.264652
0.26464
0.264597
0.264588
0.264585
0.26459
0.264567
0.264505
0.264493
0.264489
0.264495
0.26445
0.26436
0.264335
0.264327
0.264339
0.264281
0.264122
0.264079
0.264064
0.264074
0.264018
0.263751
0.263648
0.263613
0.263617
0.263572
0.26313
0.26285
0.262722
0.262614
0.262522
0.261897
0.260662
0.259879
0.259057
0.257712
0.255329
0.250883
0.243761
0.231199
0.199379
0.14296
0.128261
0.125241
0.124777
0.124708
0.124698
0.124697
0.124697
0.124697
0.124697
0.124697
0.124697
0.124697
0.124697
0.124697
0.124697
0.124697
0.124697
0.124697
0.124697
0.124697
0.124697
0.124697
0.124697
0.124697
0.124697
0.124697
0.124697
0.124697
0.124697
0.124697
0.124697
0.124697
0.124697
0.124697
0.124697
0.124697
0.124697
0.124697
0.124697
0.124697
0.124697
0.124697
0.124697
0.124697
0.124697
0.124697
0.124697
0.124697
0.124697
0.124697
0.124697
0.124697
0.124697
0.124697
0.124697
0.124697
0.124697
0.124697
0.124697
0.124697
0.124697
0.124697
0.124697
0.124697
0.124697
0.124697
0.124697
0.124697
0.124697
0.124697
0.124697
0.124697
0.124697
0.124697
0.124697
0.124697
0.124697
0.124697
0.124697
0.124697
0.124697
0.124697
0.124697
0.124697
0.124697
0.124697
0.124697
0.124697
0.124697
0.124697
0.124697
0.124697
0.124697
0.124697
0.124697
0.124697
0.124697
0.124697
0.124697
0.124697
0.124697
0.124697
0.124697
0.124697
0.124697
0.124697
0.124697
0.124697
0.124697
)
;

boundaryField
{
    sides
    {
        type            calculated;
        value           nonuniform List<scalar> 2(0.124697 0.997575);
    }
    empty
    {
        type            empty;
    }
}


// ************************************************************************* //
