/*--------------------------------*- C++ -*----------------------------------*\
  =========                 |
  \\      /  F ield         | OpenFOAM: The Open Source CFD Toolbox
   \\    /   O peration     | Website:  https://openfoam.org
    \\  /    A nd           | Version:  13
     \\/     M anipulation  |
\*---------------------------------------------------------------------------*/
FoamFile
{
    format      ascii;
    class       volScalarField;
    location    "0.007";
    object      T;
}
// * * * * * * * * * * * * * * * * * * * * * * * * * * * * * * * * * * * * * //

dimensions      [0 0 0 1 0 0 0];

internalField   nonuniform List<scalar> 
1000
(
348.432
348.432
348.432
348.432
348.432
348.432
348.432
348.432
348.432
348.432
348.432
348.432
348.432
348.432
348.432
348.432
348.432
348.432
348.432
348.432
348.432
348.432
348.432
348.432
348.432
348.432
348.432
348.432
348.432
348.432
348.432
348.432
348.432
348.432
348.432
348.432
348.432
348.432
348.432
348.432
348.432
348.432
348.432
348.432
348.432
348.432
348.432
348.432
348.432
348.432
348.432
348.432
348.432
348.432
348.432
348.432
348.432
348.432
348.432
348.432
348.432
348.432
348.432
348.432
348.432
348.432
348.432
348.432
348.432
348.432
348.432
348.432
348.432
348.432
348.432
348.432
348.432
348.432
348.432
348.432
348.432
348.432
348.432
348.432
348.432
348.432
348.432
348.432
348.432
348.432
348.432
348.432
348.432
348.432
348.432
348.432
348.432
348.432
348.432
348.432
348.432
348.432
348.432
348.432
348.432
348.432
348.432
348.432
348.432
348.432
348.432
348.432
348.432
348.432
348.432
348.432
348.432
348.432
348.432
348.432
348.432
348.432
348.432
348.432
348.432
348.432
348.432
348.432
348.432
348.432
348.432
348.432
348.432
348.432
348.432
348.432
348.432
348.432
348.432
348.432
348.432
348.432
348.432
348.432
348.432
348.432
348.432
348.432
348.432
348.432
348.432
348.432
348.432
348.432
348.432
348.432
348.432
348.432
348.432
348.432
348.432
348.432
348.432
348.432
348.432
348.432
348.432
348.432
348.432
348.432
348.432
348.432
348.432
348.432
348.432
348.432
348.432
348.432
348.432
348.432
348.432
348.432
348.432
348.432
348.432
348.432
348.432
348.432
348.432
348.432
348.432
348.432
348.432
348.432
348.432
348.432
348.432
348.432
348.432
348.432
348.432
348.432
348.432
348.432
348.432
348.432
348.432
348.432
348.432
348.432
348.431
348.431
348.43
348.43
348.428
348.426
348.423
348.418
348.411
348.401
348.387
348.367
348.339
348.301
348.249
348.182
348.096
347.988
347.857
347.705
347.531
347.338
347.125
346.893
346.645
346.381
346.102
345.81
345.507
345.192
344.868
344.536
344.196
343.849
343.496
343.137
342.774
342.406
342.034
341.659
341.281
340.9
340.516
340.129
339.741
339.351
338.958
338.565
338.169
337.773
337.375
336.975
336.575
336.174
335.772
335.369
334.965
334.561
334.156
333.75
333.344
332.937
332.53
332.122
331.714
331.305
330.896
330.487
330.077
329.668
329.257
328.847
328.437
328.026
327.615
327.204
326.792
326.381
325.97
325.558
325.146
324.734
324.323
323.911
323.499
323.087
322.675
322.263
321.851
321.439
321.027
320.615
320.203
319.791
319.379
318.967
318.555
318.144
317.732
317.32
316.909
316.498
316.086
315.675
315.264
314.853
314.443
314.032
313.621
313.211
312.801
312.391
311.981
311.571
311.161
310.752
310.343
309.934
309.525
309.116
308.707
308.299
307.891
307.483
307.075
306.668
306.26
305.853
305.446
305.039
304.633
304.226
303.82
303.415
303.009
302.604
302.198
301.793
301.389
300.984
300.58
300.176
299.772
299.369
298.966
298.563
298.16
297.757
297.356
296.954
296.552
296.15
295.749
295.349
294.949
294.548
294.146
293.746
293.349
292.952
292.551
292.147
291.748
291.356
290.964
290.561
290.15
289.75
289.367
288.983
288.574
288.141
287.732
287.363
286.996
286.58
286.087
285.646
285.295
284.949
284.545
283.936
283.425
283.109
282.782
282.44
281.762
281.18
280.92
280.628
280.356
279.839
279.144
278.89
278.63
278.344
278.066
277.322
276.955
276.732
276.415
276.159
275.623
275.066
274.851
274.585
274.241
273.646
273.112
272.905
272.66
272.382
271.809
271.182
270.984
270.793
270.47
270.077
269.307
269.036
268.885
268.631
268.29
267.6
267.085
266.921
266.782
266.491
266.098
265.282
264.872
264.701
264.52
264.221
263.801
263.447
262.432
261.963
261.781
261.607
261.409
260.942
260.573
260.417
259.923
259.32
259.076
258.84
258.637
258.507
257.772
257.293
257.157
257.07
256.94
256.141
255.619
255.421
255.34
255.06
254.244
254.066
254.021
253.875
253.171
252.859
252.65
252.427
252.046
251.41
251.258
251.167
251.126
251.021
250.666
250.596
250.622
250.339
249.929
249.899
249.897
249.902
249.91
249.559
249.343
249.323
249.335
249.397
249.221
248.997
248.981
248.98
248.982
248.731
248.584
248.579
248.621
248.595
248.407
248.382
248.398
248.415
248.272
248.204
248.203
248.215
248.24
248.141
248.052
248.039
248.033
248.026
248.022
248.029
248.053
248.01
247.953
247.952
247.971
247.946
247.878
247.874
247.891
247.919
247.893
247.868
247.872
247.894
247.891
247.844
247.822
247.827
247.836
247.826
247.816
247.819
247.826
247.828
247.838
247.863
247.864
247.84
247.833
247.853
247.877
247.873
247.852
247.85
247.874
247.887
247.883
247.867
247.873
247.903
247.91
247.903
247.882
247.886
247.916
247.918
247.905
247.881
247.886
247.906
247.906
247.902
247.892
247.899
247.916
247.922
247.922
247.918
247.93
247.951
247.956
247.946
247.94
247.954
247.97
247.973
247.969
247.962
247.969
247.986
247.99
247.982
247.98
247.995
248.009
248.007
248.001
248.005
248.02
248.026
248.03
248.029
248.03
248.034
248.04
248.042
248.041
248.042
248.047
248.049
248.046
248.044
248.048
248.055
248.057
248.056
248.055
248.058
248.065
248.073
248.079
248.084
248.091
248.099
248.106
248.111
248.114
248.12
248.127
248.129
248.13
248.135
248.144
248.149
248.148
248.152
248.162
248.172
248.174
248.175
248.182
248.196
248.206
248.208
248.212
248.223
248.238
248.248
248.25
248.259
248.276
248.294
248.3
248.305
248.319
248.341
248.357
248.361
248.371
248.386
248.406
248.423
248.433
248.447
248.464
248.484
248.506
248.527
248.551
248.58
248.611
248.641
248.675
248.711
248.748
248.78
248.814
248.851
248.891
248.932
248.981
249.043
249.123
249.224
249.354
249.53
249.77
250.095
250.536
251.143
251.977
253.117
254.664
256.74
259.502
263.122
267.786
273.682
281.002
289.905
300.48
312.695
326.376
341.12
356.147
370.17
381.616
389.511
394.216
396.746
398.004
398.566
398.793
398.876
398.892
398.876
398.845
398.797
398.721
398.605
398.462
398.346
398.278
398.243
398.215
398.189
398.176
398.169
398.162
398.149
398.138
398.13
398.123
398.109
398.1
398.094
398.09
398.081
398.072
398.069
398.066
398.061
398.053
398.049
398.048
398.044
398.036
398.032
398.03
398.028
398.021
398.016
398.015
398.014
398.01
398.004
398.002
398.002
398
397.994
397.992
397.991
397.99
397.986
397.982
397.98
397.979
397.977
397.972
397.969
397.968
397.966
397.962
397.958
397.956
397.954
397.951
397.946
397.944
397.942
397.939
397.934
397.931
397.929
397.928
397.923
397.919
397.917
397.917
397.915
397.909
397.907
397.907
397.906
397.903
397.9
397.898
397.897
397.896
397.893
397.891
397.889
397.888
397.887
397.884
397.883
397.881
397.881
397.879
397.876
397.875
397.874
397.873
397.871
397.868
397.867
397.866
397.865
397.861
397.86
397.86
397.858
397.853
397.852
397.853
397.852
397.844
397.841
397.842
397.843
397.837
397.828
397.826
397.827
397.83
397.821
397.809
397.81
397.809
397.808
397.8
397.785
397.778
397.776
397.778
397.773
397.744
397.737
397.734
397.737
397.726
397.683
397.675
397.672
397.675
397.653
397.59
397.572
397.567
397.573
397.546
397.437
397.406
397.396
397.399
397.378
397.203
397.127
397.103
397.102
397.088
396.815
396.604
396.514
396.43
396.361
396
395.122
394.533
393.949
392.995
391.333
388.244
383.14
374.765
353.894
297.908
282.022
279.236
278.818
278.757
278.748
278.746
278.746
278.746
278.746
278.746
278.746
278.746
278.746
278.746
278.746
278.746
278.746
278.746
278.746
278.746
278.746
278.746
278.746
278.746
278.746
278.746
278.746
278.746
278.746
278.746
278.746
278.746
278.746
278.746
278.746
278.746
278.746
278.746
278.746
278.746
278.746
278.746
278.746
278.746
278.746
278.746
278.746
278.746
278.746
278.746
278.746
278.746
278.746
278.746
278.746
278.746
278.746
278.746
278.746
278.746
278.746
278.746
278.746
278.746
278.746
278.746
278.746
278.746
278.746
278.746
278.746
278.746
278.746
278.746
278.746
278.746
278.746
278.746
278.746
278.746
278.746
278.746
278.746
278.746
278.746
278.746
278.746
278.746
278.746
278.746
278.746
278.746
278.746
278.746
278.746
278.746
278.746
278.746
278.746
278.746
278.746
278.746
278.746
278.746
278.746
278.746
278.746
278.746
278.746
)
;

boundaryField
{
    sides
    {
        type            zeroGradient;
    }
    empty
    {
        type            empty;
    }
}


// ************************************************************************* //
