/*--------------------------------*- C++ -*----------------------------------*\
  =========                 |
  \\      /  F ield         | OpenFOAM: The Open Source CFD Toolbox
   \\    /   O peration     | Website:  https://openfoam.org
    \\  /    A nd           | Version:  13
     \\/     M anipulation  |
\*---------------------------------------------------------------------------*/
FoamFile
{
    format      ascii;
    class       volVectorField;
    location    "0.007";
    object      U;
}
// * * * * * * * * * * * * * * * * * * * * * * * * * * * * * * * * * * * * * //

dimensions      [0 1 -1 0 0 0 0];

internalField   nonuniform List<vector> 
1000
(
(-6.79184e-12 0 0)
(-6.5424e-12 0 0)
(-7.15361e-12 0 0)
(-8.45771e-12 0 0)
(-8.08282e-12 0 0)
(-9.37234e-12 0 0)
(-7.91361e-12 0 0)
(-9.79537e-12 0 0)
(-7.47161e-12 0 0)
(-9.76036e-12 0 0)
(-7.48037e-12 0 0)
(-8.32059e-12 0 0)
(-6.92459e-12 0 0)
(-9.0908e-12 0 0)
(-7.77795e-12 0 0)
(-8.76696e-12 0 0)
(-8.28413e-12 0 0)
(-8.85449e-12 0 0)
(-7.73127e-12 0 0)
(-8.27391e-12 0 0)
(-6.99023e-12 0 0)
(-6.95231e-12 0 0)
(-6.34839e-12 0 0)
(-5.86118e-12 0 0)
(-6.38924e-12 0 0)
(-7.00774e-12 0 0)
(-5.88452e-12 0 0)
(-5.4221e-12 0 0)
(-4.72191e-12 0 0)
(-4.30325e-12 0 0)
(-5.45857e-12 0 0)
(-4.56874e-12 0 0)
(-5.1712e-12 0 0)
(-3.76352e-12 0 0)
(-6.15146e-12 0 0)
(-2.08452e-12 0 0)
(-2.6899e-12 0 0)
(-2.14725e-12 0 0)
(-3.45719e-12 0 0)
(-1.7213e-12 0 0)
(-2.22019e-12 0 0)
(-2.05243e-12 0 0)
(-3.33174e-12 0 0)
(-2.77159e-12 0 0)
(-4.05235e-12 0 0)
(-1.96345e-12 0 0)
(-1.59002e-12 0 0)
(-1.84675e-12 0 0)
(-2.19393e-12 0 0)
(-1.41643e-12 0 0)
(-3.00498e-12 0 0)
(-1.12906e-12 0 0)
(-2.88537e-12 0 0)
(-1.99262e-12 0 0)
(-2.93788e-12 0 0)
(-3.52867e-12 0 0)
(-3.94732e-12 0 0)
(-5.07784e-12 0 0)
(-4.83277e-12 0 0)
(-6.20252e-12 0 0)
(-2.61113e-12 0 0)
(-4.58916e-12 0 0)
(-2.81389e-12 0 0)
(-3.71976e-12 0 0)
(-8.13971e-13 0 0)
(-5.90785e-13 0 0)
(1.07508e-12 0 0)
(8.34393e-13 0 0)
(7.4687e-13 0 0)
(9.97771e-13 0 0)
(2.68114e-12 0 0)
(2.3223e-12 0 0)
(3.35362e-12 0 0)
(3.08375e-12 0 0)
(4.58187e-12 0 0)
(3.98233e-12 0 0)
(5.11868e-12 0 0)
(5.28352e-12 0 0)
(6.00705e-12 0 0)
(6.41549e-12 0 0)
(6.1573e-12 0 0)
(6.09311e-12 0 0)
(5.40168e-12 0 0)
(6.38048e-12 0 0)
(4.00275e-12 0 0)
(6.95085e-12 0 0)
(5.06909e-12 0 0)
(6.06248e-12 0 0)
(3.99692e-12 0 0)
(6.94209e-12 0 0)
(4.80651e-12 0 0)
(7.75169e-12 0 0)
(6.2667e-12 0 0)
(6.96106e-12 0 0)
(5.80866e-12 0 0)
(7.50954e-12 0 0)
(5.01074e-12 0 0)
(6.55115e-12 0 0)
(4.95676e-12 0 0)
(7.68021e-12 0 0)
(7.44098e-12 0 0)
(9.08643e-12 0 0)
(9.28773e-12 0 0)
(8.78739e-12 0 0)
(7.82171e-12 0 0)
(7.85964e-12 0 0)
(6.80789e-12 0 0)
(8.26224e-12 0 0)
(8.36727e-12 0 0)
(9.76765e-12 0 0)
(9.96604e-12 0 0)
(9.75307e-12 0 0)
(9.3738e-12 0 0)
(9.44819e-12 0 0)
(9.27023e-12 0 0)
(1.0039e-11 0 0)
(8.80343e-12 0 0)
(8.62255e-12 0 0)
(9.04996e-12 0 0)
(8.85886e-12 0 0)
(8.88075e-12 0 0)
(7.56789e-12 0 0)
(6.59054e-12 0 0)
(6.33964e-12 0 0)
(6.57304e-12 0 0)
(6.58616e-12 0 0)
(7.13465e-12 0 0)
(7.49933e-12 0 0)
(6.28712e-12 0 0)
(7.13173e-12 0 0)
(6.27254e-12 0 0)
(6.34547e-12 0 0)
(7.09818e-12 0 0)
(6.88374e-12 0 0)
(7.47599e-12 0 0)
(8.39645e-12 0 0)
(7.66854e-12 0 0)
(6.59783e-12 0 0)
(5.11722e-12 0 0)
(4.5279e-12 0 0)
(4.18072e-12 0 0)
(2.17059e-12 0 0)
(1.95032e-12 0 0)
(3.48053e-12 0 0)
(3.93419e-12 0 0)
(5.47753e-12 0 0)
(5.08221e-12 0 0)
(5.97787e-12 0 0)
(5.67592e-12 0 0)
(4.89112e-12 0 0)
(3.58847e-12 0 0)
(2.86203e-12 0 0)
(1.72714e-12 0 0)
(4.94509e-13 0 0)
(1.9722e-12 0 0)
(1.82925e-12 0 0)
(-1.34203e-13 0 0)
(1.56084e-13 0 0)
(-4.91592e-13 0 0)
(-8.31476e-13 0 0)
(-2.31063e-12 0 0)
(-2.28875e-12 0 0)
(-1.9547e-12 0 0)
(-2.77596e-12 0 0)
(-1.33474e-12 0 0)
(-2.18809e-14 0 0)
(-3.47178e-13 0 0)
(1.42372e-12 0 0)
(2.29458e-12 0 0)
(3.19316e-12 0 0)
(2.94226e-12 0 0)
(1.85842e-12 0 0)
(1.20783e-12 0 0)
(7.71668e-13 0 0)
(4.06986e-13 0 0)
(-4.7117e-13 0 0)
(1.19762e-12 0 0)
(4.15154e-12 0 0)
(7.6029e-12 0 0)
(1.58053e-11 0 0)
(2.86801e-11 0 0)
(5.69648e-11 0 0)
(1.12044e-10 0 0)
(2.20561e-10 0 0)
(4.3296e-10 0 0)
(8.4528e-10 0 0)
(1.63921e-09 0 0)
(3.15979e-09 0 0)
(6.05224e-09 0 0)
(1.15156e-08 0 0)
(2.17697e-08 0 0)
(4.08845e-08 0 0)
(7.62757e-08 0 0)
(1.41346e-07 0 0)
(2.60151e-07 0 0)
(4.7552e-07 0 0)
(8.63129e-07 0 0)
(1.55561e-06 0 0)
(2.78356e-06 0 0)
(4.94455e-06 0 0)
(8.71826e-06 0 0)
(1.52567e-05 0 0)
(2.64949e-05 0 0)
(4.56542e-05 0 0)
(7.80472e-05 0 0)
(0.000132351 0 0)
(0.000222602 0 0)
(0.000371272 0 0)
(0.000613964 0 0)
(0.00100648 0 0)
(0.00163529 0 0)
(0.00263284 0 0)
(0.00419954 0 0)
(0.00663476 0 0)
(0.0103797 0 0)
(0.0160754 0 0)
(0.0246393 0 0)
(0.0373628 0 0)
(0.0560321 0 0)
(0.0830701 0 0)
(0.121692 0 0)
(0.176062 0 0)
(0.251415 0 0)
(0.354114 0 0)
(0.491548 0 0)
(0.67179 0 0)
(0.90284 0 0)
(1.19116 0 0)
(1.53953 0 0)
(1.94666 0 0)
(2.40997 0 0)
(2.92741 0 0)
(3.49691 0 0)
(4.11584 0 0)
(4.78108 0 0)
(5.48925 0 0)
(6.2368 0 0)
(7.02023 0 0)
(7.83613 0 0)
(8.6813 0 0)
(9.55278 0 0)
(10.4479 0 0)
(11.3641 0 0)
(12.2994 0 0)
(13.2518 0 0)
(14.2195 0 0)
(15.201 0 0)
(16.195 0 0)
(17.2004 0 0)
(18.2159 0 0)
(19.2408 0 0)
(20.2742 0 0)
(21.3154 0 0)
(22.3637 0 0)
(23.4186 0 0)
(24.4794 0 0)
(25.5459 0 0)
(26.6174 0 0)
(27.6938 0 0)
(28.7746 0 0)
(29.8596 0 0)
(30.9484 0 0)
(32.0409 0 0)
(33.1367 0 0)
(34.2358 0 0)
(35.3378 0 0)
(36.4427 0 0)
(37.5502 0 0)
(38.6603 0 0)
(39.7728 0 0)
(40.8876 0 0)
(42.0045 0 0)
(43.1235 0 0)
(44.2444 0 0)
(45.3672 0 0)
(46.4918 0 0)
(47.6181 0 0)
(48.7461 0 0)
(49.8756 0 0)
(51.0066 0 0)
(52.139 0 0)
(53.2728 0 0)
(54.4079 0 0)
(55.5443 0 0)
(56.6819 0 0)
(57.8208 0 0)
(58.9607 0 0)
(60.1017 0 0)
(61.2438 0 0)
(62.3869 0 0)
(63.531 0 0)
(64.676 0 0)
(65.822 0 0)
(66.9688 0 0)
(68.1164 0 0)
(69.2649 0 0)
(70.4142 0 0)
(71.5642 0 0)
(72.715 0 0)
(73.8665 0 0)
(75.0187 0 0)
(76.1715 0 0)
(77.325 0 0)
(78.4791 0 0)
(79.6338 0 0)
(80.7891 0 0)
(81.945 0 0)
(83.1014 0 0)
(84.2583 0 0)
(85.4157 0 0)
(86.5736 0 0)
(87.732 0 0)
(88.8908 0 0)
(90.0501 0 0)
(91.2098 0 0)
(92.3699 0 0)
(93.5304 0 0)
(94.6913 0 0)
(95.8525 0 0)
(97.0141 0 0)
(98.1761 0 0)
(99.3383 0 0)
(100.501 0 0)
(101.664 0 0)
(102.827 0 0)
(103.99 0 0)
(105.154 0 0)
(106.318 0 0)
(107.482 0 0)
(108.647 0 0)
(109.811 0 0)
(110.976 0 0)
(112.141 0 0)
(113.307 0 0)
(114.472 0 0)
(115.638 0 0)
(116.804 0 0)
(117.97 0 0)
(119.136 0 0)
(120.302 0 0)
(121.469 0 0)
(122.636 0 0)
(123.802 0 0)
(124.969 0 0)
(126.136 0 0)
(127.303 0 0)
(128.47 0 0)
(129.638 0 0)
(130.805 0 0)
(131.972 0 0)
(133.14 0 0)
(134.307 0 0)
(135.475 0 0)
(136.643 0 0)
(137.811 0 0)
(138.978 0 0)
(140.146 0 0)
(141.313 0 0)
(142.482 0 0)
(143.65 0 0)
(144.818 0 0)
(145.985 0 0)
(147.152 0 0)
(148.321 0 0)
(149.49 0 0)
(150.658 0 0)
(151.823 0 0)
(152.991 0 0)
(154.161 0 0)
(155.331 0 0)
(156.498 0 0)
(157.661 0 0)
(158.828 0 0)
(160.001 0 0)
(161.177 0 0)
(162.343 0 0)
(163.501 0 0)
(164.665 0 0)
(165.849 0 0)
(167.039 0 0)
(168.21 0 0)
(169.358 0 0)
(170.52 0 0)
(171.728 0 0)
(172.96 0 0)
(174.157 0 0)
(175.293 0 0)
(176.455 0 0)
(177.717 0 0)
(179.038 0 0)
(180.306 0 0)
(181.43 0 0)
(182.575 0 0)
(183.903 0 0)
(185.309 0 0)
(186.637 0 0)
(187.704 0 0)
(188.742 0 0)
(190.018 0 0)
(191.353 0 0)
(192.63 0 0)
(193.658 0 0)
(194.575 0 0)
(195.728 0 0)
(196.994 0 0)
(198.257 0 0)
(199.402 0 0)
(200.343 0 0)
(201.393 0 0)
(202.645 0 0)
(203.898 0 0)
(205.115 0 0)
(206.15 0 0)
(207.161 0 0)
(208.405 0 0)
(209.709 0 0)
(210.911 0 0)
(211.891 0 0)
(212.866 0 0)
(214.084 0 0)
(215.364 0 0)
(216.562 0 0)
(217.52 0 0)
(218.448 0 0)
(219.678 0 0)
(221.029 0 0)
(222.314 0 0)
(223.38 0 0)
(224.272 0 0)
(225.365 0 0)
(226.688 0 0)
(227.975 0 0)
(229.105 0 0)
(229.978 0 0)
(230.9 0 0)
(232.164 0 0)
(233.55 0 0)
(234.86 0 0)
(235.956 0 0)
(236.831 0 0)
(237.876 0 0)
(239.28 0 0)
(240.778 0 0)
(242.117 0 0)
(243.193 0 0)
(243.976 0 0)
(244.51 0 0)
(245.305 0 0)
(246.568 0 0)
(247.983 0 0)
(249.363 0 0)
(250.561 0 0)
(251.712 0 0)
(252.927 0 0)
(253.958 0 0)
(254.897 0 0)
(256 0 0)
(257.182 0 0)
(258.381 0 0)
(259.502 0 0)
(260.358 0 0)
(261.261 0 0)
(262.494 0 0)
(263.876 0 0)
(265.14 0 0)
(266.046 0 0)
(266.869 0 0)
(267.894 0 0)
(269.026 0 0)
(269.985 0 0)
(270.772 0 0)
(271.792 0 0)
(273.059 0 0)
(274.213 0 0)
(275.124 0 0)
(276.045 0 0)
(277.04 0 0)
(277.966 0 0)
(278.675 0 0)
(279.256 0 0)
(280.006 0 0)
(280.87 0 0)
(281.682 0 0)
(282.316 0 0)
(282.831 0 0)
(283.465 0 0)
(284.198 0 0)
(284.754 0 0)
(285.208 0 0)
(285.788 0 0)
(286.412 0 0)
(287.004 0 0)
(287.49 0 0)
(287.766 0 0)
(288.001 0 0)
(288.354 0 0)
(288.756 0 0)
(289.14 0 0)
(289.379 0 0)
(289.553 0 0)
(289.814 0 0)
(290.119 0 0)
(290.378 0 0)
(290.506 0 0)
(290.625 0 0)
(290.844 0 0)
(291.103 0 0)
(291.294 0 0)
(291.411 0 0)
(291.568 0 0)
(291.782 0 0)
(291.974 0 0)
(292.084 0 0)
(292.185 0 0)
(292.333 0 0)
(292.49 0 0)
(292.626 0 0)
(292.695 0 0)
(292.747 0 0)
(292.841 0 0)
(292.951 0 0)
(293.057 0 0)
(293.158 0 0)
(293.262 0 0)
(293.36 0 0)
(293.416 0 0)
(293.455 0 0)
(293.521 0 0)
(293.599 0 0)
(293.647 0 0)
(293.669 0 0)
(293.711 0 0)
(293.775 0 0)
(293.836 0 0)
(293.865 0 0)
(293.883 0 0)
(293.917 0 0)
(293.963 0 0)
(293.994 0 0)
(294.002 0 0)
(294.013 0 0)
(294.044 0 0)
(294.077 0 0)
(294.095 0 0)
(294.106 0 0)
(294.121 0 0)
(294.136 0 0)
(294.148 0 0)
(294.162 0 0)
(294.181 0 0)
(294.184 0 0)
(294.171 0 0)
(294.163 0 0)
(294.174 0 0)
(294.189 0 0)
(294.186 0 0)
(294.169 0 0)
(294.16 0 0)
(294.166 0 0)
(294.171 0 0)
(294.16 0 0)
(294.141 0 0)
(294.135 0 0)
(294.142 0 0)
(294.141 0 0)
(294.125 0 0)
(294.101 0 0)
(294.093 0 0)
(294.1 0 0)
(294.099 0 0)
(294.081 0 0)
(294.058 0 0)
(294.052 0 0)
(294.057 0 0)
(294.055 0 0)
(294.044 0 0)
(294.031 0 0)
(294.026 0 0)
(294.028 0 0)
(294.025 0 0)
(294.016 0 0)
(294.005 0 0)
(294.003 0 0)
(294.008 0 0)
(294.005 0 0)
(293.991 0 0)
(293.978 0 0)
(293.978 0 0)
(293.982 0 0)
(293.98 0 0)
(293.97 0 0)
(293.959 0 0)
(293.956 0 0)
(293.96 0 0)
(293.958 0 0)
(293.948 0 0)
(293.939 0 0)
(293.941 0 0)
(293.945 0 0)
(293.938 0 0)
(293.928 0 0)
(293.924 0 0)
(293.926 0 0)
(293.926 0 0)
(293.923 0 0)
(293.918 0 0)
(293.912 0 0)
(293.91 0 0)
(293.909 0 0)
(293.906 0 0)
(293.902 0 0)
(293.899 0 0)
(293.899 0 0)
(293.897 0 0)
(293.892 0 0)
(293.887 0 0)
(293.886 0 0)
(293.888 0 0)
(293.887 0 0)
(293.882 0 0)
(293.877 0 0)
(293.873 0 0)
(293.873 0 0)
(293.872 0 0)
(293.87 0 0)
(293.866 0 0)
(293.863 0 0)
(293.861 0 0)
(293.859 0 0)
(293.856 0 0)
(293.852 0 0)
(293.85 0 0)
(293.848 0 0)
(293.845 0 0)
(293.84 0 0)
(293.837 0 0)
(293.837 0 0)
(293.834 0 0)
(293.828 0 0)
(293.823 0 0)
(293.823 0 0)
(293.822 0 0)
(293.817 0 0)
(293.81 0 0)
(293.807 0 0)
(293.807 0 0)
(293.806 0 0)
(293.8 0 0)
(293.794 0 0)
(293.791 0 0)
(293.792 0 0)
(293.789 0 0)
(293.782 0 0)
(293.776 0 0)
(293.776 0 0)
(293.776 0 0)
(293.771 0 0)
(293.763 0 0)
(293.759 0 0)
(293.761 0 0)
(293.76 0 0)
(293.753 0 0)
(293.746 0 0)
(293.744 0 0)
(293.744 0 0)
(293.744 0 0)
(293.739 0 0)
(293.734 0 0)
(293.73 0 0)
(293.728 0 0)
(293.726 0 0)
(293.723 0 0)
(293.719 0 0)
(293.716 0 0)
(293.714 0 0)
(293.71 0 0)
(293.706 0 0)
(293.704 0 0)
(293.702 0 0)
(293.698 0 0)
(293.694 0 0)
(293.693 0 0)
(293.692 0 0)
(293.69 0 0)
(293.688 0 0)
(293.688 0 0)
(293.69 0 0)
(293.692 0 0)
(293.694 0 0)
(293.698 0 0)
(293.706 0 0)
(293.717 0 0)
(293.73 0 0)
(293.746 0 0)
(293.768 0 0)
(293.794 0 0)
(293.823 0 0)
(293.855 0 0)
(293.888 0 0)
(293.922 0 0)
(293.952 0 0)
(293.971 0 0)
(293.978 0 0)
(293.971 0 0)
(293.945 0 0)
(293.889 0 0)
(293.804 0 0)
(293.698 0 0)
(293.575 0 0)
(293.446 0 0)
(293.347 0 0)
(293.316 0 0)
(293.353 0 0)
(293.419 0 0)
(293.475 0 0)
(293.514 0 0)
(293.545 0 0)
(293.571 0 0)
(293.584 0 0)
(293.58 0 0)
(293.573 0 0)
(293.572 0 0)
(293.575 0 0)
(293.575 0 0)
(293.568 0 0)
(293.562 0 0)
(293.562 0 0)
(293.565 0 0)
(293.562 0 0)
(293.554 0 0)
(293.548 0 0)
(293.546 0 0)
(293.544 0 0)
(293.54 0 0)
(293.536 0 0)
(293.534 0 0)
(293.532 0 0)
(293.527 0 0)
(293.522 0 0)
(293.521 0 0)
(293.519 0 0)
(293.515 0 0)
(293.51 0 0)
(293.508 0 0)
(293.507 0 0)
(293.503 0 0)
(293.499 0 0)
(293.496 0 0)
(293.495 0 0)
(293.492 0 0)
(293.488 0 0)
(293.484 0 0)
(293.483 0 0)
(293.481 0 0)
(293.478 0 0)
(293.474 0 0)
(293.472 0 0)
(293.471 0 0)
(293.468 0 0)
(293.464 0 0)
(293.462 0 0)
(293.461 0 0)
(293.459 0 0)
(293.455 0 0)
(293.453 0 0)
(293.452 0 0)
(293.45 0 0)
(293.447 0 0)
(293.444 0 0)
(293.443 0 0)
(293.442 0 0)
(293.44 0 0)
(293.437 0 0)
(293.435 0 0)
(293.434 0 0)
(293.433 0 0)
(293.43 0 0)
(293.428 0 0)
(293.427 0 0)
(293.426 0 0)
(293.425 0 0)
(293.422 0 0)
(293.421 0 0)
(293.42 0 0)
(293.419 0 0)
(293.417 0 0)
(293.415 0 0)
(293.415 0 0)
(293.414 0 0)
(293.412 0 0)
(293.41 0 0)
(293.409 0 0)
(293.409 0 0)
(293.408 0 0)
(293.406 0 0)
(293.404 0 0)
(293.404 0 0)
(293.404 0 0)
(293.402 0 0)
(293.4 0 0)
(293.399 0 0)
(293.399 0 0)
(293.398 0 0)
(293.397 0 0)
(293.395 0 0)
(293.394 0 0)
(293.393 0 0)
(293.392 0 0)
(293.391 0 0)
(293.389 0 0)
(293.388 0 0)
(293.387 0 0)
(293.386 0 0)
(293.383 0 0)
(293.382 0 0)
(293.38 0 0)
(293.379 0 0)
(293.377 0 0)
(293.374 0 0)
(293.372 0 0)
(293.37 0 0)
(293.368 0 0)
(293.364 0 0)
(293.362 0 0)
(293.359 0 0)
(293.355 0 0)
(293.351 0 0)
(293.347 0 0)
(293.343 0 0)
(293.339 0 0)
(293.332 0 0)
(293.325 0 0)
(293.32 0 0)
(293.317 0 0)
(293.308 0 0)
(293.296 0 0)
(293.288 0 0)
(293.284 0 0)
(293.277 0 0)
(293.265 0 0)
(293.25 0 0)
(293.237 0 0)
(293.227 0 0)
(293.217 0 0)
(293.198 0 0)
(293.172 0 0)
(293.15 0 0)
(293.13 0 0)
(293.11 0 0)
(293.083 0 0)
(293.045 0 0)
(293.007 0 0)
(292.977 0 0)
(292.947 0 0)
(292.904 0 0)
(292.845 0 0)
(292.79 0 0)
(292.744 0 0)
(292.698 0 0)
(292.628 0 0)
(292.534 0 0)
(292.449 0 0)
(292.377 0 0)
(292.304 0 0)
(292.197 0 0)
(292.048 0 0)
(291.905 0 0)
(291.784 0 0)
(291.667 0 0)
(291.504 0 0)
(291.261 0 0)
(291.014 0 0)
(290.802 0 0)
(290.597 0 0)
(290.329 0 0)
(289.909 0 0)
(289.423 0 0)
(288.949 0 0)
(288.425 0 0)
(287.765 0 0)
(286.726 0 0)
(285.194 0 0)
(283.323 0 0)
(280.978 0 0)
(277.66 0 0)
(272.555 0 0)
(264.288 0 0)
(250.734 0 0)
(225.265 0 0)
(163.615 0 0)
(61.7243 0 0)
(10.4209 0 0)
(1.62569 0 0)
(0.239889 0 0)
(0.0352592 0 0)
(0.00517509 0 0)
(0.000758899 0 0)
(0.000111281 0 0)
(1.63175e-05 0 0)
(2.39272e-06 0 0)
(3.50869e-07 0 0)
(5.14509e-08 0 0)
(7.54564e-09 0 0)
(1.1067e-09 0 0)
(1.63146e-10 0 0)
(2.04806e-11 0 0)
(1.90073e-12 0 0)
(-2.91163e-12 0 0)
(-3.44698e-12 0 0)
(-2.04952e-12 0 0)
(-2.47401e-12 0 0)
(-3.98817e-12 0 0)
(-2.63593e-12 0 0)
(-2.20414e-12 0 0)
(-1.33474e-12 0 0)
(4.28867e-13 0 0)
(-1.07071e-12 0 0)
(1.6965e-12 0 0)
(2.77013e-12 0 0)
(3.34779e-12 0 0)
(4.14134e-12 0 0)
(3.6089e-12 0 0)
(4.49435e-12 0 0)
(5.09535e-12 0 0)
(5.47754e-12 0 0)
(3.72998e-12 0 0)
(3.27339e-12 0 0)
(3.57389e-12 0 0)
(9.14625e-13 0 0)
(2.59946e-12 0 0)
(4.44621e-12 0 0)
(5.24706e-12 0 0)
(4.82111e-12 0 0)
(4.75692e-12 0 0)
(6.37757e-12 0 0)
(6.03477e-12 0 0)
(5.9312e-12 0 0)
(5.00928e-12 0 0)
(5.26019e-12 0 0)
(4.8109e-12 0 0)
(8.03032e-12 0 0)
(6.45781e-12 0 0)
(6.73205e-12 0 0)
(6.99462e-12 0 0)
(5.45566e-12 0 0)
(7.15216e-12 0 0)
(7.45266e-12 0 0)
(8.53358e-12 0 0)
(9.59554e-12 0 0)
(8.72467e-12 0 0)
(7.90778e-12 0 0)
(8.50295e-12 0 0)
(9.97189e-12 0 0)
(9.50655e-12 0 0)
(9.83477e-12 0 0)
(7.94425e-12 0 0)
(8.94203e-12 0 0)
(8.97995e-12 0 0)
(8.59193e-12 0 0)
(7.94134e-12 0 0)
(7.46871e-12 0 0)
(7.35638e-12 0 0)
(6.63285e-12 0 0)
(6.88667e-12 0 0)
(6.48552e-12 0 0)
(7.94134e-12 0 0)
(7.1507e-12 0 0)
(7.49642e-12 0 0)
(7.57228e-12 0 0)
(6.99899e-12 0 0)
(8.17036e-12 0 0)
(7.95738e-12 0 0)
(7.07922e-12 0 0)
(7.05589e-12 0 0)
(8.04782e-12 0 0)
(8.37895e-12 0 0)
(7.73274e-12 0 0)
(7.95009e-12 0 0)
(6.6241e-12 0 0)
(6.27546e-12 0 0)
(4.98594e-12 0 0)
(5.30103e-12 0 0)
(6.12521e-12 0 0)
(5.71531e-12 0 0)
(5.44107e-12 0 0)
(6.10042e-12 0 0)
(6.24045e-12 0 0)
(6.23754e-12 0 0)
(8.27976e-12 0 0)
(7.27032e-12 0 0)
(9.24836e-12 0 0)
(7.74587e-12 0 0)
(7.41619e-12 0 0)
(7.21926e-12 0 0)
(6.54679e-12 0 0)
(6.43884e-12 0 0)
(6.51324e-12 0 0)
(5.37543e-12 0 0)
(5.51984e-12 0 0)
(5.98809e-12 0 0)
)
;

boundaryField
{
    sides
    {
        type            zeroGradient;
    }
    empty
    {
        type            empty;
    }
}


// ************************************************************************* //
