/*--------------------------------*- C++ -*----------------------------------*\
  =========                 |
  \\      /  F ield         | OpenFOAM: The Open Source CFD Toolbox
   \\    /   O peration     | Website:  https://openfoam.org
    \\  /    A nd           | Version:  13
     \\/     M anipulation  |
\*---------------------------------------------------------------------------*/
FoamFile
{
    format      ascii;
    class       volScalarField;
    location    "49";
    object      p;
}
// * * * * * * * * * * * * * * * * * * * * * * * * * * * * * * * * * * * * * //

dimensions      [0 2 -2 0 0 0 0];

internalField   nonuniform List<scalar> 
918
(
0.562368
1.20292
0.00217087
0.561755
-0.00854619
1.16994
-0.495512
0.701776
0.542535
-0.0937151
-0.0261122
0.539695
1.03051
0.796141
-1.11768
-0.00158794
0.660523
-0.374929
0.541601
-0.0398417
0.732086
0.549103
0.552132
0.542715
0.609291
0.773578
0.911294
0.0201719
0.00808149
0.00379521
-0.0129567
-0.0337229
-0.0261083
1.0536
1.10467
1.12735
0.510588
0.339304
-0.362908
-0.431165
-0.423451
-0.539397
0.696549
0.695383
-0.189073
0.704562
0.709472
0.529652
0.541901
0.542809
0.543862
0.542827
0.544217
0.416425
-0.0966415
-0.129352
-0.0731609
-0.0646678
0.070453
-0.0277253
-0.0296703
-0.0248723
-0.0242242
0.460475
0.534833
0.531885
0.544926
0.554127
1.14247
1.1144
1.14054
1.05414
1.07067
1.00852
0.981108
0.817236
0.838725
0.780455
0.768799
-1.55289
-2.51062
-0.524481
-0.272219
-0.0149688
0.00227823
0.0108631
0.655284
0.655375
0.661999
0.668777
1.08917
-0.373925
-0.473525
0.541735
0.540536
0.548896
0.549592
0.545608
0.5447
-0.0327837
-0.0299514
-0.0375763
-0.0386111
-0.0362843
0.721132
0.719608
0.54325
0.540263
0.560884
0.581896
0.573831
0.287253
0.612316
0.625972
0.60133
0.765786
0.759104
0.768318
0.884883
0.847802
0.948566
0.971849
0.0168285
-9.54664e-05
-0.00918371
-0.0158621
-0.0155643
0.50647
0.4991
0.525894
0.513974
0.516447
0.255154
0.120501
0.42502
0.45027
-0.279106
-0.340785
-0.42158
-0.449371
-0.559981
0.614483
0.687992
0.685432
-0.203629
-0.130338
-0.260945
-0.0570393
-0.118179
0.519989
0.526947
0.521975
0.537451
0.531935
0.53389
0.546155
0.543234
0.544789
0.478854
0.602448
0.342816
0.30838
-0.235795
-0.146867
-0.237071
-0.0526744
-0.0482648
0.0842501
0.109555
0.0572554
0.0455376
-0.0413486
-0.0329693
-0.0370761
-0.0230082
-0.0254484
0.45337
0.442382
0.473036
0.480487
0.524288
0.525551
0.529166
0.527479
0.931995
0.954321
0.961808
0.935656
-3.50696
-6.30135
0.0550232
0.192634
-0.00545702
-0.0108084
0.00421508
-0.00846025
-0.00226412
-0.00356534
0.00841158
0.00662283
0.00958877
0.0118572
0.647626
0.64781
1.00877
1.01176
0.987759
0.939233
0.529881
0.531975
0.537504
0.533372
-0.0242704
-0.0270358
-0.0246114
0.711412
0.71693
0.715138
0.249507
0.161332
0.337481
0.366034
0.640421
0.629103
0.638992
0.66184
0.697382
0.97925
0.997415
0.995735
1.00408
1.04818
1.06463
1.02986
0.486207
0.496035
0.491068
0.529059
0.526796
0.527719
0.523348
0.524769
0.52263
-0.0309608
-0.413334
0.499673
0.517861
0.499785
0.504749
0.693818
0.770951
0.670176
0.679101
0.676627
0.0109651
-0.0469367
0.264512
0.231209
0.39387
0.429725
0.408978
0.903062
0.863658
0.913634
0.887131
0.848487
0.874375
-0.364977
-1.87238
-0.987277
0.544028
0.35749
0.444846
0.0272429
0.00972278
0.0150831
1.005
1.08079
0.658396
0.829825
0.835117
0.735285
0.766176
0.820739
0.74592
0.780971
0.816313
0.798384
0.571419
0.512686
0.52557
0.840227
0.896252
0.132786
0.0739652
0.0297616
0.128205
0.184364
0.158936
1.04234
0.951326
1.0226
0.540016
0.540724
0.00052705
-0.00918032
0.544917
0.544966
-0.0122513
0.00077119
0.428373
-0.826512
0.115506
0.533449
0.523518
0.540549
-0.0771061
0.369573
-0.0275372
0.0656289
0.00971977
0.537179
0.471365
0.431158
0.00488344
-0.0102389
-0.03446
-0.20584
0.537687
0.535994
0.540018
0.54098
0.541648
-0.0120465
-0.00732627
-0.00600469
-0.033349
-0.0288898
-0.0390978
0.50479
0.523105
-0.160388
0.540158
0.542283
0.542106
0.535328
0.540975
0.539214
-0.00261267
-0.0110553
-0.0112432
0.231757
0.359756
0.67089
0.760325
0.641653
0.415623
0.178746
0.572439
0.636771
0.541237
0.696254
0.683945
0.699399
0.180819
0.03102
0.189438
0.131321
0.531308
0.529995
0.521776
0.518794
0.535414
0.533518
0.538083
0.535078
0.538029
0.539421
-0.0349697
-0.0586208
-0.0724918
-0.138539
0.324953
0.586378
0.266279
0.296734
0.157982
-0.0212678
-0.0227835
-0.0274227
-0.0335346
0.020143
-0.00527806
0.0608896
0.0611533
0.033402
0.00660267
0.0120606
0.000150152
0.0042539
0.530307
0.528702
0.535106
0.544219
0.480858
0.484604
0.450026
0.470454
0.455898
0.395682
0.430433
0.405801
-0.00184842
0.0086866
-0.000471692
-0.0058222
-0.00122576
-0.0207216
-0.0184967
-0.0158192
-0.012254
-0.0183399
-0.0280795
-0.0270052
-0.165237
-0.280193
0.995058
0.922921
0.136999
0.526863
0.533295
0.530074
0.534933
0.538057
0.538884
0.536614
0.533171
0.523531
0.525146
0.521835
0.52258
-0.0930794
-0.232167
-0.0616167
-0.133414
0.149535
0.631662
0.371633
0.308731
0.30358
0.53029
0.935006
0.723146
0.701042
0.716767
-0.333921
0.0596354
-0.26853
0.350501
0.173759
0.669342
0.718938
0.741224
0.688582
0.641133
-0.100109
0.562657
-0.0579244
-0.00823494
0.191673
0.0726749
0.699666
0.66814
0.671964
0.689148
0.706489
0.674304
0.657735
0.652285
0.685289
0.688953
0.501194
0.263017
0.21571
0.176837
0.652022
0.537634
0.591891
0.506513
0.526404
0.52908
0.527693
0.509563
0.517069
0.512653
0.51894
0.522327
0.531129
0.531546
0.526881
0.529037
-0.0392255
-0.0422185
-0.0171257
-0.126862
-0.117343
-0.178654
-0.0531798
0.0847601
0.0471573
0.243548
0.349224
0.0613535
-0.0507065
-0.0227896
0.0152815
0.187694
0.213551
0.0890495
0.177619
0.165892
0.149444
0.250686
0.255623
-0.00814455
-0.0123367
-0.0149106
-0.0168153
0.0366437
0.10677
0.116721
0.0142926
0.0087595
-0.019568
-0.0188713
-0.00562909
-0.00999874
-0.00644022
0.0278355
-0.0397079
-0.0071465
0.00859964
0.0165231
0.013076
0.00821825
0.522715
0.524973
0.524637
0.532187
0.550328
0.566535
0.523225
0.502794
0.4937
0.496689
0.470013
0.480182
0.475887
0.489437
0.510411
0.519645
0.517095
0.519826
0.502551
0.504224
0.490905
0.494565
0.469817
0.451003
0.439327
-0.0312546
0.00556912
-0.000320452
-0.029507
-0.00134939
-0.0135949
0.00601677
0.0234989
0.00851428
0.00495901
-0.00383332
-0.0136735
-0.0121426
-0.0675079
0.0171749
-0.176025
-0.213424
-0.283318
0.896515
1.01993
0.819389
0.592963
0.609794
0.852305
0.938164
0.55573
0.744277
0.768375
0.589492
0.855057
0.53168
0.531289
0.528891
0.528367
0.529589
-0.00130293
0.101862
0.104829
0.164494
0.281335
0.39433
0.319495
0.194539
0.326207
0.329588
0.624081
0.637055
0.592561
0.616172
0.616575
0.434794
0.510489
0.563077
0.519943
0.571203
0.592101
0.548364
0.580478
0.530633
0.485483
0.481805
0.431866
0.45194
0.428668
0.411021
0.521755
0.499079
0.509609
0.499956
0.519469
0.543714
0.540561
0.573098
0.584089
0.50372
0.459961
0.469379
0.499725
0.460304
0.475196
0.491407
0.234952
0.135597
0.219057
-0.069364
0.00651593
-0.0078272
-0.0553841
-0.00692624
0.278314
-0.416109
-0.391698
-1.02203
0.505371
0.966002
0.649137
0.62241
0.703387
0.684997
0.690034
0.708068
0.712243
0.642685
0.659286
0.661565
0.623789
0.6474
0.668142
0.66526
0.532478
0.397527
0.393409
0.345101
0.21573
0.253508
0.453818
0.376116
0.301101
0.302279
0.468366
0.355485
0.424718
0.460859
0.392092
0.34584
0.550043
0.615072
0.606474
0.580701
0.497399
0.511301
0.535471
0.570918
0.59701
0.628285
0.518519
0.524364
0.525612
0.523109
0.520358
0.523349
0.523533
0.526066
0.52679
0.529751
0.528774
-0.0281348
-0.0164975
-0.0298731
-0.037593
-0.00663315
-0.010738
0.0329389
0.0194558
0.00418711
0.010343
-0.0161044
-0.0202546
-0.0153458
-0.00617085
0.110843
0.123371
0.107344
0.0679972
0.256839
0.387546
0.460015
0.336464
0.229488
0.253269
0.274668
0.00386302
0.0312477
0.0186137
0.0568482
0.0482162
-0.015417
-0.0188806
-0.0177738
-0.00979572
-0.000596599
-0.0192161
-0.0223987
-0.0132987
-0.0178298
-0.0178177
-0.0223024
0.50501
0.498562
0.500196
0.494134
0.492865
0.506993
0.511211
0.513163
0.518559
0.52075
0.511025
0.516639
0.520349
0.00599087
-0.0190691
-0.0222624
-0.00896362
-0.0142574
-0.0137287
-0.0144555
0.126304
0.0548256
0.0593248
0.0134971
-0.115806
-0.0581945
0.493692
0.493483
0.486932
0.72316
0.573009
0.493246
0.590374
0.695513
0.277468
0.476105
0.309605
0.892424
0.786876
0.933357
0.546256
0.247516
0.407045
0.455595
0.264893
0.3377
0.334107
0.221345
0.253392
0.288234
0.389848
0.268982
0.244632
0.00202102
0.190989
0.305625
0.286984
0.414136
0.476315
0.266696
0.188294
0.142301
0.612228
0.630577
0.64598
0.619287
0.640082
0.582374
0.570684
0.588974
0.598802
0.594103
-0.749436
-0.4561
-1.40164
-0.719301
-0.266581
0.536337
0.502569
0.774155
0.655753
0.708227
0.692663
0.650342
0.617763
0.636364
0.663951
0.358478
0.469794
0.444746
0.449777
0.351048
0.282473
0.583447
0.577735
0.612552
0.636011
0.605151
0.636336
0.516306
0.515982
0.515546
0.511841
0.510098
0.512397
0.0717293
0.0410308
0.07587
0.0567768
0.0340877
0.0226444
0.0112417
0.00112272
-0.00589441
-0.00715031
0.00753177
0.0116838
0.171454
0.111379
0.0320539
0.0618015
0.00191426
-0.0661774
-0.0838956
0.017537
0.112258
0.102879
0.408386
0.65989
0.479814
0.647104
0.488459
0.544179
0.47639
0.468445
0.495062
0.38412
0.463629
0.243061
-0.264197
-0.172509
0.792279
0.807179
0.589907
0.409415
0.177798
0.360794
0.553861
0.486676
0.523943
0.59316
0.58249
0.024053
0.0863298
0.360098
0.587455
0.24149
0.232792
0.226859
0.406187
0.32713
)
;

boundaryField
{
    wall-4
    {
        type            zeroGradient;
    }
    velocity-inlet-5
    {
        type            zeroGradient;
    }
    velocity-inlet-6
    {
        type            zeroGradient;
    }
    pressure-outlet-7
    {
        type            fixedValue;
        value           uniform 0;
    }
    wall-8
    {
        type            zeroGradient;
    }
    frontAndBackPlanes
    {
        type            empty;
    }
}


// ************************************************************************* //
