/*--------------------------------*- C++ -*----------------------------------*\
  =========                 |
  \\      /  F ield         | OpenFOAM: The Open Source CFD Toolbox
   \\    /   O peration     | Website:  https://openfoam.org
    \\  /    A nd           | Version:  13
     \\/     M anipulation  |
\*---------------------------------------------------------------------------*/
FoamFile
{
    format      ascii;
    class       volVectorField;
    location    "49";
    object      U;
}
// * * * * * * * * * * * * * * * * * * * * * * * * * * * * * * * * * * * * * //

dimensions      [0 1 -1 0 0 0 0];

internalField   nonuniform List<vector> 
918
(
(0.985162 -0.000503894 0)
(0.00501296 2.96625 0)
(0.00856546 0.86936 0)
(0.979703 0.00214751 0)
(-0.0142383 2.06234 3.05505e-20)
(-0.00704711 2.94879 -2.50534e-18)
(0.81145 1.14999 4.36332e-19)
(0.216797 0.107306 -1.56022e-20)
(0.999907 -0.000282247 0)
(0.0620393 0.7828 0)
(0.0130214 0.589389 0)
(0.734753 -0.0174642 0)
(0.0111341 2.93035 0)
(0.00248968 2.79524 0)
(-0.0176565 3.15252 7.72775e-19)
(-0.0181116 1.91272 -3.11515e-22)
(0.29231 0.0344399 1.03235e-18)
(0.187229 1.15688 3.0982e-19)
(0.962751 0.00501826 0)
(-0.00606776 0.520446 0)
(0.028275 0.143121 -7.35799e-19)
(1.00198 -0.00497868 0)
(1.00022 -0.00978954 0)
(0.97573 -0.00643981 0)
(0.583357 -0.0373989 0)
(0.0155786 2.64044 0)
(-0.0149134 2.91004 9.24069e-19)
(0.0099173 0.929128 0)
(-0.00817937 1.17207 0)
(0.010287 0.908473 0)
(-0.0157848 2.60731 0)
(-0.00338832 2.11393 -2.43976e-20)
(-0.00935148 1.89128 0)
(-0.0205995 2.9876 -9.01642e-23)
(-0.0166858 3.00529 1.94701e-18)
(0.00210022 3.00017 0)
(0.870997 -0.00957866 0)
(0.404932 0.937667 1.83729e-19)
(0.792784 1.16609 -4.93038e-19)
(0.942639 1.00837 5.34914e-19)
(0.664229 1.25749 -1.0074e-19)
(0.665506 1.23793 5.82503e-19)
(0.253036 0.175831 1.52213e-20)
(0.230158 0.0809286 0)
(1.14349 0.554471 0)
(0.221342 0.167408 6.94365e-20)
(0.188557 0.105845 -7.20523e-20)
(0.919829 -0.00744411 0)
(1.00026 0.000156571 0)
(0.99991 0.000335952 0)
(1.00363 -0.0077674 0)
(1.00096 -0.000920541 0)
(1.00017 3.26128e-05 0)
(0.0755879 1.81745 -7.96526e-19)
(0.0292471 0.976778 0)
(0.0949313 0.853335 0)
(0.0134544 0.930703 0)
(0.0361389 0.713494 0)
(0.00989476 2.00349 0)
(-0.000684178 0.829393 0)
(0.00948514 0.600298 0)
(0.000465074 0.818364 0)
(0.0100734 0.578389 0)
(0.839944 -0.0158624 0)
(0.844166 0.0302011 0)
(0.767596 -0.00642144 0)
(0.812187 0.0400225 0)
(0.704963 -0.01971 0)
(0.0146856 3.00041 9.29187e-19)
(0.0114918 3.00807 0)
(0.0061056 3.00276 0)
(0.0135474 2.99738 1.05494e-23)
(0.0079611 2.95847 -1.381e-18)
(0.0145006 2.98201 0)
(0.0108816 2.90355 0)
(0.0242435 2.93066 2.12608e-24)
(0.00466546 2.82527 0)
(0.0307429 2.91656 0)
(-0.00484507 2.74535 0)
(0.307271 3.54799 0)
(-0.13171 3.62916 0)
(0.138936 3.24287 -7.19146e-19)
(-0.0131576 2.97955 0)
(-0.0175578 1.98834 0)
(-0.0073114 2.16854 3.07247e-22)
(-0.0110916 1.91739 -9.34414e-21)
(0.392414 0.144278 -3.57719e-19)
(0.308694 0.0200437 -3.46424e-19)
(0.362811 0.152965 -1.07461e-18)
(0.269356 0.0410387 -7.05128e-19)
(0.225832 0.970143 0)
(0.268419 1.30264 -3.63195e-19)
(0.361147 1.23327 6.0513e-19)
(0.98746 0.00855714 0)
(0.941907 0.00583394 0)
(1.0003 0.00057865 0)
(1.00286 0.00930665 0)
(1.00302 0.00846339 -2.77108e-18)
(0.991912 0.00969892 2.09262e-18)
(-0.00364823 0.804609 0)
(-0.0023667 0.529649 0)
(-0.0334883 0.991667 0)
(-0.0210099 0.833537 0)
(0.00260707 0.513556 0)
(0.0499095 0.146365 2.27295e-19)
(0.114904 0.120499 0)
(0.993545 -0.00837797 0)
(0.954437 -0.00652414 0)
(0.757483 0.0467005 0)
(0.692752 0.0572303 0)
(0.664286 -0.0316566 0)
(0.965846 -0.00794931 0)
(0.607049 0.0762492 0)
(0.44443 -0.0109807 1.54779e-18)
(-0.0370124 2.86234 6.89483e-19)
(0.0411395 2.90989 0)
(0.0539779 2.88573 0)
(-0.00440135 2.70021 0)
(-0.0130781 2.9852 8.75819e-19)
(-0.0179075 2.89509 0)
(-0.0154107 2.98805 -2.71392e-18)
(-0.0132735 2.92519 9.28974e-19)
(-0.0116036 1.34223 0)
(0.00816418 1.3718 0)
(-0.0084985 2.13361 3.04976e-22)
(-0.00617675 2.09609 0)
(-0.0205789 1.90351 0)
(0.938266 -0.00754187 0)
(0.856897 -0.00986414 0)
(0.863338 0.00602637 0)
(0.949381 -0.00792109 0)
(0.883829 -0.00815028 0)
(0.516829 1.13099 -2.31903e-19)
(0.566002 1.18201 0)
(0.369209 0.882615 3.41975e-20)
(0.311441 0.741512 0)
(0.903316 1.04759 -1.46895e-19)
(1.01872 0.856404 2.94966e-19)
(0.352972 1.35234 0)
(0.519685 1.31668 0)
(0.541909 1.26399 0)
(0.118316 0.184324 -3.03258e-19)
(0.283646 0.167601 0)
(0.252476 0.0791466 1.99093e-19)
(0.990682 0.911735 0)
(1.06399 0.767305 0)
(1.08844 0.708702 -2.29213e-19)
(1.12314 0.613745 0)
(1.17452 0.400339 5.60406e-20)
(0.957626 -0.00877458 0)
(0.96244 -0.0100837 0)
(0.901616 -0.00795748 0)
(0.984184 -0.00916473 0)
(0.974672 -0.00936533 0)
(0.937094 -0.00636645 0)
(1.00019 0.00233587 0)
(1.0009 0.00141039 0)
(0.99991 0.000852459 0)
(0.03501 2.06946 4.40411e-19)
(0.120005 1.76051 0)
(0.0172018 2.18398 6.82733e-19)
(0.0482915 1.87134 -5.73964e-19)
(0.101968 1.16493 -2.53564e-19)
(0.0447979 1.05172 0)
(0.142476 1.00608 0)
(0.00850481 0.88923 0)
(0.0148918 0.663522 0)
(-0.000769692 2.23591 -1.06028e-21)
(0.0189067 2.00744 0)
(-0.00119739 2.23808 -4.47712e-20)
(0.0115517 2.01345 7.62832e-20)
(0.00384036 0.860556 0)
(0.00231432 0.842543 0)
(0.0080976 0.626738 0)
(0.00422116 0.809368 0)
(0.00753692 0.562981 0)
(0.936874 0.00946917 0)
(0.84795 -0.0150131 0)
(0.926482 0.000135954 0)
(0.841311 -0.0129576 0)
(0.812034 -3.38737e-05 0)
(0.9004 0.0208544 0)
(0.875725 0.0254203 0)
(0.788867 -0.00279549 0)
(0.00558354 3.06471 -8.68366e-21)
(0.0166466 3.05783 0)
(0.0146371 2.96903 0)
(0.00860175 2.87621 0)
(0.923868 3.96312 0)
(1.23801 3.29632 9.29467e-19)
(0.069494 3.0718 0)
(-0.0289739 2.90405 0)
(-0.00290685 1.39118 0)
(-0.0176637 1.69495 0)
(-0.00768847 1.52749 0)
(-0.0269399 2.56533 -9.11963e-21)
(-0.00896026 2.25193 0)
(-0.0165047 2.40158 0)
(0.00395644 1.94225 1.35816e-21)
(-0.00359229 2.23752 6.64413e-21)
(-0.00500383 2.20244 9.37235e-21)
(-0.00387704 1.92933 0)
(0.432656 0.126797 5.43349e-19)
(0.352806 0.0113492 -5.33362e-19)
(0.260003 1.58149 0)
(0.27394 0.743864 -3.16626e-19)
(0.177037 1.66758 -1.0586e-18)
(0.226624 1.20981 1.06106e-18)
(0.902141 0.00643094 0)
(0.96746 0.0110859 0)
(0.974587 0.0107876 0)
(0.923382 0.00644016 0)
(-0.00303402 0.809781 0)
(0.00258958 0.80556 0)
(0.00556126 0.541102 0)
(0.189088 0.158782 6.40989e-19)
(0.157323 0.14487 -7.57364e-19)
(0.155609 0.11078 0)
(1.09151 0.0842914 2.80895e-20)
(1.07377 0.0383176 0)
(1.00799 0.039046 0)
(0.903492 -0.00643456 0)
(0.475872 0.107586 0)
(0.527472 0.0875862 -2.47474e-18)
(0.394927 0.00679203 9.26562e-19)
(0.00884289 2.98057 7.37194e-19)
(-0.0332008 2.86521 4.59083e-20)
(0.00366097 3.05023 -1.83716e-20)
(0.0201859 3.04338 6.53578e-19)
(-0.0149972 2.99657 3.04951e-20)
(-0.0129718 2.94948 -1.22653e-22)
(-0.0172715 3.01192 -5.63762e-19)
(0.0148985 3.02371 4.08099e-19)
(0.00739882 3.03685 -6.47127e-19)
(0.933252 -0.0014759 0)
(0.938978 -0.0034258 0)
(0.845125 -0.00940405 0)
(0.956633 0.0118306 0)
(0.942863 0.0131147 0)
(0.881685 0.00597222 0)
(0.917524 0.0168203 0)
(0.926227 0.0148376 0)
(0.838568 0.00302258 0)
(0.71956 1.40863 3.76015e-20)
(0.752837 1.51742 0)
(0.186217 0.323783 7.18932e-20)
(0.223521 0.665246 5.8031e-19)
(0.262055 0.722277 -3.3801e-19)
(0.265893 0.531878 6.71918e-19)
(0.340443 0.801003 1.59452e-18)
(0.137248 0.22623 3.75057e-19)
(0.334956 0.163938 7.47809e-19)
(0.31065 0.168091 1.95206e-19)
(0.260259 0.0601832 3.71205e-19)
(1.16369 0.457883 4.69045e-20)
(1.18098 0.253292 4.1981e-20)
(0.00916173 2.23099 2.66282e-19)
(0.043009 1.93812 0)
(0.967366 0.0287164 0)
(0.941061 0.0134813 0)
(0.866192 -0.0183812 0)
(0.0113168 3.07446 0)
(0.0197139 2.94401 1.19856e-18)
(0.0164379 2.95637 0)
(0.00632 2.85063 -1.18914e-18)
(0.00619603 3.09084 2.91037e-19)
(0.00721217 3.08246 0)
(0.785771 1.81953 -1.59175e-19)
(1.24588 2.49634 4.05191e-19)
(0.767836 1.95901 -1.23396e-18)
(0.020014 2.98112 -6.37154e-19)
(0.035496 3.00059 0)
(-0.0340731 2.87789 0)
(-0.00312438 2.21819 -1.30467e-20)
(-0.00296708 2.24059 -1.87619e-20)
(0.00572097 1.97568 -7.55687e-21)
(0.277032 1.38927 1.02988e-18)
(0.232768 0.533483 -7.06415e-19)
(0.0633182 1.99419 7.75448e-19)
(0.135809 1.88184 -9.22042e-19)
(0.180095 1.50217 9.31992e-20)
(0.0016708 3.11909 -1.81657e-18)
(0.0146669 3.1185 1.95638e-18)
(-0.00898762 2.98119 8.05834e-19)
(-0.00392381 2.97752 -7.62236e-19)
(-0.0210308 2.88111 -8.20724e-19)
(0.00863899 3.10017 -2.16607e-18)
(0.00235415 3.10549 2.12475e-18)
(0.277793 0.690797 0)
(0.243955 0.680525 -1.19992e-18)
(0.0966236 0.225486 5.32415e-19)
(0.353878 0.926772 1.11322e-18)
(0.192413 0.271034 -1.71637e-18)
(1.17531 0.17227 6.82555e-20)
(1.1816 0.307274 0)
(1.16372 0.120758 -1.32085e-20)
(0.000785774 2.24747 -1.70632e-21)
(0.00366157 2.24014 0)
(0.0276253 1.97374 0)
(0.340124 1.29807 -3.70381e-19)
(0.371587 1.13807 -8.02256e-19)
(0.206606 0.370467 1.42905e-18)
(1.00587 -0.0108482 0)
(1.00766 -0.00764459 5.11337e-19)
(-0.00962316 1.32066 0)
(-0.0254555 1.31044 0)
(1.00222 0.00350545 1.80648e-21)
(1.00367 0.00945648 1.04378e-18)
(-0.0180208 2.54847 1.15548e-20)
(-0.0231173 2.59103 0)
(0.0350285 3.17781 4.25124e-19)
(0.393643 3.48797 0)
(1.16692 0.654662 -6.44829e-20)
(1.01289 0.0131029 -2.14494e-21)
(1.02128 -0.0103456 0)
(1.0017 0.000119496 7.49291e-23)
(0.103041 1.35994 0)
(0.143976 2.57545 0)
(0.0225911 1.30431 0)
(-0.00037988 2.62373 4.36745e-20)
(-0.0204004 2.58002 1.74664e-20)
(1.0004 0.0292281 2.50988e-21)
(1.06231 0.00407662 0)
(1.09599 0.0239319 0)
(-0.0200016 1.73443 0)
(-0.0163733 2.58654 0)
(0.00286389 1.30487 0)
(0.298802 1.47286 -1.62414e-19)
(1.01128 -0.00963992 0)
(1.00939 -0.0149195 0)
(1.00237 0.000736112 6.53401e-19)
(1.00547 -0.00481662 -7.67989e-19)
(1.00118 -0.000991186 0)
(-0.00306979 1.45767 0)
(-0.000680074 1.3675 0)
(0.00162048 1.41443 0)
(-8.00622e-05 1.29277 0)
(-0.00827176 1.27258 0)
(0.000362055 1.25562 0)
(1.03477 -0.006245 0)
(1.02017 0.0156549 -8.76753e-22)
(0.812116 1.26432 2.5033e-19)
(1.00224 0.000306813 -6.51049e-19)
(1.00407 0.00524862 7.61962e-19)
(1.00117 0.00206496 0)
(1.01277 0.0103202 6.47776e-19)
(1.008 0.00829652 -7.8478e-19)
(1.00858 0.0146868 0)
(-0.0222192 2.61622 0)
(-0.0242603 2.59763 -1.26959e-20)
(-0.0218776 2.61068 8.89816e-21)
(1.2318 0.262993 6.05547e-19)
(1.1583 0.0847757 0)
(0.0417033 3.07727 -9.42002e-19)
(0.0649935 2.85473 -6.84955e-20)
(0.140162 3.19217 1.44222e-18)
(0.13516 3.22079 -2.08389e-19)
(0.133795 3.23235 0)
(0.0200279 3.13754 2.43553e-19)
(0.075608 3.15997 9.29166e-19)
(0.0681354 3.18572 -4.58884e-19)
(0.0225768 3.12964 0)
(0.614259 0.278256 0)
(0.542258 0.320127 0)
(1.13668 0.690382 1.52665e-19)
(1.13217 0.810904 -1.43467e-19)
(1.1937 0.578195 0)
(1.22183 0.513449 0)
(1.01611 0.0133324 -1.20755e-18)
(1.01499 0.0142635 1.51576e-18)
(1.02527 -0.00988858 0)
(1.02334 -0.0119114 0)
(1.00643 0.00258959 0)
(1.01041 0.00370498 0)
(1.00457 0.00184832 0)
(1.0098 0.0062027 0)
(1.00783 0.00594998 0)
(1.00451 0.0046776 0)
(0.0916821 1.35723 0)
(0.0857476 1.3269 0)
(0.122638 1.39341 0)
(0.137637 1.40328 0)
(0.144766 2.60028 0)
(0.185247 2.66872 -4.33682e-19)
(0.100295 2.65616 0)
(0.0846228 2.65831 2.08084e-19)
(0.0380309 2.67919 -1.69382e-19)
(0.016392 1.31394 0)
(0.0209723 1.24725 0)
(0.0199354 1.32736 0)
(0.0329617 1.26875 0)
(0.00166909 1.98161 -1.22168e-20)
(-0.0192624 2.60803 -2.05494e-21)
(-0.00866029 2.66495 3.36399e-20)
(-0.0177341 2.68389 0)
(-0.0215883 2.61411 -3.92307e-20)
(-0.021409 2.60902 -7.86719e-21)
(0.010819 1.98031 1.17079e-20)
(-0.00635989 2.39491 2.75717e-21)
(-0.0131276 2.41732 -3.81554e-20)
(1.01054 0.0371311 1.23223e-18)
(1.00584 0.0161656 -1.52209e-18)
(1.00169 0.0443503 -1.23325e-18)
(0.978347 0.0220869 1.57374e-18)
(1.06354 0.00787073 0)
(1.04883 -0.00854267 0)
(1.09304 0.0340295 0)
(1.07341 0.0122554 0)
(1.07119 -4.3227e-05 0)
(1.13861 0.0813414 0)
(1.10998 0.0434251 0)
(1.11312 0.0314095 0)
(-0.0208306 2.43803 2.72817e-22)
(-0.00592925 2.01082 0)
(-0.0105086 2.21892 0)
(-0.0182415 2.60694 -3.84096e-21)
(-0.0160254 2.61588 -1.00139e-22)
(0.0093543 1.56568 -2.24957e-20)
(0.00275181 1.49541 2.29e-20)
(-0.00626189 1.38592 0)
(-0.00856029 1.3922 0)
(-0.00990264 1.3865 0)
(0.00366233 1.30654 0)
(0.013814 1.23698 0)
(0.378437 1.48915 2.62786e-19)
(0.419114 1.49151 1.41258e-19)
(0.59809 2.45066 -2.40939e-19)
(0.400612 2.54582 7.11088e-19)
(0.351267 2.06413 7.28598e-20)
(1.02101 -0.00817385 0)
(1.01548 -0.00977982 0)
(1.01489 -0.0155101 0)
(1.00743 -0.00113922 0)
(1.00493 -0.000931986 0)
(1.00777 -0.00473485 0)
(1.00925 -0.00368086 0)
(1.01418 -0.00444235 0)
(1.02091 0.016172 1.1825e-18)
(1.01788 0.0156409 -1.51413e-18)
(1.02129 0.0181543 -1.1914e-18)
(1.0191 0.0168562 1.48864e-18)
(0.774359 1.31494 0)
(0.71021 1.36573 2.35439e-19)
(0.888086 1.21369 8.81876e-20)
(0.933964 1.15966 -1.17335e-19)
(1.15774 2.6055 2.89265e-19)
(0.788116 0.116921 6.03782e-19)
(1.16097 0.106593 0)
(1.20825 0.191099 -4.86739e-19)
(1.19424 0.152869 -2.06415e-20)
(1.00525 0.152885 0)
(0.132459 2.95942 5.52279e-19)
(0.109455 2.86515 -1.19572e-18)
(0.0191149 2.37521 8.02892e-19)
(0.0904536 -0.0760606 -3.54492e-19)
(0.33851 3.41748 -2.08165e-19)
(0.192727 3.31081 0)
(0.23625 3.35213 2.71101e-19)
(0.242436 3.03247 -1.82929e-18)
(0.337059 3.19155 0)
(0.00685489 3.12094 4.73023e-20)
(0.0162134 3.12984 -5.57278e-19)
(0.0149725 3.12591 8.20212e-19)
(0.035474 3.13985 0)
(0.0338949 3.15043 0)
(1.2147 2.60392 0)
(0.544262 0.820453 -5.35417e-19)
(1.05801 0.983198 1.65739e-21)
(0.992891 1.06754 0)
(0.845992 0.96816 -1.14845e-19)
(1.08299 0.884276 2.84048e-20)
(0.350874 0.366623 -9.12288e-19)
(0.671063 0.312789 -1.99549e-20)
(0.614554 0.218936 4.2462e-19)
(0.56641 0.354513 3.12987e-20)
(0.472548 0.314336 -1.25919e-18)
(0.637932 0.322072 0)
(0.700403 0.415905 7.21286e-19)
(0.708854 0.4191 0)
(0.600376 0.346461 0)
(0.550428 0.262185 0)
(0.810259 0.61533 4.25525e-19)
(1.23175 0.284986 -5.11545e-19)
(1.23037 0.423067 0)
(1.24036 0.363307 0)
(0.723773 0.189783 6.30571e-19)
(0.85717 0.541085 -3.91019e-19)
(0.754786 0.511533 6.93537e-19)
(0.952231 0.434272 -7.62137e-19)
(1.0195 0.0148117 8.1201e-19)
(1.01773 0.0142764 -8.17083e-19)
(1.01592 0.0154734 0)
(1.03622 -0.00578783 0)
(1.02973 -0.00849062 -7.65559e-19)
(1.02777 -0.0120417 7.5798e-19)
(1.02495 0.0101302 0)
(1.02353 0.0138061 0)
(1.01141 0.00409879 0)
(1.01424 0.00906879 0)
(1.01514 0.00404771 0)
(1.01424 0.00281464 0)
(0.0630794 1.34233 0)
(0.0653908 1.29718 0)
(0.143276 1.36879 -1.83121e-21)
(0.271883 1.46962 8.38557e-20)
(0.164948 1.44069 1.7453e-19)
(0.196967 1.4476 -2.85745e-19)
(0.164705 1.39379 0)
(0.13104 1.59549 -8.11962e-20)
(0.11486 1.56959 0)
(0.34896 2.01624 -1.05925e-19)
(0.344699 2.34879 6.2569e-19)
(0.18813 1.45345 7.07964e-20)
(0.261391 1.38395 1.98384e-20)
(0.196875 1.3732 -1.60603e-20)
(0.272417 1.32708 -1.08457e-19)
(0.240187 1.57834 0)
(0.262802 1.61757 1.16693e-19)
(0.0294494 2.26538 -3.52168e-20)
(0.0424075 2.66901 0)
(0.0646775 2.40235 1.46961e-19)
(0.0608228 2.42277 0)
(0.0686732 2.6717 -2.30494e-19)
(0.048529 2.69909 0)
(0.0269003 1.41887 1.28512e-20)
(0.0330863 1.47078 0)
(0.0283358 1.38803 0)
(0.023414 1.39106 -1.45e-20)
(4.13332e-05 2.6516 -1.68876e-20)
(0.0288991 2.6974 1.92597e-19)
(0.010096 2.7215 1.36058e-21)
(0.00288912 1.82925 1.15912e-20)
(-0.0033162 1.6817 4.03748e-21)
(0.0142417 1.29583 0)
(0.0173295 1.21962 0)
(0.0453156 1.57863 -4.65439e-21)
(0.02835 1.4533 -1.04202e-20)
(0.035484 1.5178 1.30611e-20)
(0.0380952 1.60261 0)
(-0.0253435 2.26838 6.44565e-20)
(-0.0259863 2.55201 -2.64982e-20)
(-0.0133531 2.44649 -2.79975e-23)
(-0.00138761 1.84543 -1.4049e-20)
(-0.0228986 2.49823 -4.45286e-21)
(-0.0189913 2.44093 2.63042e-20)
(1.01918 0.0210164 -8.07277e-19)
(1.01519 0.0267969 8.12077e-19)
(1.01422 0.0162208 0)
(1.01227 0.0710428 1.1404e-18)
(0.989633 0.0597417 -1.28353e-18)
(0.946872 0.0444391 1.43751e-18)
(1.01362 0.109364 -1.51996e-19)
(1.04255 -0.0058248 0)
(1.05077 -0.00158513 7.30546e-19)
(1.03884 -0.00993991 -7.32026e-19)
(1.07071 0.0416182 -4.35012e-20)
(1.06422 0.0232008 3.74968e-19)
(1.06325 0.0555035 0)
(1.0532 0.048834 -1.34794e-19)
(1.03244 0.0419216 0)
(1.0257 0.0383304 0)
(1.02782 0.0131247 0)
(1.02408 0.0158787 0)
(1.03989 0.0318686 2.77546e-19)
(1.0388 0.0265691 -6.13317e-19)
(1.0508 0.0335024 -2.94277e-19)
(1.0481 0.0335259 -3.24037e-19)
(1.07058 0.0631944 6.32932e-19)
(1.09569 0.0513144 0)
(1.10391 0.0946559 0)
(-0.0194754 2.274 4.13146e-20)
(-0.0162998 2.01515 -3.40775e-22)
(-0.0128299 2.02161 0)
(-0.0235434 2.44812 -4.1117e-20)
(-0.0182884 2.40534 9.04126e-23)
(-0.0290469 2.47835 3.78091e-21)
(-0.0188829 2.62256 6.44039e-21)
(-0.0197986 2.56448 -1.15101e-21)
(-0.0184521 2.51441 2.53528e-21)
(-0.013933 2.618 8.93766e-22)
(-0.0190547 2.61916 3.66389e-22)
(0.000850014 1.48288 -3.33225e-22)
(0.0102866 1.61479 -1.75932e-20)
(0.363917 1.43601 -1.10238e-19)
(0.36527 1.37333 3.98592e-20)
(0.651602 1.41597 -2.27873e-19)
(0.519137 1.48373 -1.38917e-19)
(0.57631 1.44977 0)
(0.593844 2.42754 2.08309e-19)
(0.661506 2.42113 3.39238e-19)
(0.411152 2.51783 8.63392e-20)
(0.402779 2.54357 -6.21857e-19)
(0.511218 2.48666 6.17731e-19)
(0.553469 2.46444 0)
(0.489283 2.52071 -5.64096e-19)
(0.247959 2.59342 1.16635e-18)
(0.354273 2.56657 -7.92634e-20)
(0.284076 2.65497 -1.60881e-18)
(0.94644 2.38057 7.31004e-19)
(0.83778 2.38534 0)
(1.01104 0.000463417 2.65099e-20)
(1.01529 -0.00544717 -2.15106e-20)
(1.01763 -0.00357691 -3.92913e-19)
(1.01499 -0.000924337 3.94996e-19)
(1.01241 0.00115306 0)
(0.640839 1.28741 0)
(0.666033 1.18467 0)
(0.777712 1.09646 0)
(0.658735 1.14767 0)
(1.18712 2.61952 5.92289e-20)
(1.07592 2.36653 0)
(0.838439 2.17704 3.85417e-21)
(0.826036 2.44251 0)
(0.923275 2.53429 -4.24728e-19)
(0.958901 2.49002 2.82607e-19)
(0.809605 0.175325 0)
(0.766565 0.14951 1.63976e-19)
(0.917226 0.146875 9.55287e-19)
(0.832265 0.148667 -3.57521e-19)
(0.794589 0.0844965 -1.10254e-18)
(1.07911 0.235571 -9.12563e-19)
(0.994836 0.29377 -1.6125e-20)
(0.929015 0.296065 8.76354e-19)
(1.00687 0.225214 7.32608e-19)
(0.951072 0.191945 -1.26736e-18)
(0.915644 0.194407 1.5839e-19)
(0.954925 0.257871 -3.37196e-19)
(0.930388 0.219704 0)
(0.992652 0.186995 6.25309e-19)
(1.0467 0.188828 0)
(1.04272 0.215618 0)
(1.10517 0.118263 2.94383e-19)
(1.07069 0.176428 -1.44852e-20)
(1.07358 0.236714 -1.60322e-19)
(1.10164 0.202977 0)
(1.02287 0.0460563 6.26131e-19)
(1.03985 0.0588784 7.80844e-19)
(1.03378 0.044456 -6.21091e-19)
(1.04262 0.0655811 -5.233e-19)
(1.01891 0.0733199 -8.01896e-19)
(0.98809 0.159675 0)
(0.998488 0.105732 0)
(0.965087 0.0675453 -5.12278e-19)
(0.910852 0.090837 2.01174e-19)
(1.03908 0.104866 7.23604e-19)
(1.06885 0.12124 -8.49163e-19)
(1.07531 0.154357 7.58408e-19)
(1.0288 0.14461 0)
(1.07458 0.10967 0)
(1.05468 0.090487 -3.47404e-19)
(1.04402 0.0954009 -5.92083e-19)
(0.583239 1.07221 1.4152e-19)
(0.610577 1.39818 -4.3022e-20)
(1.15722 2.73496 -2.29171e-19)
(1.22321 3.07678 1.9393e-21)
(1.24932 2.71826 -1.32066e-19)
(1.27855 2.70189 -2.9515e-20)
(1.20673 2.34282 -1.05989e-20)
(1.21075 2.98083 -9.43343e-20)
(1.23053 2.9462 2.36208e-19)
(1.21377 3.23013 -1.43153e-19)
(1.37408 2.96188 1.97903e-19)
(1.36381 2.88015 0)
(0.553492 0.828159 -5.04393e-20)
(0.126616 1.24201 5.77459e-19)
(0.541475 0.410364 5.90972e-19)
(0.380719 0.158613 6.49863e-19)
(0.506521 0.351621 7.11517e-19)
(0.543784 0.453959 -1.14639e-18)
(0.546316 0.453919 9.37146e-19)
(0.48593 0.365312 -3.58137e-19)
(0.391263 0.296997 8.1199e-19)
(0.730863 0.257773 -3.62163e-19)
(0.691671 0.280531 0)
(0.660992 0.199209 8.16393e-21)
(0.735189 0.505558 3.79377e-19)
(0.707384 0.473831 -1.38295e-18)
(0.614465 0.454458 1.37849e-20)
(0.620197 0.443574 0)
(0.683362 0.719881 4.04089e-19)
(0.845461 0.772828 4.08011e-19)
(0.769003 0.855075 -4.77067e-19)
(0.891534 0.809445 -1.61039e-19)
(0.921891 0.853242 -3.96697e-20)
(0.929273 0.852976 4.06241e-20)
(0.855852 0.649384 -7.05122e-19)
(0.938373 0.704834 1.49601e-19)
(0.996415 0.720086 0)
(0.987363 0.697233 -2.03691e-19)
(1.02425 0.333906 2.19595e-19)
(1.14368 0.299962 2.9969e-19)
(1.06599 0.272927 3.73332e-19)
(1.01057 0.365916 -4.42822e-19)
(1.06017 0.43192 0)
(1.11851 0.416231 0)
(0.919124 0.367866 4.69851e-21)
(0.841838 0.299476 0)
(0.881953 0.295616 4.12997e-19)
(0.909926 0.303031 -5.81114e-21)
(0.946246 0.436984 2.12391e-18)
(0.905124 0.494418 5.48515e-19)
(0.908373 0.459811 -5.83607e-19)
(0.828846 0.44437 6.2513e-19)
(0.811611 0.437222 3.7541e-19)
(0.780663 0.418661 -3.69078e-19)
(1.02729 -0.000363465 6.54564e-19)
(1.02 -5.38206e-05 0)
(1.01851 0.000879157 4.26743e-19)
(1.0217 -0.00169528 -9.66684e-19)
(1.02231 0.00432896 4.69564e-19)
(1.02037 0.0112933 -9.83444e-19)
(1.0213 0.0106775 0)
(1.0206 0.0109209 -2.04931e-19)
(1.01597 0.00772821 5.14121e-19)
(1.01668 0.0104951 -2.5652e-19)
(1.01738 0.00984382 1.88925e-19)
(0.0275654 1.31848 0)
(0.0336661 1.36114 0)
(0.0437412 1.32001 0)
(0.0462617 1.27637 0)
(0.0707033 1.38345 -2.19946e-20)
(0.0778763 1.35347 1.37873e-20)
(0.110974 1.51914 -1.95817e-20)
(0.0937316 1.36536 1.62824e-22)
(0.0330491 1.45798 -9.58971e-21)
(0.0370787 1.45076 7.57762e-21)
(0.062312 1.36795 -7.92796e-21)
(0.0544111 1.36973 2.44013e-20)
(0.0479873 1.34557 3.4567e-21)
(0.0383621 1.36917 1.67537e-22)
(0.106186 2.37337 -1.62328e-19)
(0.0950822 2.42012 0)
(0.169664 2.04827 1.11619e-19)
(0.109202 1.70897 4.42015e-20)
(0.230928 2.04376 -9.19172e-20)
(0.203277 2.4368 0)
(0.264303 2.38733 -6.09672e-19)
(0.303396 2.38517 4.31855e-19)
(0.229774 2.00408 -2.55558e-19)
(0.153284 2.16457 1.7153e-19)
(0.142343 2.27542 0)
(0.0161467 1.87721 -1.88917e-20)
(-0.00186251 2.39511 -6.57316e-20)
(0.00388809 2.14974 0)
(0.00971849 2.4579 -1.34317e-20)
(0.025779 2.30281 2.09297e-20)
(0.0162821 1.39987 -3.10961e-21)
(0.0161649 1.38582 5.50865e-20)
(0.0162168 1.3908 -1.99569e-20)
(0.0206578 1.39129 -1.33229e-20)
(0.0260695 1.42263 0)
(0.0134842 1.37321 0)
(0.00684118 1.29131 -2.35994e-20)
(0.0127285 1.36358 6.20706e-21)
(0.0145076 1.36428 0)
(0.00980923 1.28263 -1.66246e-20)
(0.0181675 1.21453 3.52948e-20)
(1.04054 0.0115453 0)
(1.04656 0.00782109 -6.85465e-20)
(1.03854 0.021537 -4.94427e-19)
(1.04819 0.0203895 0)
(1.05205 0.0202335 0)
(1.03626 0.0117055 -6.70818e-21)
(1.03096 0.011549 7.94361e-19)
(1.03172 0.016436 9.62806e-19)
(1.02567 0.0203254 0)
(1.02273 0.0207206 0)
(1.03509 0.0252777 4.92968e-19)
(1.02593 0.0265078 0)
(1.02409 0.0265344 0)
(-0.01477 2.01682 0)
(0.00777665 1.64538 -3.50228e-21)
(-0.000160346 1.75192 -2.33199e-20)
(0.00523879 1.37516 0)
(-0.00188459 1.54499 -7.18385e-21)
(-0.00100317 1.45259 5.95948e-21)
(0.000945967 1.38628 0)
(0.392138 1.66432 0)
(0.368915 1.30269 -7.59964e-20)
(0.30325 1.34394 0)
(0.422745 1.30416 1.47042e-20)
(0.46813 1.46112 0)
(0.449461 1.40709 2.0536e-20)
(1.03663 2.68343 -1.55006e-20)
(0.967474 2.40998 -9.18939e-19)
(0.919517 2.19481 1.04157e-18)
(0.851497 2.37737 2.43092e-19)
(0.848298 2.49441 0)
(0.91826 2.49021 0)
(0.929755 2.37429 0)
(0.90855 2.36252 -9.47039e-19)
(0.689388 2.46081 -3.97106e-19)
(0.801651 2.45052 -9.8166e-20)
(0.812424 2.42436 7.47011e-20)
(0.695967 2.3948 0)
(0.800702 2.39024 0)
(0.759178 2.40313 -3.69566e-19)
(0.769166 2.48477 0)
(0.626349 1.09805 0)
(0.48552 0.917072 -5.09013e-19)
(0.561686 0.953585 -3.23241e-20)
(0.524554 1.05045 0)
(0.524998 0.9969 7.63861e-19)
(0.79152 0.879282 -1.33963e-19)
(0.801262 1.01631 0)
(0.775629 0.97982 1.93256e-19)
(0.660395 1.03459 0)
(0.663488 0.938628 0)
(1.16557 2.75761 -2.33355e-19)
(1.14326 2.82083 -9.90284e-20)
(0.932337 2.33853 1.03467e-19)
(0.900051 2.31802 -8.42961e-20)
(1.13085 2.73116 0)
(1.08436 2.70103 1.01456e-19)
(1.09097 2.48511 -3.18726e-19)
(0.985771 2.23635 -3.07304e-20)
(0.498922 1.3482 0)
(0.513584 1.0747 -1.24806e-19)
(0.574334 1.17153 0)
(0.857776 0.23771 0)
(0.778351 0.190652 0)
(0.71249 0.152305 0)
(0.850488 0.238245 -6.50056e-19)
(0.751586 0.227655 3.78377e-19)
(0.927422 0.0772507 -4.15382e-19)
(0.94197 0.124221 0)
(0.922582 0.13722 1.78294e-19)
(0.859361 0.111954 7.15503e-19)
(0.826033 0.0693764 -4.47733e-19)
(1.15987 3.35531 -7.19644e-19)
(1.20826 3.27465 0)
(1.15778 3.3838 -1.48624e-18)
(0.645613 3.54481 1.26207e-18)
(0.869281 3.11284 7.0065e-20)
(0.521022 0.829509 6.08577e-19)
(0.431488 0.827095 0)
(0.324803 0.447188 -1.52373e-19)
(0.458199 0.665002 8.68825e-19)
(0.543555 0.413794 -2.05494e-19)
(0.51162 0.484016 2.37786e-19)
(0.665754 0.51624 5.11737e-19)
(0.699326 0.547021 0)
(0.651744 0.591249 0)
(0.609736 0.535098 0)
(0.998469 0.606988 9.63363e-20)
(0.911432 0.543549 -5.33554e-19)
(0.937762 0.576593 4.04327e-19)
(0.969389 0.515033 -4.12492e-19)
(1.07808 0.487932 0)
(1.0861 0.57785 -1.02081e-19)
(0.85144 0.39726 -8.5693e-19)
(0.854132 0.38593 -1.0586e-18)
(0.794235 0.38532 6.68349e-19)
(0.796389 0.357807 -6.82796e-19)
(0.844939 0.319266 -5.34657e-19)
(0.79412 0.317776 6.55925e-19)
(1.02666 0.00580615 -5.00012e-19)
(1.02639 0.00602733 1.01764e-18)
(1.02931 4.88229e-06 6.34492e-19)
(1.0335 0.000918759 -7.64178e-19)
(1.0336 0.00883423 0)
(1.03004 0.00950965 -1.2438e-18)
(0.0613573 1.6435 2.39279e-20)
(0.0443911 1.57869 0)
(0.0844642 1.69379 1.44303e-19)
(0.0947492 1.67561 -1.27347e-19)
(0.0877872 1.53268 3.67202e-20)
(0.0856792 1.52036 0)
(0.011768 1.67672 0)
(-0.00194093 1.48289 7.24873e-22)
(0.00135831 1.42839 -6.51527e-22)
(-0.00201356 1.54057 6.31726e-21)
(0.00410225 1.87622 -7.34147e-23)
(-0.00676765 1.93066 3.60399e-21)
(0.499226 1.37016 -2.78207e-19)
(0.492518 1.37309 3.05408e-19)
(0.449544 1.29972 -3.45461e-20)
(0.437635 1.29372 8.02741e-21)
(0.632207 1.30384 0)
(0.54731 1.39199 9.83586e-20)
(0.562766 1.39897 -9.57801e-20)
(0.461201 1.28607 3.3587e-20)
(0.51754 1.24104 0)
(0.56992 1.20751 0)
(0.656289 2.42017 5.8346e-19)
(0.671164 2.4603 1.27192e-18)
(0.715933 2.47085 -8.76084e-19)
(0.61257 2.44538 -2.03221e-19)
(0.561142 2.53679 2.85524e-19)
(0.509811 2.51037 -7.61534e-19)
(0.978195 2.3801 -5.82803e-19)
(1.01386 2.39288 0)
(0.925674 2.1728 -6.73218e-19)
(1.0548 2.68042 0)
(1.05708 2.6672 0)
(0.607447 2.26677 -1.21151e-19)
(1.04099 3.15893 1.32775e-19)
(0.911948 3.02912 -3.64014e-20)
(0.275258 0.885266 0)
(0.308653 0.738153 -3.20259e-19)
(0.473945 0.695715 -3.23095e-19)
(0.384593 2.01256 0)
(0.464984 2.7825 -4.87745e-20)
(0.419994 2.54598 0)
(0.702152 0.669014 -8.55568e-19)
(0.784019 0.677316 1.15763e-18)
(0.804968 0.620726 -1.14483e-18)
(0.680805 0.632029 -1.10312e-19)
(0.735655 0.588604 -4.54877e-19)
(1.00382 2.76053 -1.00969e-19)
(1.04277 2.81852 -1.66038e-19)
(0.637045 2.13685 6.80131e-19)
(0.592998 1.70634 -4.84865e-19)
(0.698635 1.90049 -4.08164e-19)
(0.989973 2.44401 -1.1396e-19)
(0.995801 2.43637 2.98933e-19)
(0.657352 1.83621 2.82897e-20)
(0.449345 1.32721 1.46185e-19)
)
;

boundaryField
{
    wall-4
    {
        type            noSlip;
    }
    velocity-inlet-5
    {
        type            fixedValue;
        value           uniform (1 0 0);
    }
    velocity-inlet-6
    {
        type            fixedValue;
        value           uniform (0 3 0);
    }
    pressure-outlet-7
    {
        type            zeroGradient;
    }
    wall-8
    {
        type            noSlip;
    }
    frontAndBackPlanes
    {
        type            empty;
    }
}


// ************************************************************************* //
