/*--------------------------------*- C++ -*----------------------------------*\
  =========                 |
  \\      /  F ield         | OpenFOAM: The Open Source CFD Toolbox
   \\    /   O peration     | Website:  https://openfoam.org
    \\  /    A nd           | Version:  13
     \\/     M anipulation  |
\*---------------------------------------------------------------------------*/
FoamFile
{
    format      ascii;
    class       surfaceScalarField;
    location    "73";
    object      phi;
}
// * * * * * * * * * * * * * * * * * * * * * * * * * * * * * * * * * * * * * //

dimensions      [0 3 -1 0 0 0 0];

internalField   nonuniform List<scalar> 
1300
(
3.75095
5.62643
-3.31988
3.75095
-7.73426
5.62643
-4.39398
4.39398
-0.343282
0.343282
1.87639
1.87457
-2.6893
2.6893
-2.06119
2.06119
-2.52266
2.52266
-5.24639
5.24639
-5.06907
5.06907
4.65332
-4.65332
-6.31521
6.31521
-0.939115
0.939115
-3.68442
3.68442
3.1696
-3.1696
-2.04638
2.04638
0.0516126
-0.0516126
-0.553472
4.30442
3.19748
3.19748
-2.01281
2.01281
-4.86848
4.86848
6.21793
-6.21793
5.29918
-5.29918
-1.9793
-2.4575
1.78623
-11.4981
-5.94803
-5.94803
-8.44037
8.44037
-2.81394
2.81249
2.94633
-2.94633
-1.77193
1.77193
-4.3563
-0.0376744
-4.3563
4.36381
0.0301712
4.36381
-0.443259
0.099977
-0.443259
4.00036
-4.00036
0.25099
0.0922921
0.25099
3.06537
-3.06537
-1.87712
3.7535
1.87384
-1.8719
6.17632
-1.87905
3.75362
-6.01413
6.01413
-2.93422
0.244922
-2.93422
2.47604
0.213259
2.47604
-6.85055
6.85055
-2.09745
0.0362659
-2.09745
2.03423
0.0269557
2.03423
2.88161
-2.88161
-2.62951
0.106848
-2.62951
2.39214
0.130525
2.39214
0.353513
5.27292
-5.97994
8.79243
-5.27292
0.0265315
5.20828
0.0381037
5.20828
-5.10604
0.036966
-5.10604
5.0133
0.0557731
5.0133
4.73842
-0.0851033
4.73842
-4.77183
0.118519
-4.77183
-3.38607
-4.0515
-6.46621
0.150998
-6.46621
-1.03244
0.0933286
-1.03244
0.822335
0.11678
0.822335
-3.68624
3.68624
-4.10511
0.420692
-4.10511
3.12396
0.0456409
3.12396
1.86849
1.88246
5.61944
-5.61944
2.44984
-2.01361
-0.032771
-2.01361
-2.11711
-3.18207
2.11711
-0.0707302
-0.170642
0.222254
-0.170642
3.15944
0.0380399
3.15944
2.23645
0.15569
-2.23645
0.223641
3.27756
-3.27756
1.33893
0.67388
1.33893
-5.56445
5.56445
4.9564
0.0568939
-4.9564
0.0879209
6.15651
0.0614193
6.15651
-6.19956
-0.0183694
-6.19956
2.531
-4.9885
-2.62551
6.13246
0.182753
-6.13246
0.184428
2.91829
0.0280463
2.91829
-2.91952
2.91952
-2.98478
0.0384448
-2.98478
-2.17046
0.398532
-2.17046
1.47367
0.298258
1.47367
-4.25813
-0.0981704
-4.25813
-4.25344
0.148335
4.25344
0.110363
1.13038
-1.13038
-0.579646
0.136387
-0.579646
-4.12379
-0.134339
4.12379
-0.123435
-3.88995
-0.110413
-3.88995
-3.02457
0.0397936
3.02457
0.0407986
3.11289
0.0465484
-3.11289
0.0475231
-1.87082
3.75328
-1.88014
3.75397
-5.63456
-0.379562
-5.63456
6.32507
-0.310947
6.32507
3.32638
0.358037
-3.32638
0.392157
2.30511
0.170931
2.30511
-6.81186
-0.038694
-6.81186
6.83625
0.0142967
6.83625
2.18008
0.125032
-2.18008
0.0826231
2.01498
0.0192493
2.01498
2.90171
-0.0201032
2.90171
-2.87567
-0.00594144
-2.87567
2.79244
-2.79244
2.71711
0.0753333
-2.71711
0.0875976
-11.1329
11.1146
-0.0350595
-11.0979
5.17322
5.17322
4.16504
0.57338
4.16504
-4.9906
0.218767
-4.9906
2.68322
-5.30873
3.06808
-6.45415
4.66302
-16.1611
4.30216
-8.35366
6.70467
-6.70467
6.59452
0.110151
-6.59452
0.128312
-1.15074
0.118291
-1.15074
-3.08446
-0.601784
-3.08446
4.32808
-0.641834
4.32808
-3.02812
3.02812
-3.07741
0.0492912
3.07741
0.0465477
2.00333
0.0116498
-2.00333
-0.0102772
0.196676
0.0543144
-0.196676
0.0260344
3.49119
-0.213634
3.49119
-3.07903
-0.198532
-3.07903
-1.2492
0.0984615
1.2492
0.08973
-5.81314
0.248688
-5.81314
-11.1909
0.0929945
-11.1528
-6.10656
-6.10656
2.33381
11.1262
-2.89361
0.0179498
2.89361
0.0246717
2.97518
0.0529369
-2.97518
0.0556597
-2.85916
0.0667212
2.85916
0.0603613
-2.54504
0.374581
-2.54504
-1.07268
1.07268
-1.23781
0.165134
1.23781
0.235858
1.40259
-0.272208
1.40259
0.706335
0.116
-0.706335
0.126689
-3.78987
-0.100078
-3.78987
6.56021
-0.235141
6.56021
-2.96387
-0.115152
2.96387
-0.062165
-0.033358
11.1479
-5.13986
0.0338273
5.13986
-11.2093
11.2432
-3.21548
0.670432
3.21548
0.949564
5.28474
0.279704
-5.28474
0.294142
6.78752
0.0487391
-6.78752
0.0828465
-2.59196
-0.492498
-2.59196
-5.0531
-0.581462
5.0531
-0.725023
-11.4738
-0.205445
11.6793
-11.4181
6.01858
0.137926
-6.01858
11.3811
-1.03088
-0.0995031
1.03088
0.0417999
1.73016
-0.327569
1.73016
3.68785
-0.196654
-3.68785
-0.10202
-6.71469
-0.0971648
6.71469
-0.154479
-2.14715
-0.444811
2.14715
-0.416991
-4.26712
4.30516
1.9092
-2.38522
-2.60328
-5.56729
1.85185
1.90143
4.30169
-10.1429
-6.01819
-9.95847
7.26197
-6.96782
-9.24137
9.15627
7.89398
-8.00439
-5.78482
5.83137
6.48291
-6.44212
1.87882
1.87469
8.0208
-7.77588
-15.5932
15.2136
7.55493
-7.51866
15.7401
-15.7788
-17.8197
17.8685
-5.70617
5.81302
-6.74046
6.73452
-6.976
6.91384
-2.83979
-3.61436
13.0971
-12.9461
8.58165
-8.61442
-8.61773
9.03842
3.3826
0.922564
3.42915
-1.88214
3.76096
-1.87148
3.78068
2.71931
-5.55911
2.58941
-5.1927
4.35864
4.22301
-4.28791
-1.27938
-5.92483
5.95288
-5.81295
5.87331
9.13739
-9.17506
-1.88517
3.75986
-1.8688
3.77024
-3.42502
-2.35981
3.37938
0.922312
8.06126
5.03582
-8.24401
-1.71446
-8.04202
7.84536
-8.23159
8.03306
-0.433724
5.81839
-5.38467
4.43476
-1.56356
7.38196
5.6984
5.91717
5.86612
-5.58642
1.1017
-6.48637
-6.39845
-2.25283
2.38922
2.16796
-2.07566
6.14339
1.75059
6.01996
-5.76304
-2.24135
-5.86312
3.82063
2.01074
3.86992
4.07846
2.40445
4.11825
3.03044
-3.03597
0.00552908
-3.05663
6.08707
0.723893
-5.41644
-4.49413
4.9762
3.04459
5.18946
-5.55395
-2.22193
-5.16179
-9.53246
-6.06073
-10.1139
10.0747
5.13889
9.76379
-11.9436
11.7891
4.81005
2.74488
4.83701
-4.95286
-2.56581
-4.87023
11.6327
-2.63907
-8.99364
-10.3026
-7.51713
10.2883
5.45177
10.9446
6.92388
11.0274
4.41835
7.21436
-9.87012
2.35299
-3.86812
-1.83805
-3.78052
3.67313
2.13988
3.80366
-4.21755
-2.52291
-4.1996
-4.29587
-2.68013
4.31598
2.41854
-4.41739
-3.8142
4.53254
2.38129
4.03374
-10.0519
4.31992
-7.93428
-9.1823
-3.76379
-9.05398
3.52106
2.6116
-6.13266
-2.03804
8.51012
-4.28711
7.23074
-5.18229
-3.43214
-5.19256
-6.88262
-1.73511
-6.73428
-8.87409
8.38159
-9.16984
8.52801
12.5073
-5.64104
-6.86628
-3.96845
-2.47366
3.92093
-0.491782
-3.71047
3.716
0.0504838
3.83116
4.75373
4.26195
-3.88406
-1.92889
-3.8284
3.82396
2.04935
3.89068
6.83874
2.29865
6.86891
-6.61196
-2.56311
-6.71013
9.03507
-8.63654
2.8337
-2.73524
5.39863
2.63443
-5.18499
-2.85702
6.21103
-3.21879
-2.99223
-12.1983
10.5274
1.67093
-4.81637
-0.381609
-0.433222
-5.48798
-3.75339
5.36946
0.547708
11.0751
7.32171
-5.51281
5.7615
6.16647
6.22337
-0.175082
5.80403
-5.1336
5.25368
-2.60228
-2.6514
5.47368
-5.60802
-1.23644
-5.52286
4.28641
0.411935
1.47437
-1.25212
-1.78033
-0.472499
-1.65365
1.27019
0.897769
1.3245
0.95347
1.43575
-2.95816
0.539938
2.41822
-2.00469
-1.53573
-3.826
-1.14696
4.97297
5.73968
2.10568
-5.63766
-0.225456
2.52417
-2.40739
-0.780663
-3.04534
2.2551
-3.03576
-3.67047
-2.08221
5.75268
-3.36958
-0.458815
3.31664
0.553274
-3.82721
-2.09762
3.78877
0.329487
-3.12856
6.19128
-3.06273
-5.05745
2.52755
3.55952
4.5383
-4.7895
2.44769
2.34181
-1.22998
4.24667
0.942792
4.4176
-6.93436
4.71243
5.80399
3.23443
-6.16202
1.00023
-5.93413
8.55349
-7.37615
-1.17735
4.17424
4.37925
7.0598
5.44752
-5.6714
12.7312
-1.2063
-6.16985
7.14042
-3.90599
4.84971
-8.7557
-10.2972
4.12738
-9.12823
10.8987
-1.77051
-3.61899
-8.32459
12.7472
-1.20405
-11.5432
8.55973
-4.28304
-4.39084
8.67388
-6.92211
6.95664
-1.99443
-4.96221
-10.0905
-5.68824
10.1877
1.6014
-9.92408
12.2771
-2.70971
4.11916
0.717845
4.13841
3.30221
-5.48395
2.18174
3.6199
-5.61434
2.08299
-7.56694
-6.72009
12.0533
-5.33316
-10.4839
-9.50149
-0.982387
2.53423
9.74284
-9.4581
7.41788
2.04022
3.30012
0.590561
-3.37545
-0.405068
0.236924
4.51771
-4.75464
4.04058
4.19627
3.26831
1.24941
3.84552
2.10736
-3.87019
-0.329407
-4.16409
1.48396
-1.74555
-3.69431
5.17827
-4.06756
0.373253
-2.74545
-3.49725
6.24271
-4.5835
3.03546
3.15583
5.08481
-4.91274
1.41548
-2.39257
-2.52017
2.65208
-4.39763
1.99325
3.18503
4.37454
0.560339
5.86978
6.18347
-8.48138
0.547102
11.2193
-9.50483
2.46083
8.56662
-9.87871
0.377216
-8.67677
0.997867
-5.28498
-5.13479
5.19359
-6.9287
-3.56211
6.21338
0.655527
-6.32374
-0.410536
-6.03197
-2.84212
-6.47678
-3.04131
-6.12853
-8.71272
-1.65128
-7.06143
6.73031
-6.67736
-3.43656
7.40239
1.12562
-7.40708
7.30758
-7.4856
7.15803
0.0954149
3.62059
4.35736
1.8837
-2.39061
4.2743
-5.12041
7.41906
-8.71956
3.59915
4.20207
-6.76518
-4.51748
5.01986
4.01521
5.31812
8.87834
-10.3426
1.4643
-10.6459
11.9795
-1.33353
-16.4036
5.75767
-7.52527
2.4354
0.398303
2.55369
0.54228
2.4978
-3.04008
-2.19296
-2.10323
-2.43956
-3.46567
5.90523
1.08936
-3.5298
2.44044
-3.5663
4.65566
-0.216096
-3.3137
5.27104
-2.77324
5.66934
-3.7824
1.88695
3.43778
5.75326
-2.31548
4.39509
-1.76067
1.9276
-4.24308
-1.53807
-2.95952
5.09941
-3.28318
3.65644
-0.344769
4.00121
-4.04752
0.828723
-0.779208
3.41706
3.64071
4.31682
-3.06741
2.91849
-4.67916
-1.32459
-4.11882
-0.933791
-0.257085
-3.69947
3.95655
5.97619
-6.23328
-5.23155
9.52267
-4.29112
7.68948
-5.37916
-2.31032
-4.25006
-4.38648
3.87548
1.92855
9.61803
0.208896
-5.58805
-4.9247
-3.97514
3.1015
2.15218
-1.7433
3.41424
2.17652
-0.702151
0.424231
0.90027
1.78344
-1.35921
0.325814
1.45763
-0.926305
1.71239
0.811778
-1.82839
0.174749
-1.31401
3.56911
1.10422
-2.00199
0.642774
0.975253
-3.57753
5.05895
-2.68771
-2.37124
6.0342
1.13821
-3.82592
4.38465
-3.97271
2.39108
-3.53805
-1.43484
-5.40755
-3.65697
-2.52012
4.96056
-3.38512
5.4908
1.29009
-5.26534
6.55543
-3.72781
1.64561
-3.05442
3.86619
-0.927843
-2.12657
2.90356
2.84912
-3.07716
0.0318179
-0.1736
2.41006
-2.58366
-0.625706
-2.6304
-4.57353
4.90302
-2.10522
4.55291
2.16908
-1.91712
6.47003
1.80875
-3.72587
-3.24869
-3.70751
-1.38406
3.15424
-0.579058
-4.29118
-5.54127
4.16614
0.251459
-7.05874
7.87836
-0.819622
-4.01415
-0.698287
4.87253
-6.0865
0.472167
-4.00351
3.87485
4.81764
5.0691
-11.3247
-0.218506
-6.18577
1.1238
-7.30957
5.50305
-3.53789
7.66527
-10.3189
6.88237
-9.1933
6.48793
-0.82164
6.23949
-4.05775
2.75415
-8.44239
-6.84099
5.54105
-2.79618
6.2589
-3.16799
9.42689
-5.8777
5.32907
4.09782
-1.03058
-4.16198
-5.31715
4.28657
0.0119169
4.15033
4.98033
-2.87298
4.65093
2.26961
-4.66218
-2.12801
-6.49556
1.83337
-3.33973
-1.92105
3.75443
3.16375
3.75431
1.23426
-3.34925
7.19105
-8.17344
-1.85789
-3.2769
5.29933
-1.01277
3.41778
-6.69468
-1.8672
4.79073
-0.781335
-4.00939
0.850317
-4.41243
1.67467
-6.0871
5.25403
-5.66457
2.22188
-9.74715
-5.1852
-5.1434
-2.25848
-5.22712
-7.56591
5.30743
-1.80824
5.49933
-8.49932
7.71798
-3.48016
8.78759
-5.42675
-1.05003
5.84374
1.31429
10.1019
0.221054
-4.73854
-1.9184
3.84447
-1.92607
1.1831
-3.47842
0.366052
2.49182
3.54238
-6.77824
0.0130608
-4.72548
-3.91578
7.93099
5.6069
11.5831
1.24045
9.11119
-1.1802
10.3516
4.13792
4.37378
-2.9869
4.45119
0.969659
4.56881
-0.926624
2.81357
1.62707
1.72039
0.686998
2.30231
1.3384
3.13103
0.0909513
-2.01228
4.62
-8.59514
-0.968057
-8.02176
1.13451
5.70702
-4.57251
2.9407
-0.788522
1.01463
-0.112081
-1.22808
1.34016
-2.76348
-1.93023
-0.472601
-1.6973
2.34007
1.87181
-1.86747
-0.896014
0.357795
-4.01476
3.18025
-3.14844
-0.299318
6.25611
-2.8194
0.235741
-1.17379
-2.39466
-2.86715
2.6924
6.17609
0.293938
3.11337
5.19696
3.09934
0.226363
3.88326
-5.65377
-3.68368
-5.87227
-0.369224
4.50331
1.76151
7.98133
5.85933
4.84656
-1.84812
-10.0216
6.51369
-2.0625
5.18016
-1.17077
-4.91633
5.04732
2.37175
-5.70284
0.0382721
-4.87805
-6.94055
-0.512454
8.23044
-9.58943
8.53939
5.69728
1.36416
-4.40327
-0.740125
4.23814
0.135637
10.4873
-1.12899
-6.71507
7.84406
-4.57803
3.60997
0.742731
2.6715
2.08289
1.29437
-5.4207
-9.99321
-2.06138
-1.51615
-4.43262
0.540347
-2.41216
6.21999
-2.61002
3.90967
5.23404
6.24868
-2.12998
-4.1033
6.4211
-2.51143
3.73725
)
;

boundaryField
{
    wall-4
    {
        type            calculated;
        value           uniform 0;
    }
    velocity-inlet-5
    {
        type            calculated;
        value           uniform -3.75095;
    }
    velocity-inlet-6
    {
        type            calculated;
        value           uniform -5.62643;
    }
    pressure-outlet-7
    {
        type            calculated;
        value           nonuniform List<scalar> 8(3.31988 7.73426 4.4368 9.71184 7.43757 5.15651 5.7513 8.96518);
    }
    wall-8
    {
        type            calculated;
        value           uniform 0;
    }
    frontAndBackPlanes
    {
        type            empty;
    }
}


// ************************************************************************* //
