/*--------------------------------*- C++ -*----------------------------------*\
  =========                 |
  \\      /  F ield         | OpenFOAM: The Open Source CFD Toolbox
   \\    /   O peration     | Website:  https://openfoam.org
    \\  /    A nd           | Version:  13
     \\/     M anipulation  |
\*---------------------------------------------------------------------------*/
FoamFile
{
    format      ascii;
    class       volScalarField;
    location    "2.16";
    object      T;
}
// * * * * * * * * * * * * * * * * * * * * * * * * * * * * * * * * * * * * * //

dimensions      [0 0 0 1 0 0 0];

internalField   nonuniform List<scalar> 
1000
(
1.93677e-96
3.63523e-96
8.50865e-96
2.07821e-95
5.10599e-95
1.25406e-94
3.0758e-94
7.53228e-94
1.84166e-93
4.49578e-93
1.09575e-92
2.66643e-92
6.47825e-92
1.57143e-91
3.80573e-91
9.20215e-91
2.2215e-90
5.3544e-90
1.28848e-89
3.09564e-89
7.42549e-89
1.77829e-88
4.25188e-88
1.01498e-87
2.41901e-87
5.75593e-87
1.36738e-86
3.24312e-86
7.67947e-86
1.8155e-85
4.28503e-85
1.00973e-84
2.37548e-84
5.57942e-84
1.30833e-83
3.06293e-83
7.15888e-83
1.67048e-82
3.89159e-82
9.05104e-82
2.10163e-81
4.87191e-81
1.12753e-80
2.60518e-80
6.00939e-80
1.3839e-79
3.18172e-79
7.30294e-79
1.67345e-78
3.82831e-78
8.74335e-78
1.99354e-77
4.53784e-77
1.03121e-76
2.33948e-76
5.29865e-76
1.19807e-75
2.70441e-75
6.09441e-75
1.37107e-74
3.07935e-74
6.90438e-74
1.54546e-73
3.45348e-73
7.70409e-73
1.71573e-72
3.81454e-72
8.46637e-72
1.87592e-71
4.14946e-71
9.16282e-71
2.01988e-70
4.44509e-70
9.76546e-70
2.14172e-69
4.68906e-69
1.02486e-68
2.23614e-68
4.87062e-68
1.05906e-67
2.29885e-67
4.98139e-67
1.07756e-66
2.3269e-66
5.01605e-66
1.07943e-65
2.31884e-65
4.97271e-65
1.06454e-64
2.27494e-64
4.85313e-64
1.03351e-63
2.1971e-63
4.66254e-63
9.87722e-63
2.08874e-62
4.40932e-62
9.29169e-62
1.95458e-61
4.10436e-61
8.60342e-61
1.80023e-60
3.76027e-60
7.84042e-60
1.63188e-59
3.39053e-59
7.03194e-59
1.45582e-58
3.00863e-58
6.2066e-58
1.2781e-57
2.62722e-57
5.39079e-57
1.10415e-56
2.2575e-56
4.60729e-56
9.38604e-56
1.9087e-55
3.87444e-55
7.8505e-55
1.58782e-54
3.20567e-54
6.46027e-54
1.29955e-53
2.60946e-53
5.23018e-53
1.04639e-52
2.08968e-52
4.16555e-52
8.28845e-52
1.64619e-51
3.26357e-51
6.45818e-51
1.27565e-50
2.51509e-50
4.9497e-50
9.7231e-50
1.90647e-49
3.73126e-49
7.28918e-49
1.42134e-48
2.76641e-48
5.37437e-48
1.04216e-47
2.01713e-47
3.89698e-47
7.51472e-47
1.4464e-46
2.77878e-46
5.32855e-46
1.01989e-45
1.94842e-45
3.71535e-45
7.07135e-45
1.34335e-44
2.54718e-44
4.82074e-44
9.10644e-44
1.71698e-43
3.23119e-43
6.06929e-43
1.13787e-42
2.12923e-42
3.97678e-42
7.41336e-42
1.37935e-41
2.56157e-41
4.748e-41
8.78391e-41
1.62195e-40
2.9892e-40
5.49848e-40
1.00948e-39
1.84979e-39
3.38309e-39
6.17548e-39
1.1251e-38
2.04587e-38
3.71301e-38
6.72569e-38
1.21593e-37
2.19402e-37
3.95124e-37
7.10207e-37
1.27407e-36
2.28118e-36
4.07644e-36
7.27039e-36
1.29416e-35
2.29919e-35
4.07672e-35
7.2144e-35
1.27421e-34
2.2461e-34
3.95156e-34
6.93834e-34
1.21588e-33
2.12652e-33
3.7119e-33
6.46647e-33
1.1243e-32
1.95092e-32
3.37863e-32
5.83958e-32
1.00731e-31
1.73414e-31
2.97951e-31
5.10908e-31
8.74334e-31
1.4933e-30
2.54539e-30
4.33007e-30
7.35139e-30
1.24559e-29
2.10628e-29
3.55456e-29
5.98668e-29
1.00627e-28
1.68801e-28
2.82592e-28
4.72143e-28
7.8725e-28
1.31002e-27
2.17553e-27
3.60561e-27
5.96367e-27
9.84398e-27
1.62162e-26
2.66592e-26
4.37387e-26
7.16148e-26
1.17019e-25
1.90822e-25
3.1054e-25
5.04338e-25
8.1741e-25
1.32213e-24
2.13412e-24
3.43776e-24
5.52644e-24
8.86596e-24
1.41944e-23
2.26786e-23
3.61596e-23
5.75359e-23
9.13611e-23
1.44774e-22
2.28941e-22
3.61295e-22
5.6899e-22
8.94233e-22
1.40249e-21
2.19507e-21
3.42845e-21
5.34378e-21
8.31186e-21
1.29017e-20
1.99845e-20
3.08913e-20
4.76515e-20
7.33521e-20
1.12679e-19
1.7273e-19
2.64233e-19
4.03366e-19
6.14473e-19
9.3411e-19
1.41705e-18
2.14516e-18
3.24061e-18
4.88518e-18
7.34892e-18
1.1032e-17
1.65261e-17
2.47043e-17
3.6852e-17
5.48573e-17
8.14876e-17
1.2079e-16
1.78672e-16
2.63731e-16
3.88463e-16
5.70976e-16
8.37464e-16
1.22573e-15
1.7902e-15
2.60909e-15
3.79448e-15
5.50673e-15
7.97466e-15
1.15241e-14
1.66179e-14
2.39123e-14
3.43353e-14
4.91965e-14
7.03397e-14
1.00355e-13
1.42874e-13
2.02972e-13
2.87733e-13
4.0702e-13
5.74528e-13
8.09239e-13
1.1374e-12
1.5952e-12
2.23247e-12
3.11764e-12
4.34442e-12
6.04095e-12
8.38196e-12
1.16052e-11
1.60333e-11
2.21034e-11
3.0406e-11
4.17374e-11
5.71681e-11
7.81351e-11
1.06562e-10
1.45017e-10
1.96925e-10
2.66835e-10
3.60784e-10
4.86758e-10
6.55299e-10
8.80291e-10
1.17998e-09
1.57827e-09
2.10643e-09
2.80527e-09
3.72786e-09
4.94316e-09
6.54046e-09
8.63515e-09
1.1376e-08
1.49544e-08
1.96157e-08
2.56742e-08
3.35312e-08
4.36975e-08
5.68228e-08
7.37302e-08
9.54608e-08
1.23328e-07
1.58985e-07
2.04505e-07
2.62489e-07
3.36182e-07
4.2963e-07
5.47862e-07
6.97115e-07
8.85103e-07
1.12135e-06
1.41757e-06
1.78815e-06
2.25071e-06
2.82679e-06
3.54262e-06
4.43009e-06
5.52788e-06
6.88275e-06
8.55113e-06
1.06009e-05
1.31136e-05
1.61867e-05
1.99367e-05
2.45024e-05
3.00486e-05
3.67704e-05
4.48988e-05
5.47055e-05
6.65103e-05
8.0688e-05
9.76769e-05
0.000117988
0.000142215
0.000171049
0.000205286
0.000245846
0.000293788
0.000350325
0.000416847
0.000494939
0.000586402
0.000693282
0.000817893
0.000962842
0.00113106
0.00132585
0.00155088
0.00181025
0.00210851
0.00245072
0.00284245
0.00328983
0.00379961
0.00437914
0.00503647
0.00578032
0.00662016
0.00756618
0.00862936
0.00982147
0.0111551
0.0126435
0.014301
0.0161424
0.0181835
0.0204406
0.022931
0.0256725
0.0286832
0.0319821
0.0355885
0.0395219
0.0438021
0.0484488
0.053482
0.058921
0.064785
0.0710928
0.0778622
0.0851102
0.0928527
0.101104
0.109878
0.119186
0.129038
0.13944
0.150399
0.161918
0.173997
0.186634
0.199825
0.213561
0.227833
0.242627
0.257926
0.273711
0.28996
0.306649
0.323748
0.341228
0.359055
0.377195
0.395611
0.414263
0.43311
0.452111
0.471222
0.490399
0.509599
0.528777
0.547888
0.566888
0.585735
0.604386
0.622801
0.64094
0.658767
0.676245
0.693343
0.710029
0.726276
0.742058
0.757353
0.772143
0.786409
0.800139
0.813321
0.825949
0.838016
0.84952
0.860462
0.870844
0.880672
0.889951
0.89869
0.906901
0.914596
0.921787
0.92849
0.93472
0.940493
0.945825
0.950733
0.955235
0.959347
0.963086
0.966467
0.969507
0.972219
0.974618
0.976717
0.978527
0.980058
0.98132
0.98232
0.983065
0.983558
0.983804
0.983804
0.983558
0.983065
0.98232
0.98132
0.980058
0.978527
0.976717
0.974618
0.972219
0.969507
0.966467
0.963086
0.959347
0.955235
0.950733
0.945825
0.940493
0.93472
0.92849
0.921787
0.914596
0.906901
0.89869
0.889951
0.880672
0.870844
0.860462
0.84952
0.838016
0.825949
0.813321
0.800139
0.786409
0.772143
0.757353
0.742058
0.726276
0.710029
0.693343
0.676245
0.658767
0.64094
0.622801
0.604386
0.585735
0.566888
0.547888
0.528777
0.509599
0.490399
0.471222
0.452111
0.43311
0.414263
0.395611
0.377195
0.359055
0.341228
0.323748
0.306649
0.28996
0.273711
0.257926
0.242627
0.227833
0.213561
0.199825
0.186634
0.173997
0.161918
0.150399
0.13944
0.129038
0.119186
0.109878
0.101104
0.0928527
0.0851102
0.0778622
0.0710928
0.064785
0.058921
0.053482
0.0484488
0.0438021
0.0395219
0.0355885
0.0319821
0.0286832
0.0256725
0.022931
0.0204406
0.0181835
0.0161424
0.014301
0.0126435
0.0111551
0.00982147
0.00862936
0.00756618
0.00662016
0.00578032
0.00503647
0.00437914
0.00379961
0.00328983
0.00284245
0.00245072
0.00210851
0.00181025
0.00155088
0.00132585
0.00113106
0.000962842
0.000817893
0.000693282
0.000586402
0.000494939
0.000416847
0.000350325
0.000293788
0.000245846
0.000205286
0.000171049
0.000142215
0.000117988
9.76769e-05
8.0688e-05
6.65103e-05
5.47055e-05
4.48988e-05
3.67704e-05
3.00486e-05
2.45024e-05
1.99367e-05
1.61867e-05
1.31136e-05
1.06009e-05
8.55113e-06
6.88275e-06
5.52788e-06
4.43009e-06
3.54262e-06
2.82679e-06
2.25071e-06
1.78815e-06
1.41757e-06
1.12135e-06
8.85103e-07
6.97115e-07
5.47862e-07
4.2963e-07
3.36182e-07
2.62489e-07
2.04505e-07
1.58985e-07
1.23328e-07
9.54608e-08
7.37302e-08
5.68228e-08
4.36975e-08
3.35312e-08
2.56742e-08
1.96157e-08
1.49544e-08
1.1376e-08
8.63515e-09
6.54046e-09
4.94316e-09
3.72786e-09
2.80527e-09
2.10643e-09
1.57827e-09
1.17998e-09
8.80291e-10
6.55299e-10
4.86758e-10
3.60784e-10
2.66835e-10
1.96925e-10
1.45017e-10
1.06562e-10
7.81351e-11
5.71681e-11
4.17374e-11
3.0406e-11
2.21034e-11
1.60333e-11
1.16052e-11
8.38196e-12
6.04095e-12
4.34442e-12
3.11764e-12
2.23247e-12
1.5952e-12
1.1374e-12
8.09239e-13
5.74528e-13
4.0702e-13
2.87733e-13
2.02972e-13
1.42874e-13
1.00355e-13
7.03397e-14
4.91965e-14
3.43353e-14
2.39123e-14
1.66179e-14
1.15241e-14
7.97466e-15
5.50673e-15
3.79448e-15
2.60909e-15
1.7902e-15
1.22573e-15
8.37464e-16
5.70976e-16
3.88463e-16
2.63731e-16
1.78672e-16
1.2079e-16
8.14876e-17
5.48573e-17
3.6852e-17
2.47043e-17
1.65261e-17
1.1032e-17
7.34892e-18
4.88518e-18
3.24061e-18
2.14516e-18
1.41705e-18
9.3411e-19
6.14473e-19
4.03366e-19
2.64233e-19
1.7273e-19
1.12679e-19
7.33521e-20
4.76515e-20
3.08913e-20
1.99845e-20
1.29017e-20
8.31186e-21
5.34378e-21
3.42845e-21
2.19507e-21
1.40249e-21
8.94233e-22
5.6899e-22
3.61295e-22
2.28941e-22
1.44774e-22
9.13611e-23
5.75359e-23
3.61596e-23
2.26786e-23
1.41944e-23
8.86596e-24
5.52644e-24
3.43776e-24
2.13412e-24
1.32213e-24
8.1741e-25
5.04338e-25
3.1054e-25
1.90822e-25
1.17019e-25
7.16148e-26
4.37387e-26
2.66592e-26
1.62162e-26
9.84398e-27
5.96367e-27
3.60561e-27
2.17553e-27
1.31002e-27
7.8725e-28
4.72143e-28
2.82592e-28
1.68801e-28
1.00627e-28
5.98668e-29
3.55456e-29
2.10628e-29
1.24559e-29
7.35139e-30
4.33007e-30
2.54539e-30
1.4933e-30
8.74334e-31
5.10908e-31
2.97951e-31
1.73414e-31
1.00731e-31
5.83958e-32
3.37863e-32
1.95092e-32
1.1243e-32
6.46647e-33
3.7119e-33
2.12652e-33
1.21588e-33
6.93834e-34
3.95156e-34
2.2461e-34
1.27421e-34
7.2144e-35
4.07672e-35
2.29919e-35
1.29416e-35
7.27039e-36
4.07644e-36
2.28118e-36
1.27407e-36
7.10207e-37
3.95124e-37
2.19402e-37
1.21593e-37
6.72569e-38
3.71301e-38
2.04587e-38
1.1251e-38
6.17548e-39
3.38309e-39
1.84979e-39
1.00948e-39
5.49848e-40
2.9892e-40
1.62195e-40
8.78391e-41
4.748e-41
2.56157e-41
1.37935e-41
7.41336e-42
3.97678e-42
2.12923e-42
1.13787e-42
6.06929e-43
3.23119e-43
1.71698e-43
9.10644e-44
4.82074e-44
2.54718e-44
1.34335e-44
7.07135e-45
3.71535e-45
1.94842e-45
1.01989e-45
5.32855e-46
2.77878e-46
1.4464e-46
7.51472e-47
3.89698e-47
2.01713e-47
1.04216e-47
5.37437e-48
2.76641e-48
1.42134e-48
7.28918e-49
3.73126e-49
1.90647e-49
9.7231e-50
4.9497e-50
2.51509e-50
1.27565e-50
6.45818e-51
3.26357e-51
1.64619e-51
8.28845e-52
4.16555e-52
2.08968e-52
1.04639e-52
5.23018e-53
2.60946e-53
1.29955e-53
6.46027e-54
3.20567e-54
1.58782e-54
7.8505e-55
3.87444e-55
1.9087e-55
9.38604e-56
4.60729e-56
2.2575e-56
1.10415e-56
5.39079e-57
2.62722e-57
1.2781e-57
6.2066e-58
3.00863e-58
1.45582e-58
7.03194e-59
3.39053e-59
1.63188e-59
7.84042e-60
3.76027e-60
1.80023e-60
8.60342e-61
4.10436e-61
1.95458e-61
9.29169e-62
4.40932e-62
2.08874e-62
9.87722e-63
4.66254e-63
2.1971e-63
1.03351e-63
4.85313e-64
2.27494e-64
1.06454e-64
4.97271e-65
2.31884e-65
1.07943e-65
5.01605e-66
2.3269e-66
1.07756e-66
4.98139e-67
2.29885e-67
1.05906e-67
4.87062e-68
2.23614e-68
1.02486e-68
4.68906e-69
2.14172e-69
9.76546e-70
4.44509e-70
2.01988e-70
9.16282e-71
4.14946e-71
1.87592e-71
8.46637e-72
3.81454e-72
1.71573e-72
7.70409e-73
3.45348e-73
1.54546e-73
6.90438e-74
3.07935e-74
1.37107e-74
6.09441e-75
2.70441e-75
1.19807e-75
5.29865e-76
2.33948e-76
1.03121e-76
4.53784e-77
1.99354e-77
8.74335e-78
3.82831e-78
1.67345e-78
7.30294e-79
3.18172e-79
1.3839e-79
6.00939e-80
2.60518e-80
1.12753e-80
4.87191e-81
2.10163e-81
9.05104e-82
3.89159e-82
1.67048e-82
7.15888e-83
3.06293e-83
1.30833e-83
5.57942e-84
2.37548e-84
1.00973e-84
4.28503e-85
1.8155e-85
7.67947e-86
3.24312e-86
1.36738e-86
5.75593e-87
2.41901e-87
1.01498e-87
4.25188e-88
1.77829e-88
7.42549e-89
3.09564e-89
1.28848e-89
5.3544e-90
2.2215e-90
9.20215e-91
3.80573e-91
1.57143e-91
6.47825e-92
2.66643e-92
1.09575e-92
4.49578e-93
1.84166e-93
7.53228e-94
3.0758e-94
1.25406e-94
5.10599e-95
2.07821e-95
8.50865e-96
3.63523e-96
1.93677e-96
)
;

boundaryField
{
    sides
    {
        type            zeroGradient;
    }
    empty
    {
        type            empty;
    }
}


// ************************************************************************* //
