/*--------------------------------*- C++ -*----------------------------------*\
  =========                 |
  \\      /  F ield         | OpenFOAM: The Open Source CFD Toolbox
   \\    /   O peration     | Website:  https://openfoam.org
    \\  /    A nd           | Version:  13
     \\/     M anipulation  |
\*---------------------------------------------------------------------------*/
FoamFile
{
    format      ascii;
    class       volScalarField;
    location    "1.6";
    object      T;
}
// * * * * * * * * * * * * * * * * * * * * * * * * * * * * * * * * * * * * * //

dimensions      [0 0 0 1 0 0 0];

internalField   nonuniform List<scalar> 
1000
(
9.16259e-124
2.21855e-123
6.66168e-123
2.05008e-122
6.31536e-122
1.9426e-121
5.96504e-121
1.82841e-120
5.59451e-120
1.70875e-119
5.20977e-119
1.58557e-118
4.81697e-118
1.46078e-117
4.42199e-117
1.3362e-116
4.03034e-116
1.21347e-115
3.64698e-115
1.09409e-114
3.27632e-114
9.79336e-114
2.92206e-113
8.70273e-113
2.58721e-112
7.6774e-112
2.27407e-111
6.72354e-111
1.98425e-110
5.84517e-110
1.7187e-109
5.04431e-109
1.47775e-108
4.32117e-108
1.26123e-107
3.67439e-107
1.06849e-106
3.10131e-106
8.9849e-106
2.59819e-105
7.49923e-105
2.16048e-104
6.21254e-104
1.78309e-103
5.10812e-103
1.4606e-102
4.16853e-102
1.18744e-101
3.37615e-101
9.58095e-101
2.71375e-100
7.67196e-100
2.16479e-99
6.09673e-99
1.71376e-98
4.80806e-98
1.34635e-97
3.76282e-97
1.04963e-96
2.92226e-96
8.12018e-96
2.25203e-95
6.23364e-95
1.72214e-94
4.74845e-94
1.30675e-93
3.5891e-93
9.83858e-93
2.69173e-92
7.34989e-92
2.00299e-91
5.44786e-91
1.47883e-90
4.00641e-90
1.08327e-89
2.92321e-89
7.87271e-89
2.11606e-88
5.67636e-88
1.51967e-87
4.06034e-87
1.0827e-86
2.88131e-86
7.65247e-86
2.02835e-85
5.36552e-85
1.41647e-84
3.73191e-84
9.81243e-84
2.57481e-83
6.74273e-83
1.76216e-82
4.59594e-82
1.19624e-81
3.10729e-81
8.05483e-81
2.08375e-80
5.37953e-80
1.38597e-79
3.56346e-79
9.14316e-79
2.34114e-78
5.98221e-78
1.52545e-77
3.88184e-77
9.8577e-77
2.49811e-76
6.3175e-76
1.59432e-75
4.01511e-75
1.00905e-74
2.53057e-74
6.33307e-74
1.58161e-73
3.94157e-73
9.80222e-73
2.43256e-72
6.024e-72
1.48863e-71
3.67086e-71
9.03289e-71
2.218e-70
5.43465e-70
1.32878e-69
3.24197e-69
7.89284e-69
1.91746e-68
4.64822e-68
1.12438e-67
2.71396e-67
6.53667e-67
1.57098e-66
3.76742e-66
9.0152e-66
2.1526e-65
5.12869e-65
1.21928e-64
2.89236e-64
6.84622e-64
1.61696e-63
3.81061e-63
8.96056e-63
2.10242e-62
4.92207e-62
1.14979e-61
2.67995e-61
6.23265e-61
1.44629e-60
3.34868e-60
7.73617e-60
1.78324e-59
4.10131e-59
9.41164e-59
2.15494e-58
4.923e-58
1.12215e-57
2.55206e-57
5.79099e-57
1.3111e-56
2.96165e-56
6.67497e-56
1.501e-55
3.36762e-55
7.53836e-55
1.68361e-54
3.75157e-54
8.34051e-54
1.85002e-53
4.09415e-53
9.03968e-53
1.99133e-52
4.37654e-52
9.59657e-52
2.09941e-51
4.58217e-51
9.97786e-51
2.16768e-50
4.6983e-50
1.01596e-49
2.19177e-49
4.71735e-49
1.01294e-48
2.16996e-48
4.63765e-48
9.88832e-48
2.1034e-47
4.46373e-47
9.4503e-47
1.99602e-46
4.20585e-46
8.84117e-46
1.8541e-45
3.87901e-45
8.09603e-45
1.68572e-44
3.50152e-44
7.25584e-44
1.49994e-43
3.09327e-43
6.36375e-43
1.30605e-42
2.67398e-42
5.4614e-42
1.11275e-41
2.2617e-41
4.58582e-41
9.27556e-41
1.87156e-40
3.7671e-40
7.56392e-40
1.51503e-39
3.02713e-39
6.03354e-39
1.19962e-38
2.37927e-38
4.7073e-38
9.2902e-38
1.82895e-37
3.59172e-37
7.03595e-37
1.37487e-36
2.6799e-36
5.21065e-36
1.0106e-35
1.95514e-35
3.77302e-35
7.26288e-35
1.39456e-34
2.67098e-34
5.1028e-34
9.72409e-34
1.84838e-33
3.50455e-33
6.62784e-33
1.25028e-32
2.35255e-32
4.41531e-32
8.26564e-32
1.54341e-31
2.87458e-31
5.34015e-31
9.89506e-31
1.8288e-30
3.37129e-30
6.19878e-30
1.13683e-29
2.07951e-29
3.79403e-29
6.90424e-29
1.25315e-28
2.26861e-28
4.09625e-28
7.377e-28
1.32507e-27
2.37391e-27
4.2418e-27
7.55958e-27
1.34371e-26
2.38215e-26
4.21203e-26
7.42792e-26
1.30646e-25
2.29181e-25
4.00968e-25
6.99664e-25
1.21763e-24
2.11343e-24
3.65852e-24
6.31632e-24
1.08759e-23
1.86768e-23
3.19875e-23
5.46378e-23
9.30767e-23
1.58133e-22
2.67939e-22
4.52772e-22
7.63047e-22
1.28248e-21
2.14969e-21
3.59357e-21
5.991e-21
9.96077e-21
1.65161e-20
2.73111e-20
4.50391e-20
7.40721e-20
1.21488e-19
1.98713e-19
3.24138e-19
5.27282e-19
8.55392e-19
1.38387e-18
2.23269e-18
3.59226e-18
5.76381e-18
9.22259e-18
1.47162e-17
2.34174e-17
3.71603e-17
5.88051e-17
9.27996e-17
1.4604e-16
2.29185e-16
3.58669e-16
5.59746e-16
8.71117e-16
1.35191e-15
2.09222e-15
3.22886e-15
4.96906e-15
7.62574e-15
1.167e-14
1.78089e-14
2.71009e-14
4.11252e-14
6.2231e-14
9.39033e-14
1.41296e-13
2.12006e-13
3.17205e-13
4.73262e-13
7.04097e-13
1.04455e-12
1.54524e-12
2.27944e-12
3.35293e-12
4.91795e-12
7.19295e-12
1.04904e-11
1.52558e-11
2.21228e-11
3.19893e-11
4.61239e-11
6.63138e-11
9.50689e-11
1.35903e-10
1.93718e-10
2.75339e-10
3.90226e-10
5.51464e-10
7.77086e-10
1.09187e-09
1.52975e-09
2.13708e-09
2.97693e-09
4.13488e-09
5.72668e-09
7.90842e-09
1.08898e-08
1.49519e-08
2.047e-08
2.79435e-08
3.80352e-08
5.16219e-08
6.98593e-08
9.42661e-08
1.26832e-07
1.70153e-07
2.27611e-07
3.03589e-07
4.03755e-07
5.35413e-07
7.07944e-07
9.33356e-07
1.22697e-06
1.60827e-06
2.10195e-06
2.73921e-06
3.5593e-06
4.6115e-06
5.95742e-06
7.67383e-06
9.85608e-06
1.26222e-05
1.61177e-05
2.05217e-05
2.60531e-05
3.29797e-05
4.16269e-05
5.23892e-05
6.57431e-05
8.22621e-05
0.000102634
0.000127681
0.000158381
0.000195896
0.000241598
0.000297103
0.000364307
0.000445426
0.000543042
0.000660149
0.000800206
0.000967197
0.00116569
0.0014009
0.00167876
0.00200599
0.00239018
0.00283986
0.00336455
0.00397489
0.00468267
0.00550089
0.00644388
0.00752729
0.00876818
0.0101851
0.0117979
0.013628
0.0156983
0.018033
0.0206578
0.0235995
0.0268861
0.0305467
0.0346112
0.0391101
0.0440744
0.0495351
0.0555233
0.0620694
0.0692031
0.0769531
0.0853462
0.0944076
0.10416
0.114623
0.125815
0.137747
0.15043
0.163868
0.178063
0.19301
0.208699
0.225117
0.242243
0.260053
0.278515
0.297593
0.317248
0.337432
0.358096
0.379185
0.400639
0.422398
0.444397
0.466569
0.488845
0.511155
0.533431
0.555603
0.577602
0.599361
0.620815
0.641904
0.662568
0.682752
0.702406
0.721485
0.739947
0.757756
0.774882
0.7913
0.806989
0.821935
0.83613
0.849567
0.862249
0.874181
0.885371
0.895832
0.905583
0.914641
0.923031
0.930776
0.937905
0.944444
0.950423
0.955873
0.960824
0.965307
0.969351
0.972986
0.976242
0.979146
0.981725
0.984005
0.986008
0.987757
0.989272
0.990572
0.991673
0.992589
0.993333
0.993916
0.994346
0.994629
0.99477
0.99477
0.994629
0.994346
0.993916
0.993333
0.992589
0.991673
0.990572
0.989272
0.987757
0.986008
0.984005
0.981725
0.979146
0.976242
0.972986
0.969351
0.965307
0.960824
0.955873
0.950423
0.944444
0.937905
0.930776
0.923031
0.914641
0.905583
0.895832
0.885371
0.874181
0.862249
0.849567
0.83613
0.821935
0.806989
0.7913
0.774882
0.757756
0.739947
0.721485
0.702406
0.682752
0.662568
0.641904
0.620815
0.599361
0.577602
0.555603
0.533431
0.511155
0.488845
0.466569
0.444397
0.422398
0.400639
0.379185
0.358096
0.337432
0.317248
0.297593
0.278515
0.260053
0.242243
0.225117
0.208699
0.19301
0.178063
0.163868
0.15043
0.137747
0.125815
0.114623
0.10416
0.0944076
0.0853462
0.0769531
0.0692031
0.0620694
0.0555233
0.0495351
0.0440744
0.0391101
0.0346112
0.0305467
0.0268861
0.0235995
0.0206578
0.018033
0.0156983
0.013628
0.0117979
0.0101851
0.00876818
0.00752729
0.00644388
0.00550089
0.00468267
0.00397489
0.00336455
0.00283986
0.00239018
0.00200599
0.00167876
0.0014009
0.00116569
0.000967197
0.000800206
0.000660149
0.000543042
0.000445426
0.000364307
0.000297103
0.000241598
0.000195896
0.000158381
0.000127681
0.000102634
8.22621e-05
6.57431e-05
5.23892e-05
4.16269e-05
3.29797e-05
2.60531e-05
2.05217e-05
1.61177e-05
1.26222e-05
9.85608e-06
7.67383e-06
5.95742e-06
4.6115e-06
3.5593e-06
2.73921e-06
2.10195e-06
1.60827e-06
1.22697e-06
9.33356e-07
7.07944e-07
5.35413e-07
4.03755e-07
3.03589e-07
2.27611e-07
1.70153e-07
1.26832e-07
9.42661e-08
6.98593e-08
5.16219e-08
3.80352e-08
2.79435e-08
2.047e-08
1.49519e-08
1.08898e-08
7.90842e-09
5.72668e-09
4.13488e-09
2.97693e-09
2.13708e-09
1.52975e-09
1.09187e-09
7.77086e-10
5.51464e-10
3.90226e-10
2.75339e-10
1.93718e-10
1.35903e-10
9.50689e-11
6.63138e-11
4.61239e-11
3.19893e-11
2.21228e-11
1.52558e-11
1.04904e-11
7.19295e-12
4.91795e-12
3.35293e-12
2.27944e-12
1.54524e-12
1.04455e-12
7.04097e-13
4.73262e-13
3.17205e-13
2.12006e-13
1.41296e-13
9.39033e-14
6.2231e-14
4.11252e-14
2.71009e-14
1.78089e-14
1.167e-14
7.62574e-15
4.96906e-15
3.22886e-15
2.09222e-15
1.35191e-15
8.71117e-16
5.59746e-16
3.58669e-16
2.29185e-16
1.4604e-16
9.27996e-17
5.88051e-17
3.71603e-17
2.34174e-17
1.47162e-17
9.22259e-18
5.76381e-18
3.59226e-18
2.23269e-18
1.38387e-18
8.55392e-19
5.27282e-19
3.24138e-19
1.98713e-19
1.21488e-19
7.40721e-20
4.50391e-20
2.73111e-20
1.65161e-20
9.96077e-21
5.991e-21
3.59357e-21
2.14969e-21
1.28248e-21
7.63047e-22
4.52772e-22
2.67939e-22
1.58133e-22
9.30767e-23
5.46378e-23
3.19875e-23
1.86768e-23
1.08759e-23
6.31632e-24
3.65852e-24
2.11343e-24
1.21763e-24
6.99664e-25
4.00968e-25
2.29181e-25
1.30646e-25
7.42792e-26
4.21203e-26
2.38215e-26
1.34371e-26
7.55958e-27
4.2418e-27
2.37391e-27
1.32507e-27
7.377e-28
4.09625e-28
2.26861e-28
1.25315e-28
6.90424e-29
3.79403e-29
2.07951e-29
1.13683e-29
6.19878e-30
3.37129e-30
1.8288e-30
9.89506e-31
5.34015e-31
2.87458e-31
1.54341e-31
8.26564e-32
4.41531e-32
2.35255e-32
1.25028e-32
6.62784e-33
3.50455e-33
1.84838e-33
9.72409e-34
5.1028e-34
2.67098e-34
1.39456e-34
7.26288e-35
3.77302e-35
1.95514e-35
1.0106e-35
5.21065e-36
2.6799e-36
1.37487e-36
7.03595e-37
3.59172e-37
1.82895e-37
9.2902e-38
4.7073e-38
2.37927e-38
1.19962e-38
6.03354e-39
3.02713e-39
1.51503e-39
7.56392e-40
3.7671e-40
1.87156e-40
9.27556e-41
4.58582e-41
2.2617e-41
1.11275e-41
5.4614e-42
2.67398e-42
1.30605e-42
6.36375e-43
3.09327e-43
1.49994e-43
7.25584e-44
3.50152e-44
1.68572e-44
8.09603e-45
3.87901e-45
1.8541e-45
8.84117e-46
4.20585e-46
1.99602e-46
9.4503e-47
4.46373e-47
2.1034e-47
9.88832e-48
4.63765e-48
2.16996e-48
1.01294e-48
4.71735e-49
2.19177e-49
1.01596e-49
4.6983e-50
2.16768e-50
9.97786e-51
4.58217e-51
2.09941e-51
9.59657e-52
4.37654e-52
1.99133e-52
9.03968e-53
4.09415e-53
1.85002e-53
8.34051e-54
3.75157e-54
1.68361e-54
7.53836e-55
3.36762e-55
1.501e-55
6.67497e-56
2.96165e-56
1.3111e-56
5.79099e-57
2.55206e-57
1.12215e-57
4.923e-58
2.15494e-58
9.41164e-59
4.10131e-59
1.78324e-59
7.73617e-60
3.34868e-60
1.44629e-60
6.23265e-61
2.67995e-61
1.14979e-61
4.92207e-62
2.10242e-62
8.96056e-63
3.81061e-63
1.61696e-63
6.84622e-64
2.89236e-64
1.21928e-64
5.12869e-65
2.1526e-65
9.0152e-66
3.76742e-66
1.57098e-66
6.53667e-67
2.71396e-67
1.12438e-67
4.64822e-68
1.91746e-68
7.89284e-69
3.24197e-69
1.32878e-69
5.43465e-70
2.218e-70
9.03289e-71
3.67086e-71
1.48863e-71
6.024e-72
2.43256e-72
9.80222e-73
3.94157e-73
1.58161e-73
6.33307e-74
2.53057e-74
1.00905e-74
4.01511e-75
1.59432e-75
6.3175e-76
2.49811e-76
9.8577e-77
3.88184e-77
1.52545e-77
5.98221e-78
2.34114e-78
9.14316e-79
3.56346e-79
1.38597e-79
5.37953e-80
2.08375e-80
8.05483e-81
3.10729e-81
1.19624e-81
4.59594e-82
1.76216e-82
6.74273e-83
2.57481e-83
9.81243e-84
3.73191e-84
1.41647e-84
5.36552e-85
2.02835e-85
7.65247e-86
2.88131e-86
1.0827e-86
4.06034e-87
1.51967e-87
5.67636e-88
2.11606e-88
7.87271e-89
2.92321e-89
1.08327e-89
4.00641e-90
1.47883e-90
5.44786e-91
2.00299e-91
7.34989e-92
2.69173e-92
9.83858e-93
3.5891e-93
1.30675e-93
4.74845e-94
1.72214e-94
6.23364e-95
2.25203e-95
8.12018e-96
2.92226e-96
1.04963e-96
3.76282e-97
1.34635e-97
4.80806e-98
1.71376e-98
6.09673e-99
2.16479e-99
7.67196e-100
2.71375e-100
9.58095e-101
3.37615e-101
1.18744e-101
4.16853e-102
1.4606e-102
5.10812e-103
1.78309e-103
6.21254e-104
2.16048e-104
7.49923e-105
2.59819e-105
8.9849e-106
3.10131e-106
1.06849e-106
3.67439e-107
1.26123e-107
4.32117e-108
1.47775e-108
5.04431e-109
1.7187e-109
5.84517e-110
1.98425e-110
6.72354e-111
2.27407e-111
7.6774e-112
2.58721e-112
8.70273e-113
2.92206e-113
9.79336e-114
3.27632e-114
1.09409e-114
3.64698e-115
1.21347e-115
4.03034e-116
1.3362e-116
4.42199e-117
1.46078e-117
4.81697e-118
1.58557e-118
5.20977e-119
1.70875e-119
5.59451e-120
1.82841e-120
5.96504e-121
1.9426e-121
6.31536e-122
2.05008e-122
6.66168e-123
2.21855e-123
9.16259e-124
)
;

boundaryField
{
    sides
    {
        type            zeroGradient;
    }
    empty
    {
        type            empty;
    }
}


// ************************************************************************* //
