/*--------------------------------*- C++ -*----------------------------------*\
  =========                 |
  \\      /  F ield         | OpenFOAM: The Open Source CFD Toolbox
   \\    /   O peration     | Website:  https://openfoam.org
    \\  /    A nd           | Version:  13
     \\/     M anipulation  |
\*---------------------------------------------------------------------------*/
FoamFile
{
    format      ascii;
    class       volScalarField;
    location    "9.5";
    object      Ma;
}
// * * * * * * * * * * * * * * * * * * * * * * * * * * * * * * * * * * * * * //

dimensions      [];

internalField   nonuniform List<scalar> 
5250
(
2.99999
2.99996
2.99988
2.99965
2.99921
2.99785
2.99509
2.98714
2.96951
2.92271
2.80989
2.52869
1.91954
0.936292
0.38244
0.334894
0.346806
0.338779
0.304842
0.252165
0.203454
0.162501
0.121225
0.0756347
0.0420125
2.99999
2.99996
2.99988
2.99966
2.99922
2.99788
2.99513
2.98729
2.96979
2.92357
2.81184
2.53344
1.92885
0.947776
0.390148
0.336377
0.348424
0.340875
0.307437
0.255724
0.208222
0.16864
0.129592
0.0892682
0.0653068
2.99999
2.99996
2.99989
2.99966
2.99925
2.9979
2.99529
2.98746
2.97068
2.92495
2.81638
2.54317
1.94901
0.973504
0.407681
0.340377
0.353071
0.347039
0.315082
0.265815
0.221223
0.185074
0.151124
0.119438
0.103857
2.99999
2.99996
2.99988
2.99971
2.99919
2.99817
2.995
2.98876
2.97018
2.92961
2.82055
2.55969
1.97963
1.01378
0.434303
0.345886
0.360188
0.356944
0.327295
0.281606
0.240935
0.209308
0.18117
0.156807
0.145959
2.99999
2.99996
2.9999
2.99969
2.99931
2.99806
2.99568
2.98843
2.97308
2.93089
2.8313
2.57873
2.02155
1.07023
0.469804
0.352465
0.369464
0.370184
0.343388
0.301955
0.265727
0.238932
0.216404
0.197936
0.190374
3
2.99997
2.9999
2.99972
2.99933
2.99822
2.99591
2.98914
2.97491
2.93485
2.84244
2.60405
2.07512
1.14503
0.514736
0.360237
0.381197
0.386946
0.363298
0.326602
0.295179
0.273527
0.256687
0.243897
0.239813
3
2.99997
2.9999
2.99976
2.99934
2.99848
2.99597
2.99058
2.97587
2.94168
2.85327
2.63669
2.14044
1.24175
0.570099
0.370476
0.396158
0.407683
0.387238
0.355479
0.329147
0.312998
0.30236
0.296109
0.297428
3
2.99997
2.99991
2.99979
2.9994
2.99863
2.99639
2.99147
2.97837
2.94737
2.86829
2.67303
2.21908
1.36481
0.636409
0.385695
0.416256
0.433271
0.415599
0.388804
0.36769
0.357646
0.354349
0.35699
0.368859
3
2.99998
2.99993
2.9998
2.99951
2.9987
2.99703
2.99204
2.98182
2.9524
2.8862
2.71194
2.30922
1.51522
0.714786
0.412726
0.445852
0.465616
0.450053
0.427609
0.411709
0.407784
0.413353
0.43036
0.464701
3
2.99998
2.99994
2.99982
2.99959
2.99885
2.99748
2.99308
2.98439
2.95917
2.90257
2.75426
2.40694
1.69623
0.806104
0.458263
0.489867
0.506531
0.492954
0.473424
0.46193
0.46364
0.482328
0.526312
0.627645
3
2.99999
2.99995
2.99985
2.99962
2.99906
2.99769
2.99423
2.98615
2.96493
2.91534
2.78734
2.48203
1.83452
0.892204
0.499803
0.525072
0.541349
0.536292
0.521953
0.515396
0.524856
0.561006
0.641688
0.800688
3
2.99999
2.99995
2.99988
2.99965
2.99923
2.9979
2.99522
2.98747
2.97046
2.92501
2.81631
2.54492
1.95718
1.01447
0.565905
0.549567
0.565728
0.571401
0.566556
0.567841
0.586736
0.636601
0.73318
0.889775
3
2.99999
2.99996
2.99989
2.99973
2.99927
2.99837
2.99551
2.98998
2.9733
2.93737
2.84016
2.60813
2.0821
1.17443
0.650807
0.566423
0.5841
0.598902
0.605024
0.61577
0.643751
0.699043
0.790579
0.918068
3
2.99999
2.99997
2.99991
2.99976
2.99944
2.99847
2.9966
2.99074
2.97907
2.94513
2.86838
2.6683
2.21417
1.36892
0.752088
0.587354
0.603492
0.623506
0.639494
0.658219
0.691464
0.746239
0.826406
0.932022
3
3
2.99998
2.99993
2.99981
2.99953
2.99878
2.99718
2.99254
2.98288
2.95533
2.89356
2.73084
2.35424
1.60283
0.873223
0.627373
0.634816
0.653226
0.674018
0.696481
0.730699
0.782206
0.852723
0.942429
3.00001
3
2.99998
2.99994
2.99985
2.99963
2.99904
2.99775
2.99411
2.98648
2.96478
2.91685
2.78992
2.49325
1.86508
1.01316
0.688247
0.677843
0.691887
0.71232
0.733681
0.765595
0.812089
0.87413
0.951292
3.00001
3
2.99999
2.99996
2.99989
2.99969
2.99926
2.99814
2.99542
2.98891
2.97209
2.93283
2.83147
2.58776
2.04744
1.16805
0.757469
0.712966
0.727083
0.745996
0.767725
0.797199
0.838571
0.892358
0.958541
3.00001
3
2.99999
2.99997
2.9999
2.99977
2.99939
2.99856
2.99636
2.99112
2.97822
2.94611
2.86727
2.67054
2.22087
1.39725
0.866929
0.744463
0.753973
0.772205
0.795818
0.824293
0.861487
0.908059
0.964471
3.00001
3
3
2.99998
2.99993
2.99981
2.99956
2.99883
2.99733
2.99289
2.98384
2.95779
2.89986
2.74739
2.39471
1.68267
1.00431
0.790499
0.783457
0.797171
0.821339
0.848748
0.881573
0.921276
0.96882
3.00001
3
3
2.99999
2.99995
2.99987
2.99964
2.9992
2.9978
2.99519
2.98695
2.97048
2.92368
2.81694
2.55012
1.9832
1.17363
0.856553
0.819703
0.828581
0.848569
0.872938
0.899727
0.932871
0.971275
3.00001
3.00001
3
2.99999
2.99997
2.9999
2.99975
2.99935
2.99846
2.99615
2.99059
2.97709
2.94326
2.86102
2.65661
2.19671
1.38894
0.944291
0.852023
0.856493
0.872173
0.893714
0.916203
0.942717
0.971373
3.00001
3.00001
3
3
2.99998
2.99993
2.99981
2.99953
2.99886
2.99713
2.99323
2.98263
2.95914
2.89655
2.74822
2.39227
1.68815
1.07852
0.896196
0.883909
0.893225
0.911037
0.930536
0.94931
0.967247
3.00001
3.00001
3
3
2.99998
2.99995
2.99986
2.99969
2.99914
2.99806
2.99494
2.98817
2.97022
2.92834
2.82249
2.57071
2.02435
1.25887
0.96224
0.914967
0.916752
0.927374
0.941223
0.950269
0.95704
3.00001
3.00001
3.00001
3
2.99999
2.99997
2.99991
2.99977
2.9994
2.9986
2.99631
2.99167
2.97799
2.94926
2.87062
2.68733
2.26077
1.49919
1.05356
0.943422
0.934476
0.937844
0.943433
0.943901
0.941196
3.00001
3.00001
3.00001
3
3
2.99998
2.99994
2.99983
2.9996
2.99897
2.99752
2.99392
2.98497
2.96385
2.91021
2.78118
2.47219
1.83967
1.19559
0.983636
0.951382
0.9433
0.938841
0.931687
0.922369
3.00001
3.00001
3.00001
3
3
2.99999
2.99996
2.99989
2.99971
2.9993
2.99822
2.99585
2.98926
2.97523
2.93665
2.84883
2.62731
2.14291
1.38549
1.04163
0.962331
0.938777
0.925509
0.912255
0.900282
3.00001
3.00001
3.00001
3.00001
3
2.99999
2.99997
2.99992
2.9998
2.99951
2.99875
2.99709
2.99243
2.98264
2.95517
2.894
2.73472
2.37276
1.67258
1.14119
0.968128
0.921872
0.901709
0.887094
0.875882
3.00001
3.00001
3.00001
3.00001
3
3
2.99998
2.99995
2.99987
2.99965
2.99916
2.99792
2.99489
2.98775
2.96932
2.92684
2.81809
2.56349
2.01346
1.28494
0.979578
0.893774
0.868076
0.856781
0.850252
3.00001
3.00001
3.00001
3.00001
3.00001
3
2.99999
2.99997
2.99991
2.99975
2.99941
2.99844
2.99647
2.99063
2.97877
2.94481
2.86916
2.67338
2.2383
1.47294
1.00099
0.844436
0.8192
0.817812
0.824256
3.00001
3.00001
3.00001
3.00001
3.00001
3
3
2.99998
2.99993
2.99982
2.99955
2.99893
2.99721
2.99367
2.9833
2.96167
2.9018
2.76386
2.43023
1.76975
1.04929
0.787184
0.762799
0.776854
0.802074
3.00001
3.00001
3.00001
3.00001
3.00001
3
3
2.99998
2.99995
2.99987
2.99963
2.99919
2.99775
2.99505
2.9866
2.9694
2.92104
2.80926
2.53012
1.94116
1.08234
0.711237
0.682571
0.720098
0.769179
3.00001
3.00001
3.00001
3.00001
3.00001
3
3
2.99999
2.99996
2.99989
2.9997
2.99931
2.99813
2.99583
2.98866
2.97419
2.93259
2.83691
2.59136
2.05299
1.15915
0.65517
0.586461
0.645153
0.719667
3.00001
3.00001
3.00001
3.00001
3.00001
3.00001
3
2.99999
2.99997
2.9999
2.99977
2.99936
2.99851
2.99611
2.99072
2.97647
2.9424
2.85529
2.6396
2.14507
1.26768
0.631415
0.487696
0.566359
0.663796
3.00001
3.00001
3.00001
3.00001
3.00001
3.00001
3
2.99999
2.99997
2.99991
2.99979
2.99943
2.99872
2.99643
2.99206
2.97845
2.94965
2.86963
2.67792
2.22126
1.37492
0.626385
0.403686
0.502949
0.616017
3.00001
3.00001
3.00001
3.00001
3.00001
3.00001
3
3
2.99997
2.99993
2.99981
2.99951
2.99879
2.99691
2.99265
2.98084
2.95437
2.88271
2.70914
2.28865
1.48069
0.640173
0.350203
0.465143
0.579876
3.00001
3.00001
3.00001
3.00001
3.00001
3.00001
3
3
2.99998
2.99993
2.99984
2.99953
2.99895
2.99708
2.99345
2.98237
2.95859
2.89307
2.73558
2.34921
1.58367
0.665546
0.322733
0.444354
0.553897
3.00001
3.00001
3.00001
3.00001
3.00001
3.00001
3
3
2.99998
2.99994
2.99983
2.99961
2.99889
2.99757
2.99326
2.98474
2.95961
2.90308
2.75293
2.39722
1.66525
0.695764
0.308804
0.430535
0.532469
3.00001
3.00001
3.00001
3.00001
3.00001
3.00001
3
3
2.99998
2.99994
2.99986
2.99958
2.99907
2.99744
2.99414
2.98456
2.96329
2.90619
2.76789
2.42682
1.7169
0.728909
0.309363
0.421549
0.514207
3.00001
3.00001
3.00001
3.00001
3.00001
3.00001
3
3
2.99998
2.99994
2.99985
2.99962
2.99905
2.99768
2.99408
2.98584
2.96368
2.91178
2.77639
2.45118
1.76013
0.767872
0.322933
0.415166
0.497529
3.00001
3.00001
3.00001
3.00001
3.00001
3.00001
3
3
2.99999
2.99994
2.99987
2.99962
2.99912
2.99768
2.99448
2.98594
2.96569
2.91393
2.78535
2.46968
1.79582
0.804237
0.341455
0.410269
0.48247
3.00001
3.00001
3.00001
3.00001
3.00001
3.00001
3
3
2.99999
2.99995
2.99987
2.99963
2.99918
2.99767
2.99484
2.98597
2.96742
2.91558
2.7928
2.48475
1.8247
0.838289
0.361656
0.40638
0.470858
3.00001
3.00001
3.00001
3.00001
3.00001
3.00001
3
3
2.99999
2.99995
2.99987
2.99964
2.99917
2.99782
2.99477
2.98679
2.9675
2.9189
2.79728
2.49885
1.8491
0.870686
0.380329
0.402718
0.46292
3.00001
3.00001
3.00001
3.00001
3.00001
3.00001
3
3
2.99998
2.99996
2.99986
2.99968
2.99913
2.99798
2.99473
2.98733
2.96803
2.92121
2.80197
2.51094
1.87213
0.90163
0.395988
0.399092
0.457947
3.00001
3.00001
3.00001
3.00001
3.00001
3.00001
3
3
2.99999
2.99995
2.99988
2.99966
2.99921
2.99787
2.99518
2.98692
2.9699
2.92142
2.8081
2.52088
1.89461
0.929569
0.409253
0.396056
0.453899
3.00001
3.00001
3.00001
3.00001
3.00001
3.00001
3
3
2.99999
2.99995
2.99987
2.99969
2.99917
2.99806
2.99485
2.98816
2.96867
2.92569
2.80967
2.5324
1.91886
0.95239
0.42058
0.393525
0.45047
3.00001
3.00001
3.00001
3.00001
3.00001
3.00001
3
3
2.99999
2.99996
2.99987
2.99971
2.99916
2.99814
2.99489
2.98832
2.96939
2.92663
2.81356
2.54063
1.94074
0.970713
0.430328
0.391557
0.447664
3.00001
3.00001
3.00001
3.00001
3.00001
3.00001
3
3
2.99999
2.99996
2.99987
2.99971
2.99917
2.99817
2.99493
2.98851
2.96969
2.92766
2.81589
2.54671
1.95311
0.986366
0.438842
0.390199
0.445507
3.00001
3.00001
3.00001
3.00001
3.00001
3.00001
3
3
2.99999
2.99996
2.99988
2.9997
2.99919
2.99815
2.995
2.98862
2.96983
2.92859
2.81739
2.5514
1.96231
0.998427
0.445702
0.389349
0.443964
3.00001
3.00001
3.00001
3.00001
3.00001
3.00001
3
3
2.99999
2.99995
2.99988
2.99969
2.99923
2.99808
2.99519
2.98841
2.97039
2.92856
2.81903
2.55415
1.96855
1.00658
0.450504
0.388861
0.442902
3.00001
3.00001
3.00001
3.00001
3.00001
3.00001
3
3
2.99999
2.99996
2.99987
2.99971
2.99919
2.99817
2.99508
2.98855
2.97045
2.92867
2.81972
2.5553
1.97201
1.01061
0.452954
0.388561
0.442221
0.97267
0.766304
0.251357
0.241464
0.317611
0.396753
0.424513
0.445982
0.474509
0.502804
0.52303
0.532141
0.532724
0.529028
0.522085
0.510059
0.492991
0.471907
0.448696
0.424052
0.398623
0.372363
0.345639
0.31835
0.290716
0.262798
0.234076
0.205076
0.176311
0.147928
0.120059
0.0927091
0.0657711
0.0396649
0.0184742
0.0229071
0.0466687
0.0712718
0.0958253
0.119636
0.142749
0.164744
0.185776
0.207713
0.230143
0.251978
0.27302
0.293648
0.313727
0.333617
0.353035
0.372238
0.391078
0.409662
0.427924
0.446005
0.463675
0.481287
0.498472
0.515616
0.53234
0.548997
0.565338
0.581505
0.597481
0.61322
0.628778
0.644138
0.659254
0.674226
0.68891
0.703464
0.717701
0.731833
0.745603
0.759322
0.772635
0.785944
0.798841
0.81172
0.82424
0.836654
0.848813
0.86073
0.872495
0.883904
0.895191
0.906059
0.916726
0.926947
0.936839
0.946219
0.955082
0.963268
0.970685
0.977146
0.982493
0.986577
0.988977
0.992565
0.953926
0.830823
0.560862
0.415511
0.278127
0.142736
0.048981
0.131812
0.201632
0.249142
0.274604
0.279847
0.273619
0.267151
0.259267
0.247715
0.230506
0.210566
0.189279
0.166548
0.143268
0.119615
0.0957888
0.0724369
0.0506268
0.034994
0.0343334
0.0506619
0.0718215
0.0950092
0.118444
0.142032
0.165204
0.188027
0.210129
0.23129
0.25214
0.27309
0.293894
0.314328
0.334455
0.353718
0.372205
0.39101
0.410495
0.429579
0.448101
0.46604
0.483807
0.501236
0.518402
0.535346
0.55198
0.568457
0.584618
0.600638
0.616377
0.63194
0.647328
0.662454
0.677503
0.692253
0.706922
0.721341
0.735615
0.749714
0.763616
0.777392
0.79093
0.804377
0.817534
0.830639
0.843392
0.856137
0.868481
0.880854
0.892816
0.904805
0.91643
0.928022
0.939343
0.950528
0.961538
0.972311
0.982952
0.993321
1.00352
1.01344
1.02309
1.03246
1.04146
1.0501
1.05819
1.06575
1.07251
1.07845
1.08326
1.08695
1.08893
1.09214
0.968186
0.934856
0.826344
0.732988
0.624704
0.510738
0.401938
0.30605
0.226499
0.163176
0.112453
0.0741149
0.0463235
0.0384906
0.0562196
0.0604005
0.0821728
0.0961917
0.112766
0.130223
0.148473
0.167495
0.187054
0.207088
0.227413
0.247641
0.267633
0.287406
0.307152
0.326825
0.346458
0.36578
0.384844
0.403541
0.421702
0.439385
0.456772
0.474053
0.491221
0.508141
0.52494
0.541002
0.556422
0.571893
0.587986
0.604286
0.619885
0.635232
0.650172
0.665084
0.679678
0.694237
0.708543
0.722714
0.736759
0.750554
0.764349
0.777836
0.791374
0.804598
0.817852
0.830814
0.84378
0.856479
0.86918
0.881629
0.894074
0.906282
0.918453
0.930409
0.942274
0.953955
0.965496
0.976867
0.988089
0.999122
1.01006
1.02072
1.03141
1.04169
1.05213
1.06203
1.07221
1.08176
1.09169
1.10096
1.11058
1.1195
1.12868
1.13708
1.14561
1.15327
1.1609
1.16751
1.17386
1.17892
1.18338
1.1862
1.18783
1.19038
0.995632
1.00871
0.972607
0.919493
0.849484
0.769474
0.687237
0.60957
0.541668
0.487733
0.445275
0.4153
0.398137
0.387901
0.390265
0.394835
0.39835
0.40312
0.410165
0.419273
0.430014
0.442028
0.454916
0.468633
0.482625
0.497077
0.511304
0.525657
0.539876
0.554165
0.56838
0.582431
0.596432
0.610038
0.623555
0.63659
0.649605
0.662425
0.675321
0.688127
0.700959
0.713299
0.725145
0.736875
0.749383
0.762248
0.77494
0.787164
0.799379
0.811275
0.823379
0.835122
0.847148
0.858752
0.870667
0.882147
0.893927
0.905297
0.916931
0.928191
0.939673
0.950824
0.962154
0.973196
0.98437
0.995298
1.0063
1.01709
1.02791
1.03853
1.04913
1.05955
1.06993
1.08012
1.09029
1.10022
1.1102
1.11985
1.12966
1.13908
1.1488
1.15807
1.16766
1.17677
1.1861
1.1949
1.20383
1.21225
1.22067
1.22861
1.23637
1.24361
1.25049
1.25672
1.26231
1.26703
1.27075
1.27315
1.27422
1.27682
1.01357
1.04994
1.05107
1.02677
0.987562
0.933734
0.875099
0.816816
0.766801
0.725943
0.696583
0.676642
0.667
0.664144
0.667429
0.674099
0.678406
0.679412
0.680311
0.683236
0.68734
0.692403
0.698502
0.705133
0.712525
0.719992
0.727956
0.735761
0.743896
0.751915
0.760137
0.768413
0.776699
0.78515
0.793422
0.801879
0.81015
0.818747
0.82724
0.836186
0.845
0.853949
0.862182
0.870766
0.879672
0.889594
0.899395
0.909236
0.918811
0.928516
0.938162
0.947982
0.95776
0.967707
0.977573
0.987613
0.997535
1.00763
1.01759
1.02769
1.03768
1.04775
1.05773
1.06776
1.0777
1.08766
1.09752
1.10742
1.11716
1.12696
1.13655
1.14623
1.15564
1.16514
1.17439
1.18369
1.19287
1.20207
1.21124
1.22029
1.22934
1.23813
1.24698
1.25552
1.26412
1.27236
1.28062
1.28849
1.29631
1.30366
1.31088
1.31751
1.32383
1.32941
1.3344
1.33839
1.34144
1.34295
1.34351
1.34587
1.02108
1.06871
1.08916
1.0871
1.06693
1.03321
0.990935
0.948366
0.911963
0.885329
0.869621
0.862911
0.8636
0.867548
0.871981
0.877434
0.883098
0.885924
0.884145
0.882137
0.881079
0.881281
0.882192
0.884041
0.886016
0.888549
0.891107
0.894003
0.896916
0.900128
0.903601
0.907387
0.91144
0.915821
0.920312
0.925139
0.930011
0.935324
0.940771
0.94676
0.952963
0.959337
0.965375
0.971587
0.978337
0.985937
0.993988
1.00197
1.01006
1.01803
1.0263
1.0345
1.04304
1.05148
1.06024
1.0689
1.07782
1.08665
1.09568
1.10468
1.1138
1.12296
1.13216
1.14146
1.15069
1.16009
1.16931
1.17873
1.1879
1.19728
1.20636
1.21561
1.22461
1.23371
1.24272
1.25168
1.26067
1.26937
1.27823
1.28666
1.29536
1.30352
1.312
1.31989
1.32808
1.33569
1.34348
1.35076
1.35802
1.36486
1.37144
1.37759
1.38327
1.38829
1.39262
1.39593
1.39821
1.39902
1.39923
1.40172
1.02318
1.07344
1.10383
1.11417
1.10737
1.08649
1.05657
1.02602
1.00089
0.986215
0.981427
0.985133
0.993593
1.00353
1.01181
1.01808
1.02342
1.02787
1.02814
1.02432
1.01976
1.01616
1.0137
1.01202
1.0111
1.01047
1.01012
1.00987
1.00984
1.01015
1.01074
1.01169
1.013
1.01471
1.01674
1.01921
1.022
1.02526
1.02893
1.03309
1.03776
1.04256
1.0473
1.05208
1.05754
1.06369
1.07055
1.07742
1.08455
1.09159
1.09894
1.10628
1.11394
1.12163
1.12958
1.13756
1.14575
1.15396
1.16233
1.17072
1.17923
1.18775
1.19638
1.20501
1.21372
1.22242
1.23115
1.23986
1.24857
1.25724
1.26595
1.27461
1.28334
1.2919
1.30056
1.30894
1.31752
1.32572
1.3342
1.34223
1.35055
1.35839
1.3665
1.37412
1.38191
1.38924
1.39662
1.40351
1.41034
1.41666
1.42271
1.42822
1.43313
1.43745
1.44072
1.44318
1.44408
1.44428
1.44398
1.44628
1.02181
1.06988
1.103
1.1188
1.11889
1.10567
1.08483
1.06389
1.0494
1.045
1.04992
1.0617
1.07676
1.09219
1.10474
1.11361
1.11909
1.12375
1.12634
1.12502
1.11987
1.11429
1.10974
1.10611
1.10333
1.10091
1.09891
1.0971
1.09558
1.09424
1.09324
1.09257
1.09235
1.09255
1.09319
1.09434
1.09578
1.09779
1.10011
1.10301
1.10634
1.10984
1.11331
1.11685
1.12107
1.12593
1.13158
1.13735
1.14356
1.14968
1.15624
1.1627
1.16962
1.17647
1.18374
1.19093
1.1985
1.206
1.21382
1.22158
1.22961
1.23761
1.24581
1.254
1.26235
1.27068
1.27912
1.28752
1.29605
1.30453
1.3131
1.32152
1.33006
1.3384
1.34689
1.3551
1.36348
1.37154
1.37977
1.38765
1.39568
1.40337
1.41115
1.41863
1.42606
1.43325
1.44021
1.44696
1.45331
1.45942
1.46491
1.47003
1.4743
1.47788
1.48045
1.4817
1.48197
1.48183
1.48089
1.48292
1.01758
1.05972
1.09051
1.10692
1.10924
1.10102
1.08753
1.07614
1.07199
1.07686
1.08956
1.10729
1.12702
1.14592
1.1619
1.1735
1.18128
1.18583
1.18978
1.19149
1.18959
1.1844
1.17899
1.17409
1.16992
1.16615
1.16306
1.16013
1.15764
1.15518
1.15313
1.15122
1.14986
1.14874
1.14825
1.14804
1.14841
1.14919
1.15039
1.15215
1.15444
1.15696
1.15955
1.16224
1.16566
1.16967
1.17449
1.17952
1.18507
1.19065
1.19667
1.20267
1.20908
1.21549
1.22227
1.22908
1.2362
1.24336
1.25076
1.25823
1.26589
1.27363
1.2815
1.28949
1.29752
1.30567
1.31385
1.32212
1.33038
1.3386
1.34688
1.35506
1.36336
1.37148
1.37973
1.38777
1.39589
1.40381
1.41174
1.4195
1.42719
1.43475
1.44215
1.44945
1.45647
1.46338
1.46993
1.47628
1.48221
1.48768
1.49269
1.49691
1.50049
1.50301
1.50441
1.50469
1.50449
1.50379
1.50165
1.50306
1.01017
1.04446
1.06922
1.08263
1.08506
1.08095
1.07536
1.07379
1.07931
1.09212
1.11052
1.13213
1.15427
1.17543
1.19342
1.20791
1.21827
1.22538
1.22973
1.23334
1.23497
1.23369
1.22955
1.22479
1.2199
1.2155
1.21142
1.20799
1.2047
1.20183
1.19909
1.19674
1.19468
1.19307
1.19187
1.19117
1.19094
1.19117
1.19189
1.19309
1.19493
1.19694
1.19915
1.20142
1.20446
1.20798
1.2123
1.21682
1.22194
1.22712
1.2328
1.2385
1.24461
1.25077
1.25727
1.26385
1.27071
1.27766
1.28484
1.29212
1.2996
1.30716
1.31491
1.32268
1.33065
1.33861
1.34666
1.35469
1.36269
1.3708
1.37877
1.38691
1.3949
1.40296
1.411
1.4189
1.42693
1.43464
1.44254
1.45007
1.45771
1.46506
1.47232
1.47942
1.48618
1.49285
1.49898
1.50501
1.51034
1.51528
1.51947
1.52285
1.52537
1.52661
1.52687
1.52656
1.52567
1.52383
1.51969
1.51948
0.999062
1.02343
1.04062
1.05014
1.05314
1.05416
1.057
1.06471
1.07836
1.09688
1.11886
1.14229
1.16561
1.18729
1.20686
1.22313
1.23639
1.24612
1.2535
1.25811
1.26164
1.26377
1.26386
1.26106
1.25687
1.25254
1.24807
1.24406
1.2403
1.23703
1.23408
1.23143
1.22922
1.22725
1.22583
1.22469
1.22413
1.22393
1.22426
1.22506
1.22649
1.22807
1.22992
1.2318
1.23447
1.23753
1.24145
1.24549
1.25024
1.25506
1.26045
1.26586
1.27175
1.27764
1.28393
1.29024
1.29688
1.30358
1.31052
1.31759
1.32481
1.33223
1.3397
1.34741
1.35513
1.36292
1.37076
1.37858
1.38652
1.39436
1.40233
1.4102
1.41815
1.42603
1.43391
1.44176
1.44951
1.45726
1.46482
1.47238
1.4797
1.48695
1.49397
1.50077
1.50734
1.51352
1.51948
1.52482
1.52973
1.53387
1.53722
1.53965
1.54083
1.54104
1.54068
1.5397
1.5377
1.53401
1.52832
1.52696
0.983733
0.997625
1.00768
1.01455
1.02011
1.02742
1.0385
1.054
1.07327
1.09527
1.11893
1.14278
1.1662
1.18797
1.20813
1.22585
1.24117
1.25374
1.26395
1.27173
1.27757
1.28146
1.28422
1.28528
1.28404
1.28102
1.2776
1.2735
1.26956
1.26602
1.26285
1.26022
1.25786
1.25595
1.25434
1.25314
1.25235
1.25202
1.25214
1.25277
1.254
1.25546
1.25714
1.25888
1.26137
1.2643
1.26793
1.27177
1.27618
1.28082
1.28589
1.29119
1.29676
1.30257
1.30857
1.31477
1.32118
1.3277
1.3345
1.34136
1.34849
1.35571
1.36311
1.37062
1.37811
1.38577
1.39333
1.40108
1.40873
1.41649
1.42422
1.43195
1.43974
1.44741
1.4552
1.4628
1.47049
1.47798
1.48544
1.49276
1.49987
1.50691
1.51353
1.5201
1.52612
1.53199
1.53724
1.542
1.54606
1.54923
1.55154
1.55257
1.5527
1.55228
1.55125
1.54883
1.54491
1.53961
1.53336
1.53173
0.963107
0.968656
0.973831
0.980404
0.99031
1.00441
1.02259
1.04355
1.06648
1.09011
1.11398
1.13745
1.1601
1.18167
1.20188
1.22072
1.23765
1.25269
1.2656
1.27647
1.2852
1.29213
1.2968
1.30004
1.30189
1.30221
1.30093
1.29827
1.29506
1.2914
1.28825
1.28547
1.28315
1.28129
1.2797
1.27858
1.27773
1.27738
1.27738
1.27787
1.27894
1.28035
1.2818
1.28353
1.28574
1.28858
1.2919
1.29556
1.2997
1.30411
1.309
1.3141
1.31956
1.32525
1.33113
1.33728
1.34352
1.35001
1.35662
1.36339
1.37038
1.37744
1.38472
1.39193
1.39934
1.40672
1.4142
1.42173
1.42925
1.43688
1.44441
1.45208
1.45963
1.46726
1.47478
1.4823
1.48974
1.49703
1.50428
1.51124
1.51816
1.52467
1.53104
1.53694
1.54257
1.54773
1.55223
1.55617
1.55908
1.56123
1.56196
1.56196
1.56143
1.56009
1.5576
1.55303
1.54753
1.54186
1.53596
1.53468
0.939236
0.939392
0.943215
0.952487
0.968065
0.988186
1.01104
1.03502
1.05899
1.08279
1.10581
1.12851
1.15027
1.1716
1.19191
1.21157
1.22978
1.24675
1.2619
1.27539
1.28682
1.29648
1.30408
1.31009
1.31391
1.31656
1.31804
1.31823
1.31699
1.3146
1.31181
1.30918
1.30688
1.30506
1.3035
1.30246
1.30166
1.30132
1.30133
1.30177
1.3028
1.30416
1.30562
1.30728
1.30937
1.31207
1.31514
1.31868
1.32253
1.32681
1.33144
1.33637
1.34165
1.34714
1.3529
1.35884
1.36495
1.37129
1.37771
1.38441
1.39116
1.39811
1.40509
1.41216
1.41935
1.42652
1.43386
1.44112
1.44855
1.45588
1.46331
1.47069
1.47806
1.48545
1.49271
1.50003
1.50712
1.51426
1.52109
1.52787
1.53432
1.5405
1.54634
1.55173
1.5568
1.56105
1.56481
1.56745
1.56936
1.56985
1.56967
1.56897
1.56752
1.56437
1.55977
1.55392
1.54815
1.54298
1.53801
1.53731
0.915392
0.912644
0.917511
0.931582
0.952971
0.977627
1.00296
1.02808
1.05181
1.07481
1.09661
1.11823
1.1391
1.16
1.18017
1.20027
1.21945
1.2379
1.25483
1.27048
1.28438
1.29667
1.30712
1.31585
1.3227
1.32786
1.33129
1.33366
1.33502
1.33518
1.33409
1.33238
1.33044
1.32876
1.32724
1.32626
1.32548
1.32519
1.32521
1.32564
1.32657
1.32789
1.32939
1.33095
1.33299
1.33545
1.33843
1.34178
1.34548
1.34958
1.35399
1.35874
1.36382
1.36911
1.37474
1.38048
1.38652
1.39265
1.39901
1.40554
1.41211
1.41888
1.42559
1.43255
1.43943
1.44651
1.45355
1.46069
1.46786
1.475
1.48225
1.48934
1.49658
1.50359
1.51071
1.51761
1.52447
1.53118
1.53765
1.54399
1.54987
1.55559
1.56069
1.56558
1.56962
1.57306
1.57552
1.57707
1.57735
1.57691
1.57609
1.57423
1.57078
1.56552
1.55974
1.55385
1.54854
1.54451
1.54059
1.54066
0.892471
0.890375
0.899338
0.920256
0.946706
0.973377
0.998763
1.02292
1.04539
1.06694
1.08761
1.1082
1.12848
1.14902
1.16925
1.18961
1.20946
1.22885
1.24713
1.26444
1.28025
1.29471
1.30752
1.31875
1.3283
1.33616
1.3424
1.34707
1.35034
1.35269
1.35424
1.3545
1.35373
1.35259
1.35129
1.35035
1.34956
1.34927
1.34929
1.34971
1.35056
1.3519
1.35334
1.35491
1.35676
1.35907
1.36189
1.36506
1.36859
1.37249
1.37667
1.38126
1.38608
1.39124
1.39664
1.40224
1.40812
1.41405
1.42034
1.42656
1.43303
1.43947
1.44607
1.45273
1.45944
1.46628
1.47307
1.48004
1.48689
1.4939
1.50078
1.50775
1.51462
1.52145
1.52823
1.53481
1.54137
1.54758
1.55372
1.5594
1.56481
1.56975
1.57425
1.57814
1.58115
1.58336
1.5844
1.58449
1.58388
1.58272
1.58032
1.57644
1.57081
1.56503
1.55899
1.55407
1.54974
1.54715
1.54443
1.54519
0.869953
0.873756
0.891345
0.918369
0.946233
0.972635
0.996706
1.01912
1.03993
1.06008
1.07978
1.09962
1.11953
1.13977
1.16007
1.18052
1.20073
1.22067
1.23981
1.25824
1.27545
1.29166
1.30639
1.31989
1.33182
1.34227
1.35116
1.35844
1.36427
1.3686
1.37191
1.37419
1.37583
1.37623
1.37582
1.37513
1.37441
1.37407
1.37397
1.37432
1.37505
1.37628
1.37771
1.37923
1.38095
1.38306
1.3857
1.38862
1.39196
1.39559
1.39957
1.40391
1.40848
1.41347
1.41857
1.42408
1.42966
1.43558
1.44157
1.44767
1.45391
1.46016
1.46658
1.47298
1.47955
1.48608
1.49274
1.49938
1.50606
1.51278
1.51941
1.52612
1.53265
1.53921
1.54556
1.55182
1.55789
1.56365
1.56922
1.57421
1.57898
1.58308
1.58674
1.58933
1.59128
1.59182
1.59169
1.59093
1.5893
1.5866
1.58187
1.57626
1.57004
1.56437
1.55925
1.5555
1.55256
1.55119
1.54962
1.55095
0.852744
0.868219
0.89389
0.921981
0.948883
0.97363
0.995859
1.01648
1.03584
1.05483
1.07375
1.09298
1.11257
1.13252
1.15278
1.17315
1.19357
1.21374
1.23357
1.2527
1.27114
1.28861
1.30504
1.32038
1.33435
1.34709
1.35826
1.36809
1.3763
1.38304
1.38837
1.39271
1.39596
1.39803
1.39961
1.40003
1.3999
1.39964
1.39943
1.39959
1.40007
1.40099
1.40229
1.40373
1.40525
1.40716
1.40952
1.41221
1.41533
1.41866
1.42244
1.42645
1.43084
1.43551
1.44042
1.44569
1.45108
1.45683
1.46255
1.46853
1.47449
1.48062
1.48678
1.49301
1.49935
1.50566
1.5121
1.51847
1.52494
1.53135
1.53774
1.54413
1.55033
1.55659
1.56247
1.56841
1.57382
1.57916
1.58383
1.58828
1.59206
1.59533
1.59763
1.59909
1.59934
1.59886
1.59786
1.59599
1.59242
1.58735
1.58132
1.57525
1.56941
1.56463
1.56079
1.55838
1.55684
1.5564
1.55583
1.55775
0.842808
0.869841
0.898835
0.926686
0.951993
0.974768
0.995313
1.01455
1.03307
1.05139
1.06996
1.08885
1.10824
1.12798
1.14809
1.16834
1.18874
1.20902
1.22913
1.24872
1.2679
1.28626
1.30394
1.32057
1.3362
1.35063
1.36381
1.3757
1.38617
1.39524
1.40272
1.40896
1.4143
1.4183
1.42101
1.42282
1.42416
1.42457
1.42461
1.42464
1.42484
1.4254
1.42642
1.4277
1.429
1.43061
1.43259
1.43505
1.43788
1.44094
1.44449
1.44814
1.45237
1.45665
1.46147
1.46638
1.4717
1.47713
1.48271
1.48848
1.49427
1.50026
1.50622
1.51233
1.51843
1.52459
1.53081
1.53696
1.54324
1.54931
1.55554
1.56149
1.5675
1.57322
1.57881
1.58411
1.58903
1.59359
1.59755
1.60115
1.60394
1.60599
1.60685
1.60687
1.60614
1.60483
1.6023
1.59812
1.59253
1.58644
1.58023
1.57463
1.56983
1.56638
1.5639
1.56282
1.56237
1.56261
1.56286
1.56514
0.837413
0.871648
0.902228
0.929187
0.952754
0.973997
0.993554
1.01212
1.03043
1.04868
1.06726
1.08613
1.10543
1.12506
1.145
1.16512
1.18538
1.20562
1.22575
1.24559
1.26516
1.28412
1.3026
1.32016
1.33703
1.35276
1.36759
1.38114
1.39348
1.40452
1.41417
1.4224
1.42932
1.43541
1.44004
1.44334
1.44552
1.44701
1.44807
1.44842
1.44853
1.44876
1.44929
1.45018
1.45118
1.45246
1.45394
1.4561
1.45845
1.46139
1.46448
1.46805
1.47187
1.47606
1.48056
1.48533
1.4904
1.49561
1.50105
1.5066
1.51228
1.5181
1.52393
1.52994
1.53586
1.54195
1.54795
1.554
1.56004
1.56595
1.57192
1.57757
1.58328
1.58852
1.59372
1.59833
1.60269
1.6063
1.60964
1.61205
1.61376
1.61418
1.61392
1.61308
1.61124
1.60809
1.6032
1.59731
1.59111
1.58487
1.57951
1.57482
1.57164
1.56934
1.56846
1.56824
1.56874
1.56937
1.57
1.5724
0.82197
0.864203
0.897014
0.923917
0.94702
0.96793
0.987744
1.00683
1.02578
1.04463
1.06365
1.08285
1.10232
1.12202
1.14194
1.16201
1.18217
1.20237
1.22254
1.24252
1.26228
1.28165
1.30058
1.31886
1.3365
1.35324
1.36922
1.38404
1.39803
1.41067
1.42219
1.43223
1.44087
1.44827
1.45471
1.45985
1.46336
1.46596
1.46747
1.46847
1.46907
1.46932
1.46947
1.46993
1.47065
1.47143
1.47254
1.47406
1.47614
1.47874
1.48161
1.48492
1.48846
1.49243
1.49665
1.50124
1.50608
1.51113
1.51643
1.52183
1.52746
1.53313
1.53892
1.54482
1.55064
1.55667
1.56246
1.56852
1.57424
1.58015
1.58569
1.59129
1.59642
1.60146
1.60592
1.61004
1.61346
1.61643
1.61865
1.6199
1.62012
1.61968
1.61857
1.61636
1.61225
1.60702
1.60085
1.59469
1.58854
1.58336
1.57892
1.57588
1.57387
1.57305
1.57312
1.5736
1.57446
1.57586
1.57703
1.5794
0.789027
0.839053
0.875425
0.904217
0.929292
0.95216
0.973968
0.994959
1.01549
1.03571
1.05576
1.07578
1.0958
1.11591
1.13611
1.15637
1.17673
1.19711
1.21751
1.23767
1.25766
1.27727
1.29653
1.31525
1.33343
1.35087
1.36763
1.38345
1.39844
1.41226
1.42507
1.43658
1.44684
1.45573
1.46348
1.47025
1.47554
1.47942
1.482
1.48372
1.48471
1.48526
1.48563
1.48595
1.48636
1.48688
1.48763
1.48864
1.49029
1.4924
1.49502
1.49797
1.50132
1.50502
1.50904
1.51343
1.51804
1.52295
1.52807
1.53335
1.53892
1.54445
1.55032
1.55603
1.56204
1.56782
1.57378
1.57954
1.58532
1.59088
1.59634
1.6015
1.60637
1.61085
1.61477
1.61813
1.62083
1.62294
1.62381
1.6239
1.62346
1.62204
1.61903
1.61436
1.60884
1.60248
1.59634
1.59041
1.58541
1.58133
1.57839
1.57671
1.57596
1.57617
1.57668
1.57754
1.57905
1.58127
1.58293
1.58532
0.742795
0.797213
0.836948
0.869386
0.898294
0.925141
0.950446
0.974533
0.997614
1.01993
1.0417
1.06306
1.08416
1.10505
1.12584
1.14655
1.1672
1.18786
1.20844
1.22885
1.24896
1.26882
1.28826
1.30733
1.32583
1.34379
1.36107
1.37759
1.39333
1.40811
1.42194
1.43463
1.4462
1.45643
1.46535
1.47314
1.48007
1.48548
1.4896
1.49261
1.49461
1.49582
1.49653
1.4969
1.49714
1.49745
1.49789
1.49858
1.49965
1.50128
1.50339
1.506
1.50907
1.51249
1.51635
1.52048
1.52493
1.52971
1.53466
1.54
1.54536
1.5511
1.55679
1.56272
1.56859
1.57449
1.58035
1.58609
1.59173
1.59716
1.60237
1.6072
1.61168
1.61551
1.61883
1.62135
1.62329
1.62404
1.62418
1.62364
1.62176
1.61816
1.61313
1.60732
1.60112
1.595
1.58943
1.58453
1.58089
1.5781
1.57675
1.5762
1.57652
1.57706
1.57803
1.57962
1.58185
1.58447
1.58642
1.58891
0.694214
0.74748
0.78857
0.824248
0.857237
0.888109
0.917198
0.944594
0.970616
0.995417
1.01927
1.04233
1.06478
1.08675
1.10836
1.12971
1.15088
1.1719
1.19284
1.21364
1.23411
1.25422
1.27394
1.29322
1.31203
1.33028
1.34799
1.36498
1.38134
1.3968
1.41147
1.4251
1.43775
1.44926
1.45958
1.46863
1.47668
1.48382
1.48951
1.49386
1.49705
1.49924
1.50062
1.50142
1.50181
1.50208
1.50237
1.5028
1.5035
1.50463
1.50626
1.50848
1.51115
1.51433
1.5179
1.52184
1.52617
1.53075
1.53572
1.54087
1.54635
1.55197
1.55778
1.56369
1.56963
1.5756
1.58147
1.58729
1.59284
1.59824
1.60316
1.60775
1.61164
1.61486
1.61743
1.61912
1.61994
1.62018
1.61945
1.61688
1.61274
1.60765
1.60168
1.59577
1.5897
1.58463
1.57997
1.57672
1.57424
1.57308
1.57277
1.57324
1.57387
1.57492
1.57667
1.57899
1.5816
1.58443
1.58657
1.58912
0.650171
0.698303
0.738523
0.775893