/*--------------------------------*- C++ -*----------------------------------*\
  =========                 |
  \\      /  F ield         | OpenFOAM: The Open Source CFD Toolbox
   \\    /   O peration     | Website:  https://openfoam.org
    \\  /    A nd           | Version:  13
     \\/     M anipulation  |
\*---------------------------------------------------------------------------*/
FoamFile
{
    format      ascii;
    class       volScalarField;
    location    "9.5";
    object      p;
}
// * * * * * * * * * * * * * * * * * * * * * * * * * * * * * * * * * * * * * //

dimensions      [1 -1 -2 0 0 0 0];

internalField   nonuniform List<scalar> 
5250
(
1.00001
1.00004
1.00011
1.00029
1.00073
1.00178
1.00448
1.01075
1.02736
1.06635
1.16971
1.43938
2.21486
4.50982
10.5096
11.2196
11.0927
11.0829
11.1758
11.4022
11.6185
11.7581
11.8683
11.9553
12.0224
1.00001
1.00004
1.00011
1.00029
1.00072
1.00176
1.00444
1.01063
1.02709
1.06562
1.16789
1.43436
2.20065
4.46665
10.425
11.2132
11.0871
11.0745
11.1672
11.3932
11.6091
11.7492
11.861
11.9494
12.0181
1.00001
1.00004
1.0001
1.00029
1.00068
1.00176
1.00427
1.01052
1.02626
1.06448
1.16364
1.4244
2.17021
4.37488
10.2357
11.1983
11.0713
11.0475
11.1372
11.3585
11.5713
11.7095
11.8206
11.908
11.9764
1.00001
1.00003
1.00011
1.00026
1.00071
1.00161
1.00428
1.00993
1.02569
1.06186
1.15832
1.4085
2.1241
4.23711
9.93857
11.1808
11.0487
11.0017
11.0857
11.2979
11.5052
11.6389
11.7465
11.8313
11.8999
1.00001
1.00004
1.0001
1.00027
1.00063
1.00163
1.00391
1.00973
1.02407
1.05941
1.14996
1.38805
2.06396
4.05377
9.52692
11.166
11.0219
10.9387
11.015
11.2144
11.4141
11.5409
11.6427
11.7238
11.7937
1.00001
1.00003
1.00009
1.00025
1.00058
1.00156
1.00354
1.00946
1.0218
1.05701
1.13848
1.36417
1.98682
3.82921
8.98899
11.1621
10.9936
10.8579
10.9242
11.1064
11.2947
11.4104
11.5018
11.5749
11.645
1.00001
1.00003
1.00009
1.00022
1.00056
1.00139
1.00335
1.00852
1.02035
1.05199
1.12764
1.33273
1.89744
3.56284
8.31457
11.1723
10.9671
10.7603
10.814
10.9732
11.1446
11.2423
11.3149
11.3709
11.4349
1
1.00003
1.00008
1.0002
1.0005
1.00126
1.00301
1.00771
1.01826
1.04691
1.11436
1.29751
1.79565
3.25874
7.49848
11.2003
10.9432
10.6465
10.6851
10.8144
10.9614
11.0309
11.0712
11.0903
11.1281
1
1.00002
1.00007
1.00019
1.00042
1.00114
1.00259
1.00691
1.01588
1.04149
1.09981
1.25951
1.68642
2.93101
6.57241
11.2201
10.9164
10.5225
10.5401
10.6295
10.7416
10.7691
10.7566
10.7014
10.6498
1
1.00002
1.00006
1.00016
1.00037
1.00098
1.00228
1.00584
1.01399
1.03503
1.08634
1.21934
1.57651
2.59549
5.55732
11.1444
10.8481
10.4019
10.3755
10.4218
10.4806
10.4581
10.364
10.1468
9.82868
1
1.00002
1.00005
1.00014
1.00032
1.00085
1.00194
1.00517
1.01179
1.03111
1.07342
1.19048
1.49115
2.35751
4.88244
10.7239
10.6299
10.2985
10.1797
10.1923
10.1844
10.1023
9.85882
9.29568
7.86491
1
1.00001
1.00005
1.00011
1.0003
1.0007
1.00176
1.00436
1.01048
1.02659
1.06436
1.1642
1.42333
2.16335
4.31618
9.80894
10.3294
10.1654
9.98316
9.95149
9.88561
9.71831
9.34056
8.58329
7.13294
1
1.00001
1.00004
1.0001
1.00024
1.00064
1.00145
1.00383
1.00892
1.0229
1.05527
1.14053
1.36032
1.98046
3.78083
8.65224
10.1467
10.0387
9.81236
9.71232
9.59551
9.355
8.88725
8.13329
7.01202
1
1.00001
1.00003
1.00008
1.00022
1.00049
1.00132
1.00301
1.00793
1.01852
1.0475
1.11617
1.30073
1.80448
3.26449
7.35668
10.0386
9.93581
9.67675
9.48793
9.31769
9.03349
8.56196
7.88122
7.00646
1
1.00001
1.00003
1.00007
1.00018
1.0004
1.00108
1.00244
1.00652
1.0149
1.03908
1.09325
1.2422
1.63458
2.76382
5.96542
9.91562
9.83818
9.57225
9.28629
9.06646
8.76926
8.3255
7.72319
6.99504
1
1.00001
1.00002
1.00005
1.00014
1.00032
1.00086
1.00194
1.00518
1.01175
1.03091
1.07281
1.18803
1.48195
2.31192
4.62944
9.56139
9.67317
9.47822
9.11453
8.85155
8.55371
8.14301
7.60795
6.97969
1
1.00001
1.00002
1.00004
1.00011
1.00026
1.00068
1.00156
1.00414
1.00938
1.02493
1.05795
1.15057
1.3807
2.03651
3.89198
8.59142
9.42271
9.2881
8.97416
8.67365
8.37509
7.99674
7.52043
6.97546
1
1
1.00001
1.00003
1.00009
1.00022
1.00051
1.00132
1.00305
1.00801
1.01849
1.04804
1.1157
1.30099
1.79745
3.22355
7.05946
9.1688
9.09917
8.87024
8.53691
8.22996
7.88002
7.45696
6.98035
1
1
1.00001
1.00003
1.00006
1.00017
1.00039
1.00103
1.00233
1.00618
1.01419
1.03682
1.08811
1.2269
1.59035
2.61703
5.44424
8.92415
8.96463
8.80746
8.46191
8.12344
7.79281
7.41914
6.99882
1
1
1.00001
1.00002
1.00005
1.00012
1.00032
1.00072
1.00188
1.00434
1.01111
1.02643
1.06629
1.16391
1.42295
2.12849
4.05661
8.33078
8.86103
8.72843
8.41092
8.05227
7.73762
7.41565
7.04274
1
1
1.00001
1.00002
1.00004
1.00009
1.00023
1.00055
1.00141
1.00324
1.0085
1.01951
1.05068
1.12161
1.31588
1.83206
3.28893
7.02359
8.64616
8.58322
8.3699
8.02226
7.72275
7.42851
7.12361
1
1
1
1.00001
1.00003
1.00007
1.00016
1.00043
1.00097
1.00257
1.00581
1.01538
1.03547
1.09169
1.22556
1.59602
2.60948
5.34493
8.34728
8.45851
8.33221
8.03683
7.73733
7.47262
7.24461
1
1
1
1.00001
1.00002
1.00005
1.00012
1.00029
1.00073
1.00178
1.00426
1.01075
1.02541
1.06427
1.15687
1.40474
2.06432
3.83144
7.68956
8.38444
8.30162
8.07812
7.79399
7.57548
7.43064
1
1
1
1.00001
1.00002
1.00003
1.00009
1.0002
1.00054
1.00122
1.00324
1.00731
1.0192
1.04473
1.11443
1.28518
1.75428
3.03467
6.30761
8.21999
8.25534
8.15712
7.9333
7.77686
7.69517
1
1
1
1
1.00001
1.00003
1.00006
1.00015
1.00038
1.00087
1.00226
1.00515
1.01353
1.0311
1.08037
1.1951
1.51048
2.34825
4.55616
7.85413
8.28477
8.253
8.15961
8.06334
8.0322
1
1
1
1
1.00001
1.00002
1.00004
1.0001
1.00027
1.00061
1.0016
1.0036
1.0095
1.02163
1.05615
1.13403
1.34692
1.90474
3.41102
6.96852
8.26091
8.44616
8.44047
8.42707
8.42559
1
1
1
1
1.00001
1.00001
1.00003
1.00007
1.00019
1.00043
1.00112
1.00253
1.00669
1.01518
1.03959
1.09356
1.24113
1.62069
2.66643
5.37597
8.12793
8.7516
8.8433
8.87028
8.86856
1
1
1
1
1
1.00001
1.00002
1.00005
1.00013
1.0003
1.00078
1.00177
1.00464
1.01049
1.02756
1.06392
1.16439
1.41211
2.08834
3.85403
7.69509
9.1119
9.36847
9.37521
9.35371
1
1
1
1
1
1.00001
1.00001
1.00004
1.00009
1.00023
1.00052
1.00138
1.00311
1.0082
1.01878
1.0486
1.1165
1.30088
1.78792
3.14371
6.63808
9.47807
9.95661
9.9287
9.83333
1
1
1
1
1
1
1.00001
1.00003
1.00007
1.00016
1.00041
1.00093
1.00247
1.00558
1.0147
1.03395
1.08738
1.2143
1.56249
2.50628
5.033
9.82967
10.588
10.4954
10.2536
1
1
1
1
1
1
1.00001
1.00002
1.00005
1.00012
1.00032
1.00074
1.00194
1.0045
1.01151
1.02755
1.06921
1.17229
1.4481
2.21703
4.399
9.64422
11.0149
10.8936
10.5504
1
1
1
1
1
1
1.00001
1.00002
1.00004
1.0001
1.00027
1.00061
1.00163
1.00373
1.00984
1.02304
1.05922
1.14607
1.38221
2.04072
3.97388
9.11146
11.2881
11.1428
10.7077
1
1
1
1
1
1
1.00001
1.00002
1.00004
1.00009
1.00022
1.00055
1.00138
1.00329
1.00849
1.02012
1.05198
1.12752
1.33487
1.90699
3.61
8.40998
11.5817
11.3416
10.7188
1
1
1
1
1
1
1.00001
1.00001
1.00003
1.00008
1.00019
1.00051
1.00116
1.00307
1.00719
1.01862
1.04513
1.11538
1.29608
1.80613
3.31884
7.76697
11.8947
11.4936
10.6646
1
1
1
1
1
1
1
1.00001
1.00003
1.00007
1.00017
1.00045
1.00103
1.00279
1.00635
1.01712
1.03995
1.10497
1.26469
1.72252
3.07188
7.14512
12.1571
11.5629
10.5997
1
1
1
1
1
1
1
1.00001
1.00003
1.00007
1.00016
1.00041
1.00096
1.00249
1.00597
1.0151
1.03733
1.09395
1.24134
1.6478
2.85433
6.51952
12.3412
11.6061
10.5879
1
1
1
1
1
1
1
1.00001
1.00003
1.00006
1.00016
1.00036
1.00095
1.00222
1.00573
1.01383
1.03489
1.08663
1.22244
1.59154
2.67187
5.93129
12.3814
11.6106
10.597
1
1
1
1
1
1
1
1.00001
1.00002
1.00006
1.00014
1.00036
1.00086
1.00215
1.00539
1.01306
1.03318
1.08162
1.21015
1.55549
2.56587
5.61342
12.2307
11.5825
10.6267
1
1
1
1
1
1
1
1.00001
1.00002
1.00005
1.00014
1.00032
1.00087
1.00198
1.00531
1.0122
1.03234
1.07717
1.20169
1.52791
2.48533
5.36426
11.9635
11.5284
10.673
1
1
1
1
1
1
1
1.00001
1.00002
1.00005
1.00013
1.00032
1.00081
1.00195
1.00505
1.01191
1.03093
1.07474
1.1937
1.50704
2.42153
5.16236
11.6954
11.4264
10.7574
1
1
1
1
1
1
1
1.00001
1.00002
1.00005
1.00012
1.00033
1.00075
1.00198
1.0047
1.01193
1.02933
1.07345
1.18638
1.49111
2.36906
4.99474
11.4377
11.3151
10.8285
1
1
1
1
1
1
1
1.00001
1.00002
1.00005
1.00012
1.0003
1.00077
1.00183
1.00478
1.01121
1.02928
1.07038
1.18257
1.4755
2.32617
4.85364
11.2038
11.2057
10.8675
1
1
1
1
1
1
1
1.00001
1.00002
1.00005
1.00012
1.0003
1.00073
1.00187
1.00443
1.01153
1.02734
1.07063
1.17541
1.4654
2.28521
4.72964
10.9701
11.1689
10.8621
1
1
1
1
1
1
1
1.00001
1.00002
1.00005
1.00011
1.00031
1.00069
1.00187
1.00427
1.01138
1.02663
1.06906
1.17123
1.4536
2.25126
4.62106
10.7557
11.1494
10.8503
1
1
1
1
1
1
1
1.00001
1.00002
1.00005
1.00012
1.00028
1.00074
1.00168
1.00454
1.01034
1.02759
1.06523
1.17018
1.43985
2.22094
4.52976
10.5675
11.1332
10.8405
1
1
1
1
1
1
1
1.00001
1.00002
1.00004
1.00012
1.00027
1.00072
1.0017
1.00432
1.01059
1.02622
1.06546
1.16505
1.43193
2.192
4.45475
10.4056
11.1199
10.8326
1
1
1
1
1
1
1
1.00001
1.00002
1.00004
1.00012
1.00027
1.00071
1.00167
1.0043
1.01039
1.02599
1.06443
1.16291
1.42519
2.17257
4.39318
10.2691
11.1097
10.827
1
1
1
1
1
1
1
1.00001
1.00002
1.00004
1.00012
1.00027
1.00072
1.00162
1.00437
1.01001
1.02634
1.06285
1.16244
1.41909
2.15932
4.34597
10.1628
11.1026
10.8235
1
1
1
1
1
1
1
1.00001
1.00002
1.00004
1.00012
1.00027
1.00071
1.00162
1.00434
1.00988
1.02642
1.06197
1.16195
1.41512
2.15072
4.31418
10.09
11.0983
10.8216
1
1
1
1
1
1
1
1.00001
1.00002
1.00004
1.00012
1.00027
1.00069
1.00169
1.00413
1.0104
1.02519
1.06367
1.15902
1.41629
2.1432
4.30047
10.0525
11.0966
10.8211
3.8086
3.33141
4.32633
4.32035
4.09061
3.99985
3.95692
3.89013
3.80777
3.73333
3.68638
3.66456
3.65673
3.65554
3.67068
3.70446
3.75465
3.81721
3.88645
3.95968
4.0354
4.1128
4.19088
4.26901
4.34627
4.42212
4.49707
4.56899
4.63667
4.69913
4.75626
4.808
4.85476
4.89662
4.93255
4.96549
4.99391
5.01503
5.0299
5.03939
5.04399
5.04377
5.04104
5.03357
5.02012
5.00313
4.98324
4.96024
4.93446
4.90579
4.87476
4.84134
4.80589
4.76849
4.72936
4.6886
4.64646
4.6029
4.55824
4.51242
4.46569
4.41804
4.36964
4.32054
4.27084
4.22065
4.17004
4.11911
4.06795
4.01665
3.96533
3.91405
3.86294
3.81207
3.76154
3.71142
3.6618
3.61273
3.5643
3.51656
3.46957
3.4234
3.37811
3.33376
3.29041
3.24814
3.20702
3.16715
3.12866
3.09169
3.05637
3.02291
2.99157
2.96269
2.93668
2.91404
2.89535
2.88124
2.87191
2.87006
4.72586
4.28129
4.41627
4.28369
4.06669
4.02638
4.00804
3.90904
3.803
3.7146
3.66978
3.65246
3.64899
3.65391
3.66936
3.70032
3.74944
3.81242
3.88191
3.95495
4.03043
4.10738
4.18508
4.26271
4.33929
4.41347
4.48906
4.56087
4.62869
4.6912
4.74871
4.80075
4.84763
4.88942
4.92643
4.95911
4.98709
5.00854
5.02378
5.03357
5.03825
5.03815
5.03612
5.02979
5.01644
4.9986
4.97854
4.95599
4.93048
4.90211
4.8712
4.83794
4.80261
4.76532
4.7263
4.68564
4.64355
4.6001
4.55547
4.50975
4.46305
4.41548
4.36712
4.31808
4.26844
4.2183
4.16774
4.11687
4.06577
4.01454
3.96328
3.91208
3.86105
3.81027
3.75984
3.70982
3.6603
3.61134
3.563
3.51535
3.46844
3.42234
3.37712
3.33282
3.28955
3.24733
3.20626
3.16643
3.12797
3.09107
3.05583
3.02247
2.99123
2.96246
2.93658
2.91411
2.89561
2.88175
2.87277
2.87206
5.5532
4.84794
4.58177
4.33141
4.11845
4.03772
3.96407
3.88364
3.79327
3.71861
3.67796
3.6635
3.65293
3.6461
3.65761
3.69239
3.74156
3.80598
3.87524
3.94844
4.0241
4.10124
4.17911
4.25689
4.33384
4.40944
4.48397
4.5555
4.62302
4.68559
4.74294
4.79503
4.84187
4.88363
4.92057
4.95302
4.98053
5.00196
5.01733
5.02717
5.03172
5.0316
5.02995
5.02463
5.01265
4.99367
4.97296
4.95033
4.92507
4.89694
4.8662
4.83308
4.79784
4.76064
4.72167
4.68108
4.63902
4.59564
4.55104
4.50537
4.45871
4.41118
4.36286
4.31387
4.26428
4.21419
4.16369
4.11288
4.06185
4.01071
3.95955
3.90848
3.85758
3.80695
3.75668
3.70683
3.65748
3.60868
3.56051
3.51301
3.4663
3.42035
3.37529
3.33109
3.28801
3.24597
3.20513
3.1655
3.12728
3.09048
3.05543
3.02226
2.99129
2.96281
2.93729
2.91523
2.89734
2.88423
2.87667
2.87694
5.9239
5.15619
4.71824
4.43382
4.2209
4.08922
4.00163
3.92138
3.83275
3.75483
3.70118
3.6705
3.65561
3.65668
3.66764
3.69659
3.74641
3.80808
3.87648
3.94861
4.02344
4.10005
4.17748
4.2547
4.33098
4.40547
4.47823
4.54844
4.615
4.67688
4.73368
4.78533
4.83177
4.87317
4.90966
4.94154
4.96842
4.98973
5.00525
5.0152
5.01975
5.01961
5.01824
5.01389
5.00381
4.98476
4.96325
4.94016
4.91495
4.88719
4.85682
4.82403
4.78902
4.75203
4.71324
4.67282
4.63092
4.58768
4.54323
4.49769
4.45117
4.40378
4.35561
4.30674
4.25729
4.20734
4.15698
4.10632
4.05546
4.0045
3.95354
3.90269
3.85204
3.80168
3.7517
3.70214
3.6531
3.60461
3.5567
3.50944
3.46301
3.41734
3.37262
3.32879
3.28592
3.24409
3.20349
3.16412
3.12618
3.08974
3.05507
3.02234
2.99186
2.96398
2.93918
2.918
2.90122
2.88948
2.88439
2.88502
6.12016
5.38962
4.89742
4.57765
4.35572
4.2035
4.10337
4.0246
3.94411
3.8666
3.80407
3.76005
3.73166
3.71656
3.71735
3.72733
3.7559
3.81457
3.88522
3.95744
4.03134
4.10664
4.18241
4.25797
4.33239
4.40508
4.47545
4.54354
4.60809
4.66841
4.72392
4.77449
4.82004
4.86062
4.89637
4.92739
4.95361
4.97459
4.99014
5.00017
5.00477
5.00461
5.00337
4.99964
4.99104
4.97362
4.95158
4.92776
4.90232
4.87477
4.84478
4.81238
4.7777
4.74098
4.70241
4.6622
4.62049
4.57743
4.53316
4.48779
4.44144
4.39421
4.34621
4.29752
4.24823
4.19846
4.14829
4.09783
4.04719
3.99649
3.94581
3.89527
3.84495
3.795
3.74541
3.69619
3.6475
3.59938
3.55195
3.50517
3.45912
3.41383
3.36944
3.32592
3.28342
3.24197
3.20175
3.16282
3.12537
3.0895
3.05545
3.02341
2.99377
2.9669
2.94334
2.92366
2.90869
2.89923
2.89724
2.89821
6.25412
5.59663
5.10233
4.75944
4.52724
4.37393
4.27784
4.20834
4.13808
4.05963
3.97939
3.90544
3.84419
3.80201
3.78506
3.7871
3.79902
3.83058
3.89485
3.96971
4.0458
4.12135
4.19493
4.26747
4.33834
4.40719
4.47403
4.53835
4.59985
4.65773
4.71136
4.76042
4.80475
4.84426
4.87904
4.90913
4.93458
4.95511
4.97055
4.9807
4.98546
4.98531
4.98421
4.98094
4.97344
4.95806
4.93641
4.91225
4.88648
4.8589
4.82918
4.79715
4.76287
4.7265
4.68825
4.64831
4.60686
4.56405
4.52002
4.47489
4.42879
4.3818
4.33403
4.28558
4.23653
4.187
4.13708
4.0869
4.03655
3.98617
3.93586
3.8857
3.83577
3.7863
3.73726
3.68872
3.64064
3.59306
3.54614
3.49981
3.45422
3.40935
3.36539
3.3223
3.28029
3.23935
3.1997
3.16139
3.12466
3.08962
3.05648
3.02555
2.99722
2.97193
2.95026
2.9329
2.92062
2.91496
2.91525
2.91711
6.36094
5.78224
5.31438
4.97288
4.73922
4.59288
4.50688
4.44936
4.38719
4.30438
4.20432
4.09969
4.00553
3.93281
3.8865
3.86868
3.87127
3.88376
3.91587
3.98126
4.0598
4.13737
4.21082
4.281
4.34778
4.4119
4.47391
4.53405
4.59175
4.64648
4.69764
4.74479
4.78757
4.82579
4.85936
4.88842
4.91298
4.9329
4.94806
4.95823
4.96311
4.96297
4.96194
4.95897
4.95221
4.93837
4.9179
4.89409
4.86819
4.84048
4.81082
4.77905
4.74514
4.70916
4.67129
4.6317
4.59057
4.54807
4.50435
4.45952
4.41371
4.36702
4.31955
4.27139
4.22264
4.17342
4.12384
4.074
4.02409
3.97412
3.92435
3.87489
3.82579
3.77694
3.72851
3.68051
3.63301
3.58595
3.53953
3.49369
3.44863
3.40429
3.36089
3.3184
3.27703
3.2368
3.19792
3.1605
3.12478
3.09082
3.05902
3.0297
3.00327
2.98027
2.9613
2.94727
2.93894
2.93804
2.93898
2.94244
6.45635
5.95476
5.53308
5.21507
4.99804
4.86782
4.79711
4.74877
4.68564
4.58942
4.46478
4.32834
4.19906
4.09223
4.01448
3.969
3.95633
3.95989
3.97376
4.00708
4.07395
4.15018
4.22389
4.29263
4.35629
4.41656
4.47448
4.53011
4.58337
4.63424
4.68228
4.72697
4.76782
4.80454
4.83672
4.86469
4.88819
4.90736
4.92207
4.93204
4.9371
4.93698
4.93604
4.93328
4.92703
4.91427
4.89521
4.87228
4.84669
4.81894
4.78927
4.75761
4.72399
4.68837
4.65092
4.61172
4.57101
4.52888
4.48554
4.44108
4.39564
4.3493
4.3022
4.25439
4.20601
4.15715
4.108
4.05856
4.0092
3.96006
3.9111
3.86241
3.81402
3.76586
3.71806
3.67064
3.62372
3.57729
3.53149
3.48629
3.44189
3.39825
3.35557
3.31387
3.27333
3.23405
3.19622
3.16003
3.1256
3.09323
3.06328
3.03617
3.01239
2.99255
2.97738
2.9678
2.96533
2.96621
2.96912
2.97693
6.5568
6.13175
5.76827
5.49258
5.30804
5.20091
5.14191
5.08929
5.00842
4.88688
4.73324
4.56727
4.40884
4.27371
4.1691
4.0987
4.06123
4.05384
4.05749
4.07081
4.10219
4.16387
4.23195
4.29747
4.35933
4.41783
4.47276
4.52439
4.57347
4.6204
4.66504
4.70696
4.7456
4.78052
4.81133
4.83809
4.86043
4.87884
4.89302
4.90272
4.90777
4.90767
4.90678
4.90419
4.89835
4.88643
4.86875
4.84705
4.82221
4.79479
4.76524
4.7337
4.7003
4.66503
4.62801
4.58929
4.54905
4.50739
4.46451
4.42049
4.37548
4.32957
4.28287
4.23547
4.18752
4.13903
4.09044
4.04192
3.99343
3.9451
3.89696
3.849
3.80129
3.75383
3.70673
3.66
3.61377
3.56805
3.52298
3.47855
3.43492
3.39212
3.3503
3.30957
3.27007
3.232
3.19552
3.16081
3.12807
3.09779
3.07029
3.04609
3.02578
3.01007
2.99971
2.9961
2.99679
2.99945
3.00651
3.02217
6.67656
6.33073
6.03659
5.81597
5.67081
5.58179
5.51774
5.44058
5.32617
5.1721
4.99145
4.80357
4.62588
4.47161
4.34671
4.25529
4.19502
4.16318
4.15436
4.15677
4.16687
4.19162
4.24152
4.29823
4.35589
4.41235
4.46547
4.51476
4.56094
4.60458
4.64597
4.68495
4.7211
4.75398
4.78322
4.80866
4.83011
4.84769
4.86128
4.87065
4.87563
4.87553
4.87468
4.87219
4.8666
4.85524
4.83872
4.81827
4.79442
4.76762
4.7384
4.70706
4.67386
4.63888
4.60223
4.56397
4.52422
4.48309
4.44072
4.39721
4.35269
4.30725
4.261
4.21406
4.1666
4.11902
4.07126
4.02358
3.97595
3.92842
3.88102
3.8338
3.78682
3.74014
3.69382
3.64789
3.60247
3.55757
3.51335
3.46981
3.42711
3.38532
3.34459
3.30506
3.26691
3.23038
3.19568
3.16284
3.1324
3.10481
3.08054
3.06017
3.04438
3.03399
3.02982
3.03045
3.03295
3.03962
3.05363
3.08246
6.83218
6.56769
6.34819
6.18463
6.07082
5.98218
5.89143
5.77313
5.61764
5.43266
5.23239
5.03225
4.84527
4.6805
4.54313
4.43401
4.35321
4.29813
4.26566
4.24953
4.24994
4.2548
4.2699
4.30266
4.35124
4.39974
4.44997
4.49796
4.54295
4.58481
4.62385
4.66021
4.69381
4.72447
4.75193
4.77603
4.79658
4.81345
4.82656
4.83555
4.8405
4.8404
4.83954
4.83708
4.83166
4.82071
4.8052
4.78594
4.7632
4.73729
4.70869
4.67776
4.64488
4.61022
4.57396
4.53617
4.49696
4.4564
4.41461
4.37168
4.3277
4.2828
4.23703
4.19074
4.14417
4.09749
4.05071
4.0039
3.95712
3.91041
3.86383
3.81745
3.77132
3.72551
3.68007
3.63505
3.59055
3.54662
3.50336
3.46088
3.41928
3.37871
3.3393
3.30127
3.26482
3.23025
3.19748
3.16717
3.13973
3.11562
3.09545
3.07993
3.06979
3.06582
3.06648
3.06913
3.07627
3.0915
3.11283
3.15272
7.03742
6.8553
6.70542
6.58596
6.48164
6.36942
6.2332
6.06702
5.87484
5.6675
5.457
5.25346
5.06487
4.89625
4.75098
4.62858
4.52996
4.45356
4.39752
4.35889
4.33581
4.32595
4.32745
4.33491
4.35359
4.39147
4.42916
4.47282
4.51658
4.5581
4.59634
4.6312
4.66284
4.69147
4.71721
4.73996
4.7596
4.77587
4.78866
4.79753
4.80239
4.80228
4.80143
4.79904
4.7938
4.78326
4.76859
4.75035
4.72871
4.70382
4.67606
4.64579
4.6134
4.57918
4.54334
4.50604
4.46737
4.4274
4.38623
4.34391
4.30052
4.25617
4.2112
4.16585
4.12026
4.07451
4.02864
3.98274
3.93683
3.89101
3.84533
3.79986
3.75467
3.70979
3.66532
3.6213
3.57783
3.53497
3.49286
3.45159
3.41131
3.37219
3.33442
3.29824
3.26395
3.23156
3.20149
3.17437
3.15067
3.13097
3.11597
3.10645
3.10307
3.1038
3.10678
3.11426
3.12993
3.15732
3.18263
3.22508
7.30685
7.19708
7.09723
6.99489
6.87154
6.71561
6.52878
6.32057
6.10206
5.88302
5.67056
5.4698
5.28404
5.11534
4.96482
4.83221
4.71854
4.62309
4.54521
4.48409
4.43834
4.40709
4.38808
4.38373
4.38627
4.39588
4.41795
4.44772
4.48348
4.52289
4.56066
4.59511
4.62593
4.65345
4.67802
4.69974
4.71858
4.73441
4.74689
4.75576
4.7608
4.7607
4.7599
4.75764
4.75268
4.74272
4.72875
4.71142
4.69083
4.66704
4.6403
4.6109
4.57924
4.54563
4.51034
4.47358
4.43548
4.39613
4.35559
4.31388
4.27114
4.22763
4.18368
4.13935
4.09477
4.04999
4.00508
3.96013
3.91519
3.87034
3.82565
3.78118
3.737
3.69317
3.64977
3.60687
3.56457
3.52296
3.48218
3.44236
3.40368
3.36634
3.33059
3.29676
3.26494
3.2353
3.20873
3.18565
3.16666
3.15239
3.14375
3.14143
3.14238
3.14578
3.15438
3.1722
3.19854
3.23052
3.25621
3.29598
7.63838
7.57836
7.50074
7.38463
7.2179
7.00933
6.77778
6.54029
6.30787
6.08645
5.87807
5.68348
5.50232
5.33461
5.18015
5.03864
4.91225
4.8004
4.70355
4.62202
4.55538
4.50318
4.46413
4.4385
4.42327
4.42332
4.42647
4.43652
4.45739
4.48474
4.51814
4.55085
4.58113
4.60855
4.63293
4.65429
4.67274
4.6883
4.70067
4.70961
4.71518
4.71514
4.71447
4.71247
4.70797
4.69881
4.68562
4.6692
4.64964
4.62699
4.60139
4.57307
4.54236
4.50957
4.47501
4.4389
4.40145
4.36274
4.32282
4.28179
4.23991
4.19747
4.15458
4.11132
4.06778
4.02402
3.98015
3.93623
3.89234
3.84854
3.80492
3.76153
3.71846
3.67579
3.63358
3.59195
3.55098
3.51082
3.47159
3.4335
3.39675
3.3616
3.32837
3.29734
3.26835
3.24249
3.22022
3.20219
3.18898
3.18114
3.18027
3.18147
3.18564
3.19552
3.21566
3.24367
3.2739
3.30545
3.32826
3.36238
8.01428
7.97639
7.89672
7.73699
7.50838
7.2496
6.98742
6.73621
6.50164
6.28477
6.08351
5.89554
5.71839
5.55109
5.393
5.24535
5.10692
4.981
4.86818
4.7691
4.68382
4.61229
4.55395
4.50865
4.47532
4.45448
4.44339
4.44389
4.44772
4.45762
4.47787
4.50291
4.53007
4.55674
4.58114
4.60271
4.62129
4.63697
4.64938
4.6586
4.66463
4.66532
4.66478
4.66301
4.659
4.65085
4.63869
4.62332
4.60488
4.58343
4.55909
4.53203
4.50248
4.47075
4.43711
4.40184
4.36514
4.32713
4.28789
4.24773
4.20692
4.1656
4.12382
4.08168
4.03923
3.9966
3.95383
3.91102
3.86825
3.8256
3.78314
3.74094
3.69911
3.65771
3.61686
3.57666
3.53725
3.49878
3.46143
3.42543
3.39105
3.35862
3.32856
3.30043
3.27544
3.25424
3.23733
3.22553
3.2189
3.21909
3.2208
3.22607
3.23779
3.26089
3.28953
3.32068
3.35013
3.37766
3.39545
3.42245
8.41551
8.37492
8.26807
8.04194
7.74215
7.44621
7.17083
6.91967
6.69135
6.48253
6.28857
6.10559
5.93053
5.76221
5.60019
5.4455
5.29844
5.16148
5.0356
4.92182
4.82053
4.73202
4.65617
4.59276
4.54127
4.50165
4.47322
4.4555
4.44675
4.44721
4.45036
4.4594
4.47813
4.50019
4.52281
4.54426
4.56335
4.57958
4.59246
4.60222
4.60877
4.61065
4.61022
4.60876
4.60539
4.59851
4.58753
4.57337
4.5562
4.53611
4.51317
4.48753
4.45936
4.42891
4.39643
4.3622
4.32642
4.28921
4.2509
4.21184
4.17218
4.13201
4.09141
4.05044
4.00919
3.96774
3.92617
3.88458
3.84303
3.80162
3.76043
3.71957
3.67911
3.63916
3.59986
3.56133
3.52374
3.48727
3.45219
3.41874
3.38729
3.35832
3.3313
3.30742
3.28748
3.27197
3.2617
3.25702
3.25755
3.26014
3.26705
3.28182
3.30691
3.33682
3.36805
3.39763
3.42277
3.44396
3.45576
3.47589
8.8454
8.76531
8.57825
8.25796
7.92596
7.61937
7.34556
7.1021
6.88291
6.68177
6.49291
6.31221
6.13697
5.96629
5.80018
5.63961
5.48535
5.33955
5.20315
5.07728
4.96257
4.85949
4.76814
4.68838
4.62015
4.56331
4.51754
4.48253
4.45748
4.44312
4.43474
4.43487
4.43764
4.44546
4.46159
4.48005
4.49867
4.51523
4.52914
4.53975
4.5472
4.55067
4.55042
4.54936
4.54678
4.54139
4.53169
4.5189
4.5032
4.48465
4.46331
4.43928
4.41268
4.38373
4.35265
4.31969
4.28499
4.2489
4.21183
4.17402
4.13559
4.09665
4.05729
4.01758
3.97761
3.93744
3.89718
3.85689
3.81668
3.77665
3.73688
3.69749
3.65859
3.62032
3.58281
3.54624
3.51082
3.47679
3.44446
3.41416
3.38647
3.36085
3.33821
3.31986
3.3059
3.29732
3.29495
3.29596
3.29951
3.30848
3.32696
3.35391
3.38505
3.4166
3.44569
3.47031
3.48905
3.50302
3.50962
3.52304
9.27601
9.09235
8.77291
8.42142
8.08678
7.78677
7.523
7.28945
7.07814
6.88179
6.69477
6.51353
6.33618
6.16223
5.99205
5.8265
5.66656
5.51345
5.36862
5.23299
5.10729
4.99195
4.8872
4.79322
4.70999
4.63751
4.57554
4.52398
4.48259
4.45124
4.43001
4.41574
4.4059
4.40638
4.40921
4.41637
4.43072
4.44505
4.45913
4.47062
4.4793
4.48483
4.48529
4.48471
4.4829
4.47891
4.47088
4.45962
4.44553
4.42868
4.40912
4.38688
4.36207
4.33485
4.30542
4.27397
4.24071
4.20611
4.1705
4.13409
4.09702
4.05944
4.02143
3.98307
3.94448
3.9057
3.86685
3.82801
3.78929
3.75078
3.71262
3.67491
3.63781
3.60148
3.56607
3.53186
3.49904
3.468
3.43906
3.41283
3.38884
3.36777
3.35103
3.33932
3.33207
3.33226
3.33395
3.33905
3.35044
3.37323
3.40209
3.43405
3.46584
3.49456
3.5183
3.53614
3.54791
3.55507
3.55813
3.56493
9.61959
9.28418
8.91667
8.5628
8.2415
7.95747
7.70688
7.48225
7.27565
7.08041
6.89207
6.70805
6.52731
6.34968
6.17565
6.0059
5.84139
5.68253
5.53106
5.38762
5.25294
5.12741
5.01145
4.90526
4.80889
4.72233
4.64559
4.57871
4.52168
4.47444
4.43678
4.4097
4.38765
4.37163
4.36516
4.3656
4.36798
4.37387
4.38526
4.39565
4.40504
4.41208
4.41501
4.41473
4.4136
4.41082
4.40506
4.39545
4.38304
4.36798
4.35029
4.32999
4.30717
4.28191
4.2544
4.22477
4.19335
4.16057
4.12668
4.0919
4.05638
4.02031
3.98377
3.94691
3.9098
3.87254
3.83525
3.79801
3.76095
3.72416
3.68783
3.65207
3.61707
3.58302
3.55016
3.51876
3.48916
3.46177
3.43722
3.41507
3.39584
3.38105
3.37144
3.36725
3.36789
3.37082
3.37845
3.39449
3.42016
3.45094
3.48373
3.51556
3.54378
3.56674
3.58349
3.59413
3.59949
3.6012
3.60175
3.60386
9.83575
9.41646
9.03442
8.69599
8.39774
8.13376
7.8967
7.67855
7.47298
7.27548
7.08339
6.89521
6.71047
6.52914
6.35158
6.17826
6.00981
5.84648
5.68981
5.5401
5.39805
5.26409
5.13868
5.02195
4.91415
4.81522
4.72543
4.64481
4.5734
4.5112
4.4583
4.41486
4.38145
4.35287
4.33065
4.31839
4.31257
4.31284
4.31451
4.31876
4.3267
4.33336
4.33838
4.33945
4.33897
4.33739
4.33381
4.32656
4.31598
4.30267
4.2868
4.26848
4.24775
4.22468
4.19935
4.17191
4.14274
4.11209
4.08021
4.0473
4.01356
3.97918
3.94429
3.90907
3.8736
3.83803
3.80245
3.767
3.73181
3.69701
3.66279
3.6293
3.59679
3.56547
3.53567
3.50773
3.48209
3.45945
3.43941
3.42217
3.40989
3.40208
3.40136
3.40274
3.40721
3.41794
3.43944
3.46775
3.50029
3.53381
3.5656
3.59333
3.61536
3.63115
3.64055
3.6446
3.64444
3.64351
3.64099
3.64134
9.98185
9.50968
9.13679
8.82862
8.56018
8.31666
8.08964
7.87402
7.6663
7.46446
7.26746
7.07472
6.88598
6.70119
6.52049
6.34407
6.17229
6.00556
5.84427
5.68938
5.54132
5.40041
5.26704
5.14141
5.02377
4.9142
4.81292
4.71991
4.63537
4.5595
4.49253
4.43447
4.38552
4.34636
4.31144
4.2835
4.26567
4.25505
4.24925
4.24926
4.25005
4.25224
4.2567
4.25955
4.25945
4.2588
4.2569
4.25276
4.24455
4.23304
4.21898
4.20264
4.18407
4.16331
4.14041
4.11549
4.08883
4.0606
4.031
4.00022
3.96851
3.93605
3.90304
3.86964
3.83601
3.80231
3.76866
3.73525
3.70218
3.66968
3.63791
3.60712
3.57756
3.54957
3.5235
3.49984
3.47929
3.46164
3.4467
3.43687
3.43238
3.43299
3.4357
3.44322
3.45895
3.48456
3.51569
3.54973
3.58382
3.61542
3.64276
3.66391
3.67869
3.6872
3.68956
3.68914
3.68748
3.68344
3.675
3.67449
10.0603
9.58181
9.24048
8.96953
8.72911
8.50131
8.27962
8.0629
7.85111
7.64438
7.44268
7.24585
7.05368
6.86596
6.68257
6.50351
6.32892
6.15904
5.99399
5.83488
5.68185
5.53513
5.39503
5.26179
5.13565
5.01678
4.90538
4.80156
4.70562
4.61758
4.53774
4.46625
4.40328
4.34895
4.30438
4.26404
4.231
4.20795
4.19213
4.18253
4.17709
4.17554
4.17576
4.17645
4.17696
4.1767
4.17573
4.17334
4.16827
4.15904
4.14722
4.13309
4.11677
4.09837
4.07799
4.05572
4.03172
4.00611
3.97903
3.95067
3.92125
3.89096
3.86006
3.82873
3.79718
3.76559
3.73414
3.70302
3.67243
3.64258
3.61373
3.58615
3.56018
3.5362
3.51475
3.49659
3.48144
3.46943
3.46179
3.46136
3.46277
3.46749
3.47865
3.50092
3.52974
3.56335
3.59876
3.63334
3.66471
3.69127
3.71155
3.72555
3.73325
3.73456
3.73393
3.73192
3.72705
3.71799
3.70473
3.70292
10.0814
9.65161
9.35696
9.11935
8.89756
8.6775
8.45722
8.23856
8.02349
7.81319
7.60813
7.40829
7.21346
7.02332
6.83762
6.65624
6.47914
6.30641
6.13816
5.97539
5.81811
5.66647
5.52066
5.38092
5.24747
5.12055
5.00038
4.88712
4.78103
4.68224
4.59103
4.50758
4.43219
4.3651
4.30638
4.25693
4.21127
4.17377
4.14547
4.12485
4.1108
4.10208
4.09716
4.0948
4.09388
4.09319
4.09217
4.09033
4.08687
4.08073
4.07183
4.06035
4.04652
4.03056
4.01266
3.99304
3.97176
3.94889
3.92451
3.89878
3.87189
3.84407
3.81555
3.78658
3.75739
3.72821
3.69928
3.67082
3.64311
3.61639
3.591
3.56728
3.54565
3.52655
3.51111
3.49869
3.4895
3.48587
3.48659
3.48987
3.49818
3.51548
3.54208
3.5745
3.61016
3.64667
3.68158
3.71278
3.73865
3.75838
3.77144
3.77836
3.77872
3.77796
3.77567
3.7703
3.75965
3.74789
3.7323
3.72886
10.0802
9.72508
9.47844
9.26367
9.05066
8.83348
8.61401
8.39527
8.17954
7.96815
7.76174
7.56041
7.36398
7.17217
6.98473
6.80144
6.62224
6.44713
6.27626
6.10972
5.9486
5.79268
5.64198
5.49667
5.35697
5.22313
5.09539
4.97396
4.85911
4.75099
4.64989
4.55596
4.46951
4.39074
4.31992
4.25725
4.20327
4.15336
4.11211
4.07976
4.05497
4.03694
4.0246
4.01675
4.01216
4.00945
4.00756
4.00584
4.00346
3.99954
3.99336
3.98474
3.97369
3.96039
3.94515
3.92821
3.90964
3.8895
3.86789
3.84493
3.82078
3.79567
3.76982
3.74351
3.71702
3.69062
3.66459
3.63926
3.61491
3.59192
3.57067
3.55157
3.53528
3.52251
3.51349
3.50688
3.50713
3.50913
3.51509
3.52809
3.55243
3.58267
3.61774
3.65528
3.69281
3.72795
3.75887
3.78416
3.80318
3.81554
3.82183
3.82175
3.82084
3.81821
3.8124
3.80158
3.78812
3.77467
3.75781
3.75306
10.0821
9.79834
9.58859
9.38584
9.17621
8.96161
8.74534
8.52979
8.31659
8.10688
7.90132
7.70017
7.5034
7.31082
7.12227
6.93756
6.75664
6.57945
6.40595
6.23628
6.07181
5.91208
5.75711
5.607
5.46194
5.32219
5.18799
5.0596
4.93725
4.82115
4.71154
4.60859
4.51257
4.42366
4.3422
4.26834
4.20255
4.14444
4.0911
4.04675
4.01062
3.98219
3.96079
3.94549
3.93519
3.92859
3.92444
3.92168
3.91936
3.91671
3.91273
3.90684
3.89867
3.8883
3.87592
3.86176
3.84594
3.82858
3.80978
3.78968
3.76843
3.74625
3.72336
3.70006
3.67663
3.65342
3.63077
3.60908
3.58872
3.57013
3.55385
3.54029
3.5306
3.52438
3.52253
3.52374
3.52814
3.53839
3.55924
3.58711
3.62112
3.65883
3.69793
3.73627
3.77165
3.80237
3.8272
3.84564
3.85767
3.8631
3.863
3.86201
3.85917
3.85299
3.84205
3.82882
3.81374
3.799
3.78121
3.77547
10.0985
9.86135
9.67265
9.4761
9.27058
9.06155
8.85168
8.64209
8.43388
8.22795
8.02505
7.82555
7.62959
7.43716
7.2482
7.06265
6.88047
6.70167
6.52625
6.35435
6.18622
6.02286
5.86411
5.70987
5.56029
5.41559
5.27599
5.14179
5.01315
4.89036
4.77356
4.66296
4.55881
4.46125
4.37061
4.28709
4.21094
4.14269
4.08113
4.02512
3.97819
3.93925
3.90795
3.88377
3.86595
3.85356
3.84521
3.84
3.83652
3.83384
3.83116
3.82754
3.82211
3.8148
3.80546
3.79424
3.78126
3.76671
3.75076
3.73356
3.71537
3.69632
3.67671
3.65675
3.63684
3.61731
3.59863
3.58122
3.5656
3.55226
3.54192
3.53503
3.53263
3.53333
3.53661
3.54477
3.56165
3.58746
3.61968
3.65662
3.69646
3.73707
3.7762
3.81182
3.84239
3.86695
3.885
3.89674
3.90192
3.90178
3.90077
3.89789
3.89172
3.881
3.86778
3.85311
3.83688
3.8211
3.80257
3.79609
10.1327
9.90966
9.72708
9.53618
9.33837
9.1379
8.93624
8.73399