/*--------------------------------*- C++ -*----------------------------------*\
  =========                 |
  \\      /  F ield         | OpenFOAM: The Open Source CFD Toolbox
   \\    /   O peration     | Website:  https://openfoam.org
    \\  /    A nd           | Version:  13
     \\/     M anipulation  |
\*---------------------------------------------------------------------------*/
FoamFile
{
    format      ascii;
    class       surfaceScalarField;
    location    "9.5";
    object      phi;
}
// * * * * * * * * * * * * * * * * * * * * * * * * * * * * * * * * * * * * * //

dimensions      [1 0 -1 0 0 0 0];

internalField   nonuniform List<scalar> 
10325
(
0.00840003
7.10094e-11
0.00840004
4.71902e-10
0.00840003
1.60758e-09
0.00839999
4.54308e-09
0.00840002
1.18941e-08
0.00839993
2.95165e-08
0.00839963
7.55355e-08
0.00839994
1.83892e-07
0.00839814
4.75891e-07
0.00839853
1.18115e-06
0.0083944
3.18809e-06
0.00838502
9.16209e-06
0.00835171
3.02039e-05
0.00822639
0.000124525
0.00763297
0.000587306
0.00702278
0.000610643
0.00641518
0.00060811
0.00578496
0.000630367
0.00512222
0.000662848
0.00441197
0.000710201
0.00364396
0.00076782
0.0028183
0.000825467
0.00193889
0.000879108
0.00100302
0.000935564
0.0010027
0.00840003
2.35574e-10
0.00840004
6.81794e-10
0.00840003
4.31575e-09
0.00839999
6.95987e-09
0.0084
2.91354e-08
0.00839997
5.17156e-08
0.00839954
1.69773e-07
0.00840011
3.59399e-07
0.00839779
9.95326e-07
0.00839889
2.41846e-06
0.00839364
6.51612e-06
0.00838475
1.8757e-05
0.00834976
6.15231e-05
0.00822356
0.000250185
0.0076265
0.00117811
0.00701207
0.00122555
0.00641339
0.00120731
0.00578829
0.00125562
0.00512789
0.00132335
0.0044109
0.00142714
0.003635
0.00154353
0.00280078
0.00165948
0.00190935
0.00177024
0.000968102
0.0018765
0.00197048
0.00840003
2.06371e-10
0.00840002
1.71806e-09
0.00840009
4.3671e-09
0.00839989
1.60848e-08
0.00840026
3.53205e-08
0.00839952
9.32827e-08
0.00840042
2.59072e-07
0.00839855
5.16535e-07
0.00840048
1.67812e-06
0.00839493
3.31941e-06
0.00839782
1.0346e-05
0.00838134
2.75168e-05
0.0083523
9.30335e-05
0.00823023
0.000369126
0.00764488
0.00175727
0.00702806
0.00184301
0.00643747
0.00179847
0.00582056
0.00187267
0.0051651
0.00197888
0.00445058
0.00214163
0.00367237
0.00232157
0.002832
0.00249958
0.00192963
0.00267227
0.000975665
0.00283013
0.00294579
0.00840002
3.61195e-10
0.00840006
1.77681e-09
0.00839994
7.44772e-09
0.00840023
1.78748e-08
0.00839957
5.29302e-08
0.00840108
1.30043e-07
0.00839764
3.03761e-07
0.00840435
8.66452e-07
0.00839137
1.78279e-06
0.00840888
5.30629e-06
0.00838206
1.25949e-05
0.00839461
3.79948e-05
0.00835022
0.000121051
0.00824393
0.000479496
0.00767913
0.00231333
0.00706584
0.00245692
0.00648654
0.00237844
0.00588124
0.0024781
0.00523577
0.00262447
0.00452976
0.00284761
0.00375667
0.00309445
0.00291347
0.00334264
0.00199782
0.00358766
0.00101625
0.00381133
0.00396169
0.00840003
4.73174e-10
0.00840002
2.09503e-09
0.00840009
9.49242e-09
0.0083999
2.03635e-08
0.00840027
7.0142e-08
0.00839947
1.38219e-07
0.00840066
4.47745e-07
0.00839818
8.67099e-07
0.00840132
2.68996e-06
0.00839401
5.80357e-06
0.00839899
1.68014e-05
0.00838089
4.57605e-05
0.00835687
0.000150107
0.00825518
0.000576819
0.00773277
0.00282872
0.00712583
0.00306497
0.00655791
0.00294712
0.00596764
0.00306848
0.00533758
0.00325464
0.00464669
0.00353841
0.00388301
0.00385779
0.00303951
0.00418577
0.00210642
0.00452022
0.00108419
0.00483326
0.00504554
0.00840003
4.8565e-10
0.00840001
2.93107e-09
0.0084001
1.00211e-08
0.00839985
2.87605e-08
0.00840047
7.52188e-08
0.00839891
1.86435e-07
0.00840257
4.90432e-07
0.00839431
1.12436e-06
0.00841011
3.06307e-06
0.00838187
7.11535e-06
0.00841324
1.97337e-05
0.00837068
5.42018e-05
0.00836811
0.000175711
0.00827081
0.00066058
0.00782404
0.00326911
0.0072222
0.00366851
0.0066601
0.00351013
0.00608649
0.0036422
0.00547664
0.00386452
0.004807
0.00420805
0.00405906
0.00460571
0.00321879
0.00502596
0.0022678
0.00547084
0.00118927
0.00591129
0.00623432
0.00840003
5.24097e-10
0.00840003
3.37403e-09
0.00840002
1.13628e-08
0.00840005
3.29326e-08
0.00839998
8.44296e-08
0.0083999
2.16853e-07
0.0084001
5.31954e-07
0.00839864
1.3452e-06
0.00840094
3.30907e-06
0.00839534
8.46604e-06
0.00839735
2.1943e-05
0.00838629
6.19027e-05
0.00836923
0.000195687
0.00830052
0.000723632
0.00799384
0.00356705
0.00737572
0.00428847
0.00681232
0.00407467
0.00625282
0.00420185
0.00566543
0.00445201
0.00502339
0.00485001
0.00429749
0.00533131
0.00346639
0.00585671
0.00249987
0.00643689
0.00135439
0.00705623
0.00758813
0.00840003
5.15585e-10
0.00840003
3.57093e-09
0.00840002
1.1878e-08
0.00840004
3.4924e-08
0.00840001
8.89312e-08
0.00839986
2.36625e-07
0.00840031
5.55304e-07
0.00839835
1.49894e-06
0.00840215
3.45011e-06
0.0083942
9.38063e-06
0.00840151
2.32803e-05
0.00838839
6.65058e-05
0.0083848
0.000205788
0.00835369
0.000747212
0.00829481
0.00361699
0.00764823
0.00493761
0.00704798
0.0046763
0.00649017
0.00475986
0.00592504
0.00501729
0.00531026
0.00546476
0.00461504
0.00602619
0.00380499
0.00666633
0.00283967
0.00740169
0.00162631
0.00826902
0.00921382
0.00840003
5.14488e-10
0.00840001
3.70054e-09
0.00840009
1.14903e-08
0.00839989
3.59999e-08
0.00840039
8.6241e-08
0.00839922
2.38467e-07
0.00840203
5.52177e-07
0.00839596
1.48721e-06
0.00840854
3.48612e-06
0.00838655
9.2849e-06
0.00841696
2.32934e-05
0.00838454
6.53162e-05
0.00841587
0.000199764
0.0084387
0.000708624
0.0087889
0.00325917
0.00810871
0.00562075
0.00740944
0.00537712
0.00684617
0.00532349
0.00627867
0.00558492
0.00569469
0.00604875
0.0050325
0.00668821
0.00428847
0.00740995
0.00338386
0.00830576
0.00210306
0.00954905
0.011316
0.00840003
5.63107e-10
0.00840002
2.89958e-09
0.00840007
1.15073e-08
0.00839995
2.83891e-08
0.00840026
8.45679e-08
0.00839962
1.8814e-07
0.00840114
5.3482e-07
0.00839833
1.15763e-06
0.00840436
3.26679e-06
0.0083963
7.32619e-06
0.00841371
2.01133e-05
0.00840909
5.19868e-05
0.00846687
0.000156449
0.00863999
0.000525888
0.00962531
0.00226416
0.00889776
0.00635045
0.00794921
0.00632704
0.00738005
0.00589333
0.00678012
0.00618506
0.00621559
0.00661337
0.00562465
0.00727898
0.00498114
0.0080531
0.00414776
0.00913849
0.00293503
0.0107608
0.0142498
0.00840003
4.05262e-10
0.00840002
2.86834e-09
0.00840006
8.8368e-09
0.00839998
2.78577e-08
0.0084002
6.6045e-08
0.00839962
1.79018e-07
0.00840122
4.27447e-07
0.00839768
1.07352e-06
0.00840649
2.66647e-06
0.00839144
6.5163e-06
0.00841909
1.67002e-05
0.00839879
4.37455e-05
0.00845197
0.000126914
0.00854537
0.000416741
0.0090852
0.00172412
0.00897958
0.0064529
0.00851524
0.00679002
0.00785407
0.006555
0.0073272
0.00671187
0.00682084
0.00711951
0.00636422
0.00773522
0.00587232
0.00854439
0.00543385
0.00957604
0.00538003
0.0108131
0.011363
0.0082646
0.00840003
3.91847e-10
0.00840004
2.43746e-09
0.00840001
8.68333e-09
0.00840009
2.39366e-08
0.00839994
6.35556e-08
0.0084002
1.63769e-07
0.00839991
3.83246e-07
0.00839994
1.04135e-06
0.00840059
2.29127e-06
0.00839973
6.39472e-06
0.00840249
1.4723e-05
0.00840553
4.09197e-05
0.00841726
0.000113466
0.00846002
0.00037172
0.00873098
0.00145139
0.00885449
0.00632203
0.00859079
0.00705252
0.00811732
0.00702788
0.00771532
0.00711353
0.00731996
0.00751456
0.00697172
0.00808292
0.00669458
0.00882054
0.00658431
0.00968488
0.00696233
0.0104336
0.0104706
0.00785093
0.00840003
3.54695e-10
0.00840002
2.52061e-09
0.00840007
7.78565e-09
0.00839996
2.45319e-08
0.00840021
5.86546e-08
0.00839967
1.58132e-07
0.00840097
3.80976e-07
0.00839822
9.48567e-07
0.008404
2.39263e-06
0.00839379
5.74265e-06
0.00841048
1.49684e-05
0.00839054
3.81709e-05
0.00841808
0.000108523
0.00842887
0.000343707
0.0085978
0.00128718
0.00890117
0.00600892
0.00862458
0.00732849
0.00829329
0.00735908
0.0080101
0.00739609
0.00775049
0.00777311
0.00752064
0.00831185
0.00740469
0.00893547
0.00755009
0.0095376
0.00799241
0.00998826
0.00993844
0.00852077
0.00840003
3.49904e-10
0.00840004
2.30682e-09
0.00840001
7.72468e-09
0.0084001
2.24818e-08
0.00839989
5.74924e-08
0.00840042
1.49726e-07
0.00839927
3.63603e-07
0.00840203
9.33511e-07
0.00839625
2.23195e-06
0.0084078
5.76157e-06
0.00838969
1.40654e-05
0.00841546
3.72695e-05
0.00839484
0.000102148
0.0084382
0.00031963
0.00856126
0.00115265
0.00922027
0.00534326
0.00892463
0.00762451
0.00858668
0.00769671
0.00832775
0.00765494
0.00815464
0.0079455
0.0080447
0.00841983
0.00806106
0.00891701
0.00824809
0.00934855
0.00862838
0.00960542
0.00949316
0.00906846
0.00840003
3.28599e-10
0.00840004
2.03675e-09
0.00840002
7.092e-09
0.00840007
1.9902e-08
0.00839993
5.27361e-08
0.00840036
1.32825e-07
0.00839935
3.33805e-07
0.00840205
8.27629e-07
0.00839642
2.05842e-06
0.00840953
5.13694e-06
0.00838819
1.28969e-05
0.00842428
3.32395e-05
0.00839994
9.04528e-05
0.00847412
0.000273476
0.00865814
0.000951539
0.00994089
0.00405487
0.00947601
0.00808901
0.00906347
0.0081088
0.00873921
0.00797846
0.0085667
0.00811691
0.00851592
0.00846916
0.00857822
0.00885316
0.008773
0.00914996
0.00909451
0.00928048
0.00911642
0.00946592
0.00840003
2.66276e-10
0.00840004
1.65657e-09
0.00840002
5.80761e-09
0.00840007
1.61902e-08
0.00839996
4.29704e-08
0.0084003
1.0791e-07
0.00839957
2.66368e-07
0.00840176
6.67355e-07
0.00839758
1.60962e-06
0.00840898
4.07328e-06
0.00839251
9.83927e-06
0.00843014
2.53165e-05
0.00841894
6.60008e-05
0.0085322
0.000190468
0.00884382
0.000620767
0.0104091
0.00249017
0.0101286
0.00836486
0.00976329
0.0084728
0.00925263
0.00848802
0.00902176
0.00834701
0.00896241
0.00852566
0.00902148
0.00879151
0.00919213
0.00897598
0.00945936
0.00900852
0.00881243
0.00975773
0.00840003
2.48549e-10
0.00840003
1.29617e-09
0.00840003
5.14113e-09
0.00840004
1.27031e-08
0.00840002
3.79042e-08
0.00840013
8.41405e-08
0.00839981
2.38442e-07
0.00840099
5.13146e-07
0.00839842
1.44251e-06
0.00840602
3.12809e-06
0.00839323
8.65537e-06
0.00842199
2.00107e-05
0.00840311
5.46707e-05
0.00847291
0.000149691
0.00858825
0.000480583
0.0092554
0.00183219
0.010216
0.00739255
0.0099852
0.00870133
0.00968023
0.00879092
0.00942877
0.00859676
0.00935458
0.00859741
0.00940461
0.00873803
0.00954268
0.00883344
0.00975379
0.00879127
0.00855879
0.00999958
0.00840003
1.83916e-10
0.00840003
1.20032e-09
0.00840003
4.0681e-09
0.00840004
1.16784e-08
0.00840004
3.01548e-08
0.00840002
7.78689e-08
0.00840018
1.88243e-07
0.00839972
4.84325e-07
0.00840145
1.14146e-06
0.00839778
2.96476e-06
0.00840748
7.00509e-06
0.00839533
1.829e-05
0.00842218
4.60049e-05
0.00842441
0.000128428
0.00852441
0.000394904
0.0089172
0.00142808
0.0102157
0.00608615
0.0101626
0.00875303
0.0099706
0.00898143
0.00975193
0.00881356
0.00968252
0.00866361
0.00972521
0.008691
0.00983932
0.00871395
0.0100052
0.00861798
0.00835211
0.0102027
0.00840003
1.47673e-10
0.00840003
1.03987e-09
0.00840004
3.26391e-09
0.00840002
1.01364e-08
0.00840008
2.44413e-08
0.00839994
6.60505e-08
0.00840038
1.56205e-07
0.00839949
4.00508e-07
0.00840203
9.70812e-07
0.00839739
2.41024e-06
0.00840919
6.02857e-06
0.00839333
1.48523e-05
0.0084283
3.84761e-05
0.00842197
0.000102735
0.00853628
0.000306186
0.00889969
0.00104789
0.0107984
0.00417967
0.0105878
0.00896137
0.0104501
0.00911737
0.0101929
0.00906831
0.0100307
0.0088222
0.010023
0.00869294
0.0101059
0.00862375
0.0102379
0.00847678
0.00819369
0.0103857
0.00840003
1.2176e-10
0.00840004
7.6876e-10
0.00840003
2.6751e-09
0.00840005
7.50509e-09
0.00840001
1.9711e-08
0.00840015
4.99627e-08
0.00839991
1.21492e-07
0.00840063
3.09766e-07
0.00839952
7.23347e-07
0.00840302
1.88314e-06
0.00839854
4.33194e-06
0.00841333
1.13952e-05
0.00840627
2.71797e-05
0.00845904
7.30207e-05
0.00853925
0.000202857
0.00894585
0.000652102
0.0106333
0.00248476
0.0111502
0.00843691
0.0109124
0.00935145
0.0106213
0.00935551
0.0104002
0.00903825
0.0103293
0.00875701
0.0103665
0.00857692
0.0104775
0.00835258
0.00808837
0.010568
0.00840003
1.04134e-10
0.00840003
5.82565e-10
0.00840004
2.18102e-09
0.00840003
5.67659e-09
0.00840004
1.61253e-08
0.00840005
3.72602e-08
0.00840004
1.01405e-07
0.00840026
2.26674e-07
0.00839978
6.13344e-07
0.00840198
1.36967e-06
0.00839823
3.67105e-06
0.0084104
8.42009e-06
0.00839955
2.2207e-05
0.00843827
5.51173e-05
0.00846437
0.000153966
0.00866151
0.000472745
0.00939488
0.00173572
0.0110717
0.00675024
0.0111105
0.00930699
0.0109493
0.00951093
0.0107082
0.00927344
0.0106253
0.00882962
0.0106353
0.0085548
0.0106951
0.00827838
0.00799924
0.0107671
0.00840003
7.19891e-11
0.00840003
4.86332e-10
0.00840003
1.5802e-09
0.00840003
4.75927e-09
0.00840004
1.17476e-08
0.00840002
3.12953e-08
0.00840014
7.41215e-08
0.00839989
1.90363e-07
0.00840082
4.5537e-07
0.00839906
1.14139e-06
0.00840484
2.79016e-06
0.00839581
6.89733e-06
0.00842015
1.72743e-05
0.00840245
4.37049e-05
0.00847055
0.000117683
0.00856682
0.000347637
0.00911854
0.00119539
0.0113122
0.00453885
0.0114002
0.00921112
0.011326
0.00957782
0.0111241
0.0094675
0.0109249
0.00901786
0.0108912
0.00857512
0.0109028
0.00824977
0.00790554
0.010975
0.00840003
5.23188e-11
0.00840003
3.59745e-10
0.00840003
1.17701e-09
0.00840004
3.50466e-09
0.00840003
8.73442e-09
0.00840007
2.30275e-08
0.00840002
5.42787e-08
0.00840017
1.40932e-07
0.00840017
3.25246e-07
0.00840042
8.47765e-07
0.00840164
1.94715e-06
0.00840174
5.06538e-06
0.00841053
1.18995e-05
0.00841775
3.08205e-05
0.00846247
7.81976e-05
0.00858292
0.000221241
0.0090815
0.000699092
0.0110232
0.00258676
0.0118407
0.00838043
0.0116755
0.00973325
0.0114722
0.00966038
0.0112388
0.00923907
0.0111564
0.00864059
0.0111317
0.00825216
0.0078004
0.0112089
0.00840003
4.25256e-11
0.00840003
2.5254e-10
0.00840003
9.21803e-10
0.00840004
2.465e-09
0.00840003
6.7786e-09
0.00840006
1.6399e-08
0.0084
4.18667e-08
0.00840024
1.01183e-07
0.00839981
2.50258e-07
0.0084013
6.12387e-07
0.00839891
1.49059e-06
0.00840682
3.71047e-06
0.0083964
8.96756e-06
0.00842699
2.27658e-05
0.00841618
5.7187e-05
0.0085128
0.000156871
0.00870664
0.00047604
0.00958343
0.001717
0.0116808
0.00625901
0.0117987
0.00960186
0.0118334
0.00960699
0.0116341
0.00941918
0.0114386
0.00881444
0.0114182
0.00824439
0.00769918
0.0114858
0.00840003
2.93284e-11
0.00840003
1.90081e-10
0.00840003
6.38686e-10
0.00840003
1.85117e-09
0.00840004
4.74978e-09
0.00840003
1.2076e-08
0.00840005
2.98744e-08
0.00840009
7.30022e-08
0.00840005
1.80981e-07
0.0084006
4.3495e-07
0.00839972
1.08894e-06
0.00840411
2.59695e-06
0.00839873
6.5545e-06
0.00842058
1.58551e-05
0.00841299
4.05779e-05
0.00849169
0.000105693
0.0086328
0.000305364
0.00935003
0.00101112
0.0118938
0.00368445
0.0122412
0.00923554
0.0119636
0.00986333
0.011889
0.00947139
0.0117695
0.00890866
0.0117524
0.00822938
0.00759582
0.0118214
0.00840003
2.13541e-11
0.00840003
1.32564e-10
0.00840003
4.62867e-10
0.00840003
1.29327e-09
0.00840003
3.41721e-09
0.00840004
8.4824e-09
0.00840003
2.12535e-08
0.00840011
5.14523e-08
0.00839998
1.27376e-07
0.00840063
3.07562e-07
0.00839957
7.57463e-07
0.00840382
1.83415e-06
0.00839795
4.51918e-06
0.00841899
1.10459e-05
0.00840334
2.76088e-05
0.00847509
7.06266e-05
0.00854686
0.000194511
0.00897141
0.000604677
0.0104471
0.00218863
0.0122578
0.00739217
0.0121754
0.00992187
0.0120872
0.00952978
0.0120709
0.00889314
0.0121029
0.00815981
0.00744868
0.0122191
0.00840003
1.53401e-11
0.00840003
9.21858e-11
0.00840003
3.30787e-10
0.00840003
9.01169e-10
0.00840003
2.43101e-09
0.00840004
5.95071e-09
0.00840003
1.50554e-08
0.00840009
3.63128e-08
0.00839999
9.00621e-08
0.00840045
2.18429e-07
0.00839969
5.33745e-07
0.0084027
1.31286e-06
0.00839826
3.18338e-06
0.00841377
7.91827e-06
0.00839861
1.9415e-05
0.00845232
4.95803e-05
0.00847445
0.000131922
0.00871528
0.000391446
0.00951188
0.00136206
0.0120532
0.00481221
0.0124208
0.00952011
0.0123662
0.0095455
0.0123856
0.00883273
0.0124826
0.00802442
0.00723445
0.0126569
0.00840003
1.06559e-11
0.00840003
6.19235e-11
0.00840003
2.25462e-10
0.00840003
6.02914e-10
0.00840004
1.66271e-09
0.00840003
3.91354e-09
0.00840004
1.03794e-08
0.00840005
2.34624e-08
0.00840005
6.20053e-08
0.00840024
1.3925e-07
0.00839998
3.66336e-07
0.00840161
8.26898e-07
0.00839956
2.15472e-06
0.00840964
4.95627e-06
0.00840096
1.27431e-05
0.00844394
3.06886e-05
0.00846133
8.08232e-05
0.00865471
0.000223864
0.00926984
0.000717327
0.011456
0.00260303
0.012573
0.00834234
0.0126778
0.00938087
0.0127394
0.00872027
0.012926
0.0078013
0.0069834
0.0131469
0.00840003
6.18342e-12
0.00840003
4.47889e-11
0.00840003
1.39885e-10
0.00840003
4.36554e-10
0.00840003
1.03412e-09
0.00840003
2.85209e-09
0.00840004
6.40268e-09
0.00840002
1.71826e-08
0.00840012
3.84591e-08
0.00839996
1.01162e-07
0.00840061
2.30554e-07
0.00839956
5.92524e-07
0.00840339
1.38293e-06
0.00839792
3.48591e-06
0.00841598
8.40398e-06
0.00840029
2.10177e-05
0.00845913
5.35187e-05
0.00849559
0.000145771
0.0087827
0.000448223
0.00970877
0.00163142
0.0121599
0.00579492
0.0127248
0.00873834
0.0129974
0.00840829
0.0132741
0.00748917
0.00673367
0.0135009
0.00840003
4.34605e-12
0.00840003
2.6989e-11
0.00840003
9.38485e-11
0.00840003
2.63316e-10
0.00840003
6.89498e-10
0.00840004
1.70378e-09
0.00840003
4.2748e-09
0.00840005
1.01524e-08
0.00840002
2.53467e-08
0.00840019
5.92993e-08
0.0083999
1.48656e-07
0.00840108
3.4521e-07
0.00839929
8.69142e-07
0.00840597
2.01751e-06
0.00839763
5.08981e-06
0.00842654
1.20801e-05
0.00841457
3.08346e-05
0.00851204
8.00644e-05
0.00868054
0.000232688
0.00951077
0.000782538
0.0121608
0.00300318
0.0127498
0.00802686
0.0132335
0.00790133
0.013506
0.00719804
0.00653251
0.0137108
0.00840003
2.72895e-12
0.00840003
1.69943e-11
0.00840003
5.97837e-11
0.00840003
1.65315e-10
0.00840003
4.3843e-10
0.00840004
1.08001e-09
0.00840003
2.66725e-09
0.00840005
6.48071e-09
0.00840001
1.56031e-08
0.00840015
3.80532e-08
0.00839993
8.99754e-08
0.00840068
2.22302e-07
0.00839955
5.18487e-07
0.00840315
1.28781e-06
0.00839877
3.014e-06
0.0084133
7.515e-06
0.00840658
1.81863e-05
0.00845584
4.72759e-05
0.0085254
0.000131166
0.00887226
0.000420734
0.0101285
0.00166776
0.011746
0.00623676
0.0126984
0.00693556
0.0133163
0.00657755
0.00620994
0.0136617
0.00840003
2.01918e-12
0.00840003
1.04264e-11
0.00840003
4.24064e-11
0.00840003
1.02153e-10
0.00840003
3.06781e-10
0.00840003
6.78546e-10
0.00840003
1.84831e-09
0.00840005
4.13885e-09
0.00840001
1.06883e-08
0.00840012
2.50353e-08
0.00839989
6.09364e-08
0.00840056
1.50258e-07
0.00839924
3.48566e-07
0.00840289
8.98417e-07
0.00839622
2.00597e-06
0.00841117
5.31699e-06
0.00839339
1.21752e-05
0.00842885
3.28493e-05
0.00843279
8.85456e-05
0.00856486
0.000281045
0.00907188
0.00107378
0.0104222
0.00464398
0.0115955
0.00577293
0.0125555
0.00564083
0.00570409
0.0130894
0.00840003
1.31886e-12
0.00840003
7.65312e-12
0.00840003
2.78775e-11
0.00840003
7.45273e-11
0.00840003
2.07037e-10
0.00840003
4.82145e-10
0.00840004
1.30543e-09
0.00840003
2.87848e-09
0.00840005
7.83636e-09
0.00840002
1.68625e-08
0.00840006
4.66766e-08
0.00840006
9.96882e-08
0.00839987
2.72916e-07
0.00840067
5.97371e-07
0.00839846
1.60117e-06
0.00840362
3.65108e-06
0.00839612
9.60634e-06
0.00840821
2.37371e-05
0.00840888
6.69453e-05
0.00846182
0.000206934
0.00868195
0.000769833
0.00944351
0.00359509
0.0105293
0.00473662
0.0115211
0.00469639
0.00509446
0.0121596
0.00840003
8.31255e-13
0.00840003
5.9562e-12
0.00840003
1.79836e-11
0.00840003
5.756e-11
0.00840003
1.35816e-10
0.00840003
3.68338e-10
0.00840004
8.81641e-10
0.00840002
2.19604e-09
0.00840006
5.53536e-09
0.00839998
1.28911e-08
0.00840017
3.42755e-08
0.00839974
7.56341e-08
0.00840077
2.10484e-07
0.00839844
4.49491e-07
0.00840327
1.27848e-06
0.00839354
2.75981e-06
0.00840878
7.718e-06
0.008385
1.86066e-05
0.00840927
5.32561e-05
0.00840381
0.000163193
0.00849694
0.000602367
0.00888397
0.00288421
0.00970004
0.0039991
0.0104173
0.00403859
0.0042992
0.0112341
0.00840003
6.43541e-13
0.00840003
3.48413e-12
0.00840003
1.39053e-11
0.00840003
3.49403e-11
0.00840003
1.00104e-10
0.00840003
2.46042e-10
0.00840003
6.02932e-10
0.00840003
1.59493e-09
0.00840004
3.56552e-09
0.0084
1.02255e-08
0.00840012
2.12249e-08
0.00839976
6.44462e-08
0.00840069
1.30136e-07
0.00839826
4.01857e-07
0.00840402
8.07901e-07
0.00839111
2.48661e-06
0.00841264
5.34803e-06
0.00837826
1.55991e-05
0.00840862
4.0957e-05
0.0083828
0.000130748
0.00843712
0.000478111
0.00867805
0.00228772
0.00926685
0.00349495
0.00981295
0.00355066
0.00367041
0.0104708
0.00840003
2.27099e-13
0.00840003
3.51528e-12
0.00840003
6.69261e-12
0.00840003
3.44625e-11
0.00840003
5.36158e-11
0.00840003
2.18175e-10
0.00840004
3.69172e-10
0.00840003
1.28612e-09
0.00840005
2.46087e-09
0.00839999
7.37702e-09
0.00840013
1.63802e-08
0.00839983
4.23085e-08
0.00840044
1.07666e-07
0.00839911
2.45465e-07
0.00840134
7.11146e-07
0.0083965
1.46498e-06
0.00840328
4.49985e-06
0.00838929
1.01862e-05
0.00840179
3.07288e-05
0.00839675
9.22772e-05
0.00844312
0.000344511
0.00874131
0.00165984
0.00913538
0.00315547
0.00947707
0.00325297
0.00321232
0.00995837
0.00840003
4.88143e-13
0.00840003
1.53085e-12
0.00840003
9.46316e-12
0.00840003
1.47896e-11
0.00840003
6.90497e-11
0.00840003
1.06659e-10
0.00840003
4.19183e-10
0.00840004
7.22318e-10
0.00840002
2.37894e-09
0.00840007
4.88576e-09
0.00839994
1.3265e-08
0.00840023
3.27836e-08
0.00839958
7.28737e-08
0.00840089
2.17924e-07
0.00839795
4.08036e-07
0.00840304
1.38976e-06
0.00839289
2.56926e-06
0.00840592
8.29727e-06
0.00838784
1.99147e-05
0.00841226
6.33613e-05
0.00846557
0.000219516
0.00889154
0.00102414
0.00899779
0.00297549
0.0091827
0.00305276
0.00286846
0.0095411
0.00840003
1.5665e-13
0.00840003
2.14227e-12
0.00840003
4.29528e-12
0.00840003
2.0951e-11
0.00840003
3.2512e-11
0.00840003
1.35733e-10
0.00840004
2.03589e-10
0.00840003
8.21522e-10
0.00840005
1.29073e-09
0.0084
4.79283e-09
0.00840009
8.29309e-09
0.0083999
2.75633e-08
0.00840014
5.53876e-08
0.00839974
1.52149e-07
0.00839967
3.68359e-07
0.00839938
8.78818e-07
0.00839858
2.33748e-06
0.00839576
5.64863e-06
0.00839611
1.59022e-05
0.00839096
4.67106e-05
0.00840628
0.000162591
0.0085412
0.000739989
0.00877845
0.0025847
0.00892932
0.00286056
0.0025705
0.00927642
0.00840003
3.34628e-13
0.00840003
1.18007e-12
0.00840003
6.40484e-12
0.00840003
1.13357e-11
0.00840003
4.50472e-11
0.00840003
7.73714e-11
0.00840003
2.69451e-10
0.00840003
4.78575e-10
0.00840003
1.56967e-09
0.00840005
3.00672e-09
0.00839996
8.82048e-09
0.00840018
1.90916e-08
0.00839952
4.99532e-08
0.00840111
1.21892e-07
0.00839705
2.8472e-07
0.00840541
7.63748e-07
0.00838833
1.73037e-06
0.00841054
4.74292e-06
0.00838009
1.22685e-05
0.00839731
3.72253e-05
0.00838816
0.000126647
0.00843232
0.000573084
0.00860026
0.0022538
0.0087646
0.00264982
0.00226814
0.00915421
0.00840003
2.55332e-13
0.00840003
1.10407e-12
0.00840003
4.9355e-12
0.00840003
1.06902e-11
0.00840003
3.58431e-11
0.00840003
6.78146e-11
0.00840003
2.25795e-10
0.00840003
3.97106e-10
0.00840004
1.38249e-09
0.00840002
2.27866e-09
0.00840004
8.30857e-09
0.0084
1.35011e-08
0.00839988
4.8748e-08
0.00840022
8.41661e-08
0.00839859
2.76666e-07
0.00840167
5.5279e-07
0.0083942
1.57649e-06
0.00840189
3.68377e-06
0.00838847
1.02976e-05
0.00839084
2.99358e-05
0.00837989
0.000102416
0.00838884
0.00046303
0.00852862
0.00196273
0.00879606
0.00233839
0.0020285
0.00912486
0.00840003
1.16194e-13
0.00840003
1.17234e-12
0.00840003
2.76201e-12
0.00840003
1.155e-11
0.00840003
2.08871e-11
0.00840003
7.57892e-11
0.00840004
1.30575e-10
0.00840003
4.67482e-10
0.00840005
7.50933e-10
0.00839999
2.91419e-09
0.00840011
4.33105e-09
0.00839984
1.75011e-08
0.00840041
2.61174e-08
0.0083991
1.01973e-07
0.00840131
1.736e-07
0.0083965
5.72492e-07
0.00840328
1.19936e-06
0.00838941
3.3537e-06
0.0084013
8.61794e-06
0.00838126
2.55819e-05
0.00837405
8.66369e-05
0.00837149
0.000386891
0.0084815
0.00171116
0.00881177
0.00196209
0.00180752
0.00910987
0.00840003
9.41143e-14
0.00840003
1.19782e-12
0.00840003
2.0916e-12
0.00840003
1.14455e-11
0.00840003
1.63983e-11
0.00840003
6.37938e-11
0.00840003
1.23948e-10
0.00840003
3.38417e-10
0.00840004
9.07842e-10
0.00840002
1.62901e-09
0.00840003
6.66308e-09
0.00840002
8.25242e-09
0.00839983
4.57693e-08
0.00840032
4.39772e-08
0.00839832
2.91819e-07
0.00840219
2.39435e-07
0.00839316
1.63109e-06
0.00840352
2.08702e-06
0.00838664
8.7237e-06
0.00839173
2.15493e-05
0.00836601
7.64807e-05
0.0083694
0.000330884
0.0084389
0.00149603
0.00881513
0.00158893
0.00157871
0.00907906
0.00840003
2.22583e-13
0.00840003
2.731e-13
0.00840003
3.85449e-12
0.00840003
2.76798e-12
0.00840003
2.76898e-11
0.00840003
1.84436e-11
0.00840003
1.60736e-10
0.00840004
1.57524e-10
0.00840002
8.95614e-10
0.00840004
1.27252e-09
0.00840001
4.6844e-09
0.00840001
9.61501e-09
0.00840004
2.59659e-08
0.00839954
6.80158e-08
0.00840065
1.4573e-07
0.00839686
4.66912e-07
0.00840282
8.48816e-07
0.00839124
2.9167e-06
0.00839819
6.32804e-06
0.00838429
2.0808e-05
0.00837461
6.66182e-05
0.00838564
0.000280355
0.00846278
0.00126999
0.00874309
0.00132287
0.00132581
0.00902063
0.00840003
-2.42845e-15
0.00840003
9.30991e-13
0.00840003
8.78479e-13
0.00840003
9.29213e-12
0.00840003
7.06824e-12
0.00840003
6.40426e-11
0.00840003
3.33868e-11
0.00840003
4.12258e-10
0.00840004
1.54655e-10
0.0084
2.50439e-09
0.00840012
6.09709e-10
0.0083998
1.45791e-08
0.00840055
6.55793e-09
0.00839874
8.33375e-08
0.00840275
7.35822e-08
0.0083937
4.56499e-07
0.00840911
6.964e-07
0.00838294
2.42524e-06
0.00840862
5.87054e-06
0.0083773
1.82979e-05
0.0083867
5.98385e-05
0.00840195
0.000233159
0.00846923
0.00105717
0.00871275
0.00109163
0.00109008
0.00896253
0.00840003
5.7547e-14
0.00840003
5.04475e-13
0.00840003
1.17262e-12
0.00840003
5.00534e-12
0.00840003
8.89621e-12
0.00840003
2.96662e-11
0.00840003
6.99356e-11
0.00840003
1.50661e-10
0.00840002
5.3389e-10
0.00840005
7.77674e-10
0.00839995
3.83368e-09
0.00840022
4.11718e-09
0.00839948
2.54551e-08
0.0084013
1.88252e-08
0.00839692
1.69569e-07
0.00840645
1.03022e-07
0.00838713
9.64148e-07
0.00841476
1.33509e-06
0.00837764
5.35065e-06
0.00840252
1.45111e-05
0.0083914
4.9771e-05
0.00841114
0.000188518
0.00847069
0.000862967
0.00868746
0.0008802
0.000870984
0.00891013
0.00840003
4.36829e-14
0.00840003
3.79578e-13
0.00840003
9.93106e-13
0.00840003
3.4264e-12
0.00840003
7.39931e-12
0.00840003
2.06523e-11
0.00840003
4.6166e-11
0.00840004
1.3177e-10
0.00840002
2.7308e-10
0.00840006
8.1722e-10
0.00839996
1.71591e-09
0.00840017
5.02289e-09
0.00839971
1.08402e-08
0.00840048
3.31639e-08
0.00839888
6.72169e-08
0.00840118
2.08151e-07
0.00839621
4.6529e-07
0.00840241
1.31034e-06
0.0083904
3.47272e-06
0.00839905
1.05724e-05
0.0083942
3.56047e-05
0.00841287
0.000146956
0.00847401
0.000684048
0.00866879
0.000684053
0.000667718
0.00886496
0.00840003
2.3356e-14
0.00840003
1.92171e-13
0.00840003
6.8597e-13
0.00840003
1.96418e-12
0.00840003
4.94432e-12
0.00840003
1.61519e-11
0.00840003
2.30079e-11
0.00840004
1.17842e-10
0.00840002
1.1413e-10
0.00840006
8.45632e-10
0.00839996
5.43419e-10
0.00840019
5.88922e-09
0.00839967
2.70295e-09
0.00840067
3.92058e-08
0.00839851
1.26321e-08
0.00840202
2.3517e-07
0.00839506
1.83139e-07
0.00840415
1.1946e-06
0.00838895
2.19155e-06
0.00839993
7.92564e-06
0.00839069
2.55479e-05
0.00841326
0.000107721
0.00848458
0.000509938
0.00865913
0.000500569
0.000480968
0.00882813
0.00840003
7.67314e-14
0.00840003
-1.21675e-13
0.00840003
1.25137e-12
0.00840003
-1.02205e-12
0.00840003
8.58533e-12
0.00840003
-6.07664e-12
0.00840003
4.56582e-11
0.00840004
-8.19152e-12
0.00840002
1.94165e-10
0.00840006
1.88641e-10
0.00839995
8.42027e-10
0.00840024
2.41648e-09
0.0083995
4.42162e-09
0.00840124
2.09235e-08
0.00839725
2.50418e-08
0.00840557
1.55521e-07
0.00838939
1.48412e-07
0.00841289
8.78722e-07
0.00838134
1.3093e-06
0.00840706
5.33792e-06
0.00838699
1.66228e-05
0.0084164
7.10347e-05
0.00849861
0.000339151
0.00865627
0.000326893
0.000309633
0.00879811
0.00840003
-1.95877e-14
0.00840003
2.51649e-13
0.00840003
-5.55388e-13
0.00840003
2.68749e-12
0.00840003
-3.65769e-12
0.00840003
1.40167e-11
0.00840003
-3.25542e-12
0.00840003
2.72286e-11
0.00840003
1.27104e-10
0.00840004
-1.60942e-10
0.00839999
1.42034e-09
0.00840014
-2.4076e-09
0.00839964
1.20678e-08
0.0084009
-2.20067e-08
0.0083976
8.71575e-08
0.00840516
-1.17694e-07
0.00838914
4.62973e-07
0.00841422
-1.8346e-07
0.00838072
1.61894e-06
0.00840904
1.56102e-06
0.00838591
8.98714e-06
0.00841907
3.49014e-05
0.00851187
0.000170026
0.00865653
0.000160808
0.000150758
0.00877518
0.00840003
0.00840003
0.00840003
0.00840003
0.00840003
0.00840003
0.00840003
0.00840004
0.00840002
0.00840006
0.00839998
0.00840012
0.00839986
0.00840007
0.00839971
0.00839958
0.00839901
0.0083995
0.00839524
0.00839772
0.00839626
0.00841861
0.00852008
0.00865666
0.00876106
0.00391955
0.00434147
0.00146197
0.00244578
-0.000811728
0.00226871
-0.00172596
0.000914524
-0.00237146
0.00064474
-0.00268053
0.000309938
-0.00276625
8.75483e-05
-0.00287043
0.000106151
-0.00299548
0.000127
-0.00309108
9.73537e-05
-0.00314142
4.9417e-05
-0.00315997
1.67438e-05
-0.0031614
-1.03047e-06
-0.00314845
-1.58548e-05
-0.00311601
-3.55934e-05
-0.00306378
-5.52164e-05
-0.00299206
-7.42284e-05
-0.00290072
-9.31261e-05
-0.00279754
-0.000104526
-0.00268466
-0.000114366
-0.00256168
-0.000124088
-0.00242939
-0.000133391
-0.00228752
-0.000143352
-0.00213587
-0.0001532
-0.00197515
-0.000163067
-0.00180512
-0.000172298
-0.00162295
-0.000184899
-0.00143195
-0.000193871
-0.00123507
-0.000199818
-0.00103463
-0.000203364
-0.000831348
-0.00020613
-0.00062503
-0.000209366
-0.000414812
-0.000213278
-0.000201395
-0.00021629
2.20763e-05
-0.00022569
0.000243094
-0.000223168
0.000456325
-0.000214889
0.00066319
-0.000208262
0.00086545
-0.000203398
0.00106275
-0.000198467
0.00125384
-0.000191852
0.00143813
-0.000184961
0.00161703
-0.000179195
0.00179423
-0.000176947
0.00197012
-0.000175344
0.00214112
-0.000169841
0.00230556
-0.000162742
0.00246367
-0.000156417
0.00261564
-0.000149928
0.00276256
-0.00014417
0.00290368
-0.00013815
0.00303978
-0.000132431
0.00317036
-0.000126716
0.00329555
-0.000121125
0.00341586
-0.000115615
0.00353063
-0.00011029
0.00364049
-0.00010494
0.00374559
-9.99117e-05
0.00384576
-9.48404e-05
0.00394126
-9.00913e-05
0.00403163
-8.53226e-05
0.00411786
-8.08437e-05
0.00419902
-7.64188e-05
0.00427612
-7.21847e-05
0.00434876
-6.80827e-05
0.00441702
-6.41061e-05
0.00448129
-6.02679e-05
0.00454124
-5.65514e-05
0.00459735
-5.29456e-05