/*--------------------------------*- C++ -*----------------------------------*\
  =========                 |
  \\      /  F ield         | OpenFOAM: The Open Source CFD Toolbox
   \\    /   O peration     | Website:  https://openfoam.org
    \\  /    A nd           | Version:  13
     \\/     M anipulation  |
\*---------------------------------------------------------------------------*/
FoamFile
{
    format      ascii;
    class       volScalarField;
    location    "9.5";
    object      rho;
}
// * * * * * * * * * * * * * * * * * * * * * * * * * * * * * * * * * * * * * //

dimensions      [1 -3 0 0 0 0 0];

internalField   nonuniform List<scalar> 
5250
(
1.40001
1.40003
1.40009
1.40019
1.40056
1.40118
1.40337
1.40719
1.41975
1.44386
1.50866
1.63983
1.92355
2.6505
5.40598
5.73319
5.67752
5.66649
5.68953
5.77171
5.855
5.90798
5.94877
5.98163
6.00874
1.40001
1.40003
1.40009
1.40019
1.40055
1.40117
1.40333
1.40712
1.41953
1.44343
1.50758
1.63758
1.91906
2.63481
5.36862
5.73105
5.67592
5.66378
5.68693
5.76922
5.85253
5.90589
5.9476
5.98135
6.00954
1.40001
1.40003
1.40008
1.40019
1.40052
1.40117
1.40321
1.40703
1.41901
1.44263
1.5052
1.63309
1.90961
2.60225
5.28544
5.72648
5.67142
5.65461
5.67698
5.7575
5.8401
5.89264
5.9343
5.96748
5.9956
1.40001
1.40003
1.40008
1.40019
1.40049
1.4012
1.40291
1.40728
1.41741
1.44273
1.50012
1.62759
1.89403
2.55455
5.15407
5.72173
5.66546
5.63886
5.65934
5.73672
5.81692
5.86857
5.90945
5.94248
5.97108
1.40001
1.40003
1.40008
1.40018
1.40048
1.40108
1.40294
1.40651
1.41744
1.43944
1.49721
1.61667
1.87561
2.49146
4.97117
5.71923
5.65912
5.61713
5.63525
5.70774
5.78518
5.83395
5.87313
5.90465
5.93456
1.40001
1.40003
1.40007
1.40018
1.40041
1.4011
1.40255
1.40655
1.41549
1.43848
1.48967
1.60651
1.84938
2.41681
4.73006
5.72342
5.65433
5.5894
5.60378
5.67004
5.74345
5.78819
5.82391
5.85434
5.8853
1.40001
1.40003
1.40006
1.40017
1.40037
1.40105
1.40224
1.4063
1.41369
1.43648
1.48165
1.59308
1.81786
2.33133
4.42482
5.73697
5.65336
5.55696
5.56704
5.62329
5.69168
5.72946
5.75787
5.78195
5.81388
1.40001
1.40002
1.40005
1.40016
1.40033
1.40095
1.40202
1.40568
1.41235
1.43296
1.47388
1.57592
1.78195
2.23694
4.05033
5.7641
5.65883
5.52081
5.52493
5.56818
5.62618
5.65507
5.67225
5.68421
5.71144
1.40001
1.40002
1.40005
1.40013
1.40031
1.4008
1.40188
1.40477
1.41141
1.42818
1.46662
1.55545
1.74293
2.13879
3.61961
5.7986
5.67303
5.48751
5.48169
5.50767
5.55025
5.56126
5.5594
5.5457
5.55093
1.40001
1.40002
1.40005
1.40011
1.40028
1.40065
1.40173
1.40391
1.41031
1.42355
1.45883
1.53415
1.70195
2.04492
3.13785
5.80298
5.68135
5.46545
5.43727
5.44286
5.46206
5.45203
5.42117
5.35229
5.29754
1.40001
1.40002
1.40004
1.40011
1.40022
1.40063
1.40134
1.40373
1.40821
1.42179
1.44932
1.51981
1.66445
1.9721
2.82926
5.62731
5.60509
5.44861
5.3802
5.37171
5.36042
5.32708
5.23724
5.02783
4.43379
1.40001
1.40002
1.40003
1.40009
1.4002
1.40054
1.40117
1.40328
1.407
1.41927
1.44258
1.5058
1.63322
1.91038
2.60224
5.21619
5.47379
5.4054
5.31482
5.29306
5.25968
5.19186
5.04696
4.75129
4.12835
1.40001
1.40001
1.40003
1.40008
1.40018
1.40044
1.40109
1.40259
1.40659
1.41547
1.43856
1.48973
1.60601
1.8483
2.41227
4.69043
5.39606
5.3587
5.25584
5.20845
5.1585
5.06292
4.87528
4.57316
4.09508
1.40001
1.40001
1.40003
1.40006
1.40016
1.40037
1.40091
1.40224
1.40537
1.41346
1.4319
1.47699
1.57585
1.78729
2.24404
4.09257
5.36324
5.32739
5.21176
5.13056
5.05972
4.94442
4.75677
4.47597
4.11038
1.40001
1.40001
1.40002
1.40005
1.40013
1.40029
1.40077
1.40176
1.40454
1.41067
1.42669
1.46252
1.54685
1.72372
2.09207
3.436
5.34522
5.31271
5.1918
5.06202
4.97175
4.84826
4.6684
4.4216
4.11439
1.40001
1.40001
1.40002
1.40004
1.40011
1.40023
1.40062
1.40139
1.40364
1.40842
1.4213
1.44965
1.51815
1.66269
1.95992
2.78947
5.23122
5.27835
5.18982
5.01652
4.90095
4.77659
4.60342
4.38297
4.11809
1.40001
1.40001
1.40002
1.40003
1.40009
1.40018
1.40051
1.40107
1.40303
1.40649
1.41767
1.43923
1.4974
1.61528
1.87147
2.47719
4.78641
5.18739
5.13292
4.98206
4.8438
4.71877
4.55712
4.35502
4.12551
1.40001
1.40001
1.40001
1.40003
1.40006
1.40017
1.40035
1.40099
1.40209
1.40584
1.41267
1.43358
1.47519
1.5782
1.78533
2.24128
4.05817
5.08992
5.06416
4.96283
4.80362
4.6711
4.52198
4.33906
4.13539
1.40001
1.40001
1.40001
1.40003
1.40005
1.40013
1.40028
1.40073
1.4017
1.40427
1.41026
1.4251
1.4596
1.53891
1.70765
2.04947
3.26979
5.01633
5.0292
4.96103
4.7987
4.64193
4.49882
4.33483
4.15166
1.40001
1.40001
1.40001
1.40002
1.40004
1.40009
1.40022
1.40054
1.40127
1.40327
1.40747
1.41925
1.4441
1.50615
1.6362
1.90172
2.58636
4.77422
5.02247
4.96004
4.8077
4.63501
4.48996
4.34833
4.17938
1.40001
1.40001
1.40001
1.40002
1.40003
1.40007
1.40018
1.40038
1.40105
1.40222
1.40619
1.41342
1.4354
1.47904
1.5864
1.80023
2.27888
4.13548
4.9472
4.91763
4.81844
4.64737
4.50368
4.36773
4.2273
1.40001
1.40001
1.40001
1.40001
1.40002
1.40006
1.40012
1.40032
1.40068
1.40186
1.40412
1.41084
1.42472
1.46135
1.53888
1.71087
2.04872
3.29255
4.83929
4.88519
4.82617
4.68063
4.53311
4.40134
4.29233
1.40001
1.40001
1.40001
1.40001
1.40002
1.40004
1.40009
1.40023
1.40049
1.40135
1.40288
1.40794
1.41727
1.44489
1.49985
1.63083
1.87793
2.52205
4.55392
4.88824
4.84255
4.72649
4.58215
4.46234
4.38601
1.40001
1.40001
1.40001
1.40001
1.40002
1.40003
1.40007
1.40015
1.40039
1.40088
1.40227
1.40533
1.41322
1.43154
1.47494
1.57131
1.77302
2.19951
3.85033
4.83694
4.8408
4.78825
4.66366
4.57046
4.5152
1.40001
1.40001
1.40001
1.40001
1.40001
1.40002
1.40005
1.40011
1.40029
1.4006
1.40168
1.40357
1.40978
1.42145
1.45494
1.52218
1.67798
1.9697
2.92594
4.68053
4.88378
4.84898
4.78766
4.71878
4.68417
1.40001
1.40001
1.40001
1.40001
1.40001
1.40002
1.40004
1.40008
1.4002
1.40043
1.40115
1.40259
1.40669
1.4154
1.43844
1.48793
1.60253
1.82683
2.35922
4.23363
4.88695
4.95476
4.92811
4.89676
4.87489
1.40001
1.40001
1.40001
1.40001
1.40001
1.40001
1.40003
1.40006
1.40014
1.40031
1.40081
1.40182
1.40471
1.41091
1.42729
1.46319
1.54803
1.72305
2.07997
3.38083
4.81501
5.10383
5.12288
5.11255
5.09043
1.40001
1.40001
1.40001
1.40001
1.40001
1.40001
1.40002
1.40004
1.4001
1.40021
1.40058
1.40123
1.4034
1.40734
1.41958
1.44362
1.50646
1.63412
1.89015
2.561
4.57293
5.26527
5.36497
5.34853
5.32245
1.40001
1.40001
1.40001
1.40001
1.40001
1.40001
1.40002
1.40003
1.40007
1.40017
1.40038
1.40098
1.40228
1.4057
1.41362
1.43313
1.47793
1.5792
1.78959
2.25271
3.97018
5.38846
5.61922
5.5967
5.55274
1.40001
1.40001
1.40001
1.40001
1.40001
1.40001
1.40001
1.40002
1.40006
1.40012
1.4003
1.40068
1.40175
1.40408
1.41023
1.42426
1.45864
1.53519
1.70262
2.03814
3.05697
5.48126
5.86782
5.83943
5.74506
1.40001
1.40001
1.40001
1.40001
1.40001
1.40001
1.40001
1.40002
1.40004
1.4001
1.40023
1.40056
1.40132
1.4034
1.40781
1.42008
1.44636
1.51166
1.64986
1.93967
2.71048
5.26148
5.9708
5.96274
5.85555
1.40001
1.40001
1.40001
1.40001
1.40001
1.40001
1.40001
1.40002
1.40004
1.40008
1.4002
1.40045
1.40114
1.40278
1.40674
1.41676
1.43999
1.49575
1.61801
1.87875
2.52584
4.88304
5.97155
5.9791
5.86236
1.40001
1.40001
1.40001
1.40001
1.40001
1.40001
1.40001
1.40002
1.40003
1.40007
1.40018
1.40037
1.40105
1.40224
1.40629
1.41375
1.43673
1.48265
1.59687
1.82873
2.39754
4.4636
5.99596
5.9719
5.78153
1.40001
1.40001
1.40001
1.40001
1.40001
1.40001
1.40001
1.40002
1.40003
1.40006
1.40014
1.40035
1.40088
1.40208
1.40541
1.41264
1.4322
1.47537
1.57737
1.79149
2.30383
4.1051
6.06336
5.97113
5.68049
1.40001
1.40001
1.40001
1.40001
1.40001
1.40001
1.40001
1.40001
1.40002
1.40006
1.40012
1.40034
1.40073
1.40202
1.40452
1.41211
1.42791
1.47004
1.56035
1.76084
2.22695
3.78562
6.13893
5.95403
5.5889
1.40001
1.40001
1.40001
1.40001
1.40001
1.40001
1.40001
1.40001
1.40002
1.40005
1.40012
1.40028
1.40073
1.40168
1.40451
1.41023
1.4269
1.46194
1.54948
1.73095
2.15594
3.47623
6.20743
5.95339
5.55104
1.40001
1.40001
1.40001
1.40001
1.40001
1.40001
1.40001
1.40001
1.40002
1.40005
1.40011
1.40028
1.40064
1.4017
1.40384
1.41029
1.42354
1.45944
1.53669
1.70953
2.07647
3.22259
6.22321
5.9368
5.52014
1.40001
1.40001
1.40001
1.40001
1.40001
1.40001
1.40001
1.40001
1.40002
1.40005
1.40011
1.40025
1.40066
1.40144
1.40407
1.4088
1.42398
1.45392
1.5322
1.69245
2.03388
3.09235
6.14337
5.89892
5.50854
1.40001
1.40001
1.40001
1.40001
1.40001
1.40001
1.40001
1.40001
1.40002
1.40004
1.40011
1.40023
1.40064
1.40139
1.40382
1.4086
1.42266
1.45206
1.52649
1.68131
2.00503
2.99333
6.01867
5.85775
5.52311
1.40001
1.40001
1.40001
1.40001
1.40001
1.40001
1.40001
1.40001
1.40002
1.40004
1.40011
1.40022
1.40062
1.40132
1.40376
1.40812
1.4222
1.44976
1.52275
1.67179
1.9827
2.91321
5.9023
5.80917
5.55416
1.40001
1.40001
1.40001
1.40001
1.40001
1.40001
1.40001
1.40001
1.40002
1.40004
1.4001
1.40023
1.40058
1.40133
1.40356
1.40803
1.42129
1.4487
1.51877
1.66496
1.96142
2.85043
5.79409
5.76057
5.57756
1.40001
1.40001
1.40001
1.40001
1.40001
1.40001
1.40001
1.40001
1.40002
1.40004
1.4001
1.40021
1.40059
1.40125
1.40355
1.40767
1.42099
1.44706
1.51638
1.65837
1.94296
2.80191
5.69515
5.71093
5.59124
1.40001
1.40001
1.40001
1.40001
1.40001
1.40001
1.40001
1.40001
1.40002
1.40004
1.40009
1.40024
1.40049
1.40141
1.40301
1.40848
1.41861
1.4489
1.51018
1.65606
1.92636
2.76069
5.59886
5.69166
5.58619
1.40001
1.40001
1.40001
1.40001
1.40001
1.40001
1.40001
1.40001
1.40002
1.40004
1.40009
1.40022
1.40051
1.4013
1.40315
1.40781
1.41914
1.44635
1.50954
1.64938
1.91839
2.72392
5.50923
5.68149
5.57852
1.40001
1.40001
1.40001
1.40001
1.40001
1.40001
1.40001
1.40001
1.40002
1.40004
1.40009
1.4002
1.40054
1.40121
1.40319
1.40746
1.41906
1.44482
1.50809
1.64322
1.91931
2.68818
5.42958
5.67469
5.57215
1.40001
1.40001
1.40001
1.40001
1.40001
1.40001
1.40001
1.40001
1.40002
1.40004
1.40009
1.40021
1.40049
1.4013
1.4029
1.40787
1.41772
1.44557
1.50421
1.64014
1.91989
2.65482
5.36238
5.67129
5.56858
1.40001
1.40001
1.40001
1.40001
1.40001
1.40001
1.40001
1.40001
1.40002
1.40004
1.40009
1.40021
1.40048
1.40128
1.40289
1.40772
1.41756
1.44486
1.50297
1.63692
1.91349
2.62853
5.30988
5.67171
5.56871
1.40001
1.40001
1.40001
1.40001
1.40001
1.40001
1.40001
1.40001
1.40002
1.40004
1.40009
1.4002
1.40051
1.40119
1.40303
1.40729
1.41806
1.4434
1.50323
1.6335
1.90957
2.60737
5.27063
5.67378
5.57181
1.40001
1.40001
1.40001
1.40001
1.40001
1.40001
1.40001
1.40001
1.40002
1.40004
1.40009
1.40019
1.40053
1.40112
1.40316
1.40689
1.41863
1.44205
1.50386
1.6308
1.90736
2.59246
5.24467
5.67609
5.57396
1.40001
1.40001
1.40001
1.40001
1.40001
1.40001
1.40001
1.40001
1.40002
1.40004
1.40008
1.40021
1.40047
1.40128
1.40277
1.40772
1.41701
1.44435
1.50061
1.63287
1.90391
2.58586
5.23149
5.67763
5.57454
2.26256
1.86971
2.1594
1.97159
1.8804
1.85994
1.84815
1.82354
1.79429
1.76889
1.75488
1.74924
1.74683
1.74696
1.75433
1.76855
1.78948
1.81465
1.84267
1.87175
1.90276
1.93302
1.96516
1.99641
2.02829
2.06039
2.09154
2.12313
2.15284
2.18126
2.20767
2.23339
2.25725
2.27875
2.29615
2.31389
2.32946
2.34263
2.35388
2.36392
2.36983
2.37622
2.37944
2.38312
2.38243
2.3821
2.3793
2.37667
2.37048
2.36527
2.35742
2.34971
2.3404
2.33054
2.31933
2.30828
2.29496
2.2828
2.26835
2.25502
2.23951
2.22475
2.20876
2.19259
2.17617
2.15916
2.14198
2.12456
2.10664
2.08893
2.07057
2.05259
2.03395
2.0159
1.99705
1.97911
1.96024
1.9425
1.92388
1.90633
1.88823
1.87081
1.85344
1.83623
1.81965
1.80292
1.78709
1.77115
1.75614
1.74131
1.72733
1.71384
1.70126
1.68953
1.67896
1.66965
1.66192
1.656
1.65187
1.65254
2.79017
2.43217
2.35147
2.10109
1.89548
1.8498
1.78604
1.7277
1.68007
1.643
1.62673
1.61959
1.61773
1.62069
1.63033
1.64688
1.67148
1.70232
1.73704
1.77283
1.81133
1.85158
1.89201
1.93029
1.96739
2.00447
2.04313
2.08191
2.11817
2.1544
2.18782
2.22035
2.24909
2.27717
2.30296
2.32796
2.35022
2.37072
2.38904
2.40417
2.41753
2.42846
2.43819
2.44593
2.45145
2.45394
2.45616
2.45548
2.45449
2.45127
2.44668
2.44116
2.4339
2.42619
2.41667
2.40677
2.39538
2.38332
2.37064
2.35669
2.34281
2.32746
2.31214
2.29578
2.27905
2.26183
2.24401
2.22609
2.20748
2.18906
2.16981
2.15107
2.13133
2.11242
2.09241
2.07344
2.05342
2.03445
2.01474
1.99582
1.97666
1.9579
1.93942
1.92103
1.90323
1.88552
1.86841
1.8516
1.83531
1.81972
1.80462
1.79046
1.77692
1.76461
1.75325
1.74351
1.73524
1.72911
1.72474
1.72604
3.29371
2.84179
2.59721
2.39543
2.16237
2.03044
1.88927
1.77924
1.69649
1.64852
1.62713
1.61408
1.58847
1.57705
1.58602
1.60634
1.6369
1.67337
1.71329
1.75534
1.79927
1.84472
1.88985
1.93638
1.98402
2.03116
2.07974
2.12697
2.17338
2.21716
2.25996
2.2996
2.33751
2.37326
2.4065
2.43809
2.46698
2.49281
2.5158
2.53532
2.55288
2.56678
2.57995
2.59101
2.59839
2.60315
2.60531
2.60732
2.60622
2.6045
2.59995
2.59488
2.58775
2.57948
2.57021
2.5591
2.54793
2.53467
2.52172
2.5068
2.49208
2.47564
2.45932
2.44156
2.42397
2.40516
2.38658
2.36702
2.34762
2.32754
2.30746
2.28701
2.26646
2.24574
2.22499
2.20406
2.1834
2.1623
2.14199
2.12077
2.10101
2.07988
2.06072
2.03991
2.02144
2.00138
1.98366
1.96457
1.94773
1.92977
1.9141
1.89767
1.88366
1.86925
1.85757
1.84598
1.83764
1.83006
1.82616
1.82677
3.54758
3.09733
2.79369
2.5917
2.40373
2.26181
2.14337
2.02622
1.9044
1.81188
1.74223
1.70388
1.68054
1.67386
1.68057
1.69814
1.72832
1.76716
1.811
1.85883
1.90999
1.96358
2.01765
2.07315
2.12682
2.18218
2.23557
2.2895
2.34064
2.38977
2.43585
2.47851
2.51912
2.55526
2.58997
2.62021
2.64863
2.67272
2.69421
2.71193
2.72696
2.73839
2.7491
2.75733
2.76346
2.76406
2.76379
2.76115
2.75824
2.75211
2.7461
2.73649
2.72765
2.71518
2.70387
2.68915
2.67563
2.6591
2.64365
2.62562
2.6085
2.58924
2.57071
2.55046
2.53077
2.50975
2.48911
2.46749
2.44612
2.42407
2.40223
2.37995
2.35792
2.33555
2.31364
2.29125
2.2697
2.24737
2.2263
2.20416
2.18374
2.16214
2.14239
2.12152
2.10233
2.08224
2.0637
2.04466
2.02698
2.00922
1.99274
1.97666
1.9619
1.94806
1.93579
1.92508
1.91651
1.91012
1.90725
1.90894
3.68798
3.28561
2.98404
2.76311
2.59936
2.45719
2.35179
2.25524
2.16555
2.08008
2.01743
1.96937
1.94238
1.92554
1.92746
1.9368
1.95664
1.99374
2.03588
2.08311
2.13213
2.18232
2.23455
2.28602
2.33855
2.38842
2.43923
2.48693
2.5339
2.57661
2.61693
2.65399
2.68766
2.71927
2.74675
2.77273
2.79432
2.81435
2.82951
2.84337
2.85211
2.86006
2.86476
2.87024
2.87145
2.87019
2.86483
2.85957
2.8523
2.84468
2.83502
2.82464
2.81235
2.79959
2.78504
2.77033
2.75391
2.7375
2.71955
2.7016
2.68237
2.66301
2.64263
2.62205
2.60065
2.57912
2.55686
2.53467
2.51175
2.48921
2.46589
2.4432
2.41972
2.39701
2.37367
2.35089
2.32789
2.3053
2.28298
2.26067
2.23899
2.21706
2.19609
2.17478
2.15459
2.13413
2.11488
2.09552
2.07746
2.05944
2.04284
2.02654
2.01183
1.99792
1.98591
1.97534
1.96736
1.96148
1.96012
1.96156
3.77502
3.43551
3.1515
2.93668
2.77277
2.64718
2.54965
2.47079
2.39717
2.32649
2.2653
2.21312
2.17637
2.15357
2.14632
2.15162
2.16264
2.18656
2.2231
2.26625
2.31083
2.35678
2.40118
2.44687
2.48973
2.53278
2.57364
2.61398
2.65173
2.68778
2.72139
2.75269
2.78139
2.80793
2.83114
2.85254
2.87029
2.88645
2.89885
2.90967
2.91681
2.92215
2.92608
2.92942
2.9306
2.92814
2.92263
2.91515
2.90745
2.8979
2.88826
2.87623
2.86411
2.84965
2.83526
2.81886
2.80253
2.78456
2.76655
2.74738
2.728
2.70799
2.68748
2.66682
2.64529
2.62407
2.60171
2.58001
2.55704
2.53493
2.51164
2.48912
2.46578
2.44302
2.42008
2.39718
2.37468
2.35153
2.32947
2.30632
2.28476
2.26187
2.24087
2.21858
2.19825
2.17694
2.15741
2.13749
2.11904
2.10094
2.08399
2.06802
2.05338
2.04012
2.02883
2.01939
2.01276
2.00907
2.00919
2.012
3.84197
3.5532
3.30014
3.09733
2.94404
2.83156
2.74728
2.6838
2.62155
2.55934
2.49382
2.4343
2.38449
2.34861
2.32701
2.32121
2.32651
2.33764
2.35677
2.39257
2.4354
2.4783
2.51976
2.55933
2.59804
2.63495
2.67108
2.70584
2.73931
2.77159
2.80183
2.83005
2.85591
2.87949
2.90041
2.91954
2.93619
2.95109
2.96359
2.97387
2.98175
2.98678
2.99157
2.99487
2.99714
2.99525
2.99077
2.98337
2.97577
2.96616
2.95644
2.9447
2.93252
2.91849
2.90391
2.88783
2.87122
2.85338
2.83504
2.81565
2.79582
2.7751
2.75402
2.73218
2.71001
2.68725
2.6642
2.64074
2.61711
2.59318
2.56934
2.54534
2.52173
2.49761
2.47415
2.44998
2.42691
2.40281
2.38018
2.35641
2.33432
2.31117
2.28967
2.26738
2.24659
2.22534
2.20549
2.1855
2.16694
2.14858
2.13163
2.11568
2.10102
2.08839
2.07722
2.06918
2.06326
2.0622
2.06167
2.0654
3.89754
3.65393
3.4348
3.25285
3.11647
3.01931
2.95214
2.90007
2.84613
2.78403
2.71321
2.64152
2.57641
2.52476
2.48768
2.46736
2.46299
2.46927
2.47873
2.49787
2.5339
2.57493
2.6157
2.65383
2.69012
2.7244
2.75813
2.79028
2.82147
2.85121
2.87977
2.90655
2.93172
2.95464
2.9753
2.99432
3.01038
3.02508
3.03676
3.04662
3.05349
3.05719
3.06042
3.06218
3.06307
3.05995
3.05462
3.04602
3.03724
3.02592
3.01496
3.00154
2.9884
2.97281
2.95744
2.93985
2.92248
2.90323
2.88419
2.86362
2.84318
2.82155
2.79996
2.77743
2.75491
2.73164
2.70843
2.68462
2.66112
2.63731
2.61388
2.58999
2.56668
2.5427
2.51946
2.49543
2.47234
2.44841
2.42556
2.40195
2.3795
2.3565
2.33463
2.31261
2.29147
2.27074
2.25066
2.23149
2.21287
2.19562
2.17904
2.16442
2.15096
2.13983
2.13098
2.12478
2.12281
2.12292
2.12325
2.13005
3.95272
3.74743
3.56296
3.41108
3.29697
3.22013
3.16642
3.12034
3.06586
2.99674
2.91608
2.83222
2.75436
2.68829
2.63834
2.60372
2.58743
2.58528
2.59106
2.59941
2.61694
2.64993
2.68669
2.72218
2.75667
2.78888
2.82023
2.84892
2.8772
2.90354
2.9295
2.95323
2.97616
2.99617
3.01501
3.03082
3.04505
3.05713
3.06684
3.07457
3.07985
3.08203
3.0841
3.08483
3.085
3.08138
3.0759
3.06725
3.0581
3.04641
3.03474
3.02092
3.00712
2.99136
2.97546
2.95784
2.93999
2.92076
2.90127
2.88073
2.85987
2.83829
2.81627
2.79382
2.77084
2.74764
2.72412
2.7007
2.6771
2.65338
2.62991
2.60601
2.58267
2.55873
2.53544
2.5116
2.48837
2.46477
2.44171
2.41853
2.39578
2.3733
2.35113
2.32963
2.3084
2.28817
2.26836
2.24968
2.2318
2.21508
2.20001
2.18618
2.1748
2.16543
2.15893
2.15617
2.15617
2.1571
2.15941
2.17143
4.01331
3.84976
3.70047
3.58052
3.49072
3.42968
3.38244
3.33264
3.26899
3.18937
3.09894
3.00666
2.9191
2.84465
2.78333
2.73978
2.71042
2.69683
2.69378
2.69872
2.70516
2.71937
2.74634
2.77732
2.80834
2.83968
2.86857
2.8964
2.92169
2.94642
2.96937
2.99162
3.01213
3.03126
3.04837
3.06374
3.0772
3.08868
3.0982
3.10548
3.11093
3.11285
3.11521
3.11591
3.11641
3.11283
3.10782
3.09948
3.09053
3.07877
3.06683
3.05276
3.03865
3.02281
3.00674
2.98922
2.97128
2.95221
2.93266
2.91224
2.89141
2.86978
2.84794
2.82522
2.80252
2.77928
2.75602
2.73257
2.70884
2.68541
2.66137
2.63795
2.61399
2.59041
2.56688
2.54307
2.52006
2.49626
2.47366
2.45032
2.42807
2.40564
2.38388
2.36273
2.34182
2.32227
2.30282
2.28504
2.26769
2.25226
2.23824
2.22617
2.21675
2.20966
2.20632
2.20604
2.20639
2.20902
2.21448
2.23374
4.08825
3.9622
3.8502
3.76246
3.69376
3.64006
3.58759
3.5245
3.44667
3.35558
3.25845
3.16115
3.07047
2.98973
2.92362
2.87028
2.83226
2.80548
2.79186
2.78445
2.78796
2.79182
2.8012
2.81872
2.84514
2.8713
2.89813
2.92447
2.94866
2.97181
2.99343
3.01355
3.03281
3.04991
3.06618
3.08005
3.09281
3.10331
3.11209
3.11869
3.12362
3.12479
3.1266
3.12669
3.12664
3.12247
3.11763
3.10929
3.10057
3.08872
3.07674
3.06236
3.04806
3.03185
3.01567
2.99785
2.97987
2.9606
2.94092
2.92043
2.89925
2.87772
2.85534
2.833
2.81015
2.78727
2.76426
2.74091
2.7178
2.69417
2.67095
2.6473
2.62403
2.60057
2.57732
2.55417
2.53102
2.50829
2.48544
2.46323
2.441
2.41949
2.3983
2.37779
2.35813
2.33914
2.32136
2.30432
2.28913
2.27527
2.26349
2.25421
2.24734
2.24415
2.24388
2.2443
2.24723
2.25365
2.26359
2.28996
4.18962
4.09747
4.01909
3.95607
3.89891
3.83966
3.77126
3.69062
3.59786
3.49815
3.39794
3.29992
3.20991
3.12795
3.05844
2.99896
2.95203
2.91525
2.88918
2.87115
2.86168
2.85828
2.86185
2.86663
2.87711
2.89759
2.91808
2.94126
2.96496
2.98779
3.00864
3.02833
3.04582
3.06217
3.0768
3.09009
3.10188
3.11212
3.12061
3.12715
3.1319
3.13327
3.13499
3.13515
3.13519
3.13155
3.12687
3.11925
3.11064
3.09952
3.08727
3.07338
3.05844
3.04254
3.02575
3.00812
2.98988
2.97061
2.95107
2.93039
2.90954
2.8878
2.86581
2.84365
2.82088
2.79847
2.77523
2.75247
2.72904
2.70592
2.68255
2.6592
2.63612
2.61273
2.58999
2.56682
2.54437
2.5217
2.49953
2.47765
2.45597
2.43519
2.41442
2.39509
2.37596
2.35838
2.34143
2.32623
2.3127
2.30102
2.29209
2.28555
2.28278
2.28253
2.2833
2.28554
2.29312
2.30678
2.31895
2.34689
4.31896
4.25935
4.20392
4.14985
4.08873
4.01413
3.92746
3.83007
3.72871
3.62524
3.52485
3.4295
3.34068
3.25997
3.18749
3.12425
3.06983
3.02464
2.98772
2.95933
2.93818
2.92502
2.91651
2.91679
2.91939
2.92544
2.93814
2.95378
2.97361
2.99456
3.01568
3.03468
3.05188
3.06772
3.08159
3.09464
3.10576
3.1159
3.12399
3.13034
3.13486
3.1364
3.13741
3.13801
3.13741
3.13438
3.12932
3.12219
3.11375
3.10301
3.09124
3.07756
3.06302
3.0474
3.03077
3.01364
2.99536
2.97668
2.95705
2.93671
2.91594
2.89431
2.87288
2.85058
2.82858
2.80598
2.7834
2.76071
2.73772
2.71502
2.69188
2.66922
2.64618
2.62361
2.60089
2.57847
2.55625
2.53407
2.51252
2.49087
2.4702
2.44955
2.43011
2.41121
2.39353
2.37687
2.36158
2.34848
2.33688
2.32844
2.32209
2.32005
2.31982
2.32035
2.32391
2.3314
2.34497
2.36157
2.3742
2.40079
4.4776
4.44067
4.39952
4.34277
4.26642
4.17021
4.06339
3.95327
3.84389
3.74056
3.64173
3.55118
3.46499
3.38665
3.31295
3.2467
3.18651
3.13406
3.08786
3.04981
3.01817
2.99424
2.97596
2.96547
2.95859
2.9614
2.96406
2.97043
2.98243
2.99712
3.01561
3.03379
3.05074
3.06671
3.0806
3.09365
3.10466
3.11467
3.1228
3.12923
3.13416
3.1356
3.13693
3.1376
3.13711
3.13445
3.12921
3.1227
3.11417
3.1042
3.09261
3.0794
3.06517
3.04954
3.03319
3.0159
2.99775
2.97913
2.95935
2.93941
2.91845
2.89752
2.876
2.85425
2.83243
2.81006
2.78801
2.76531
2.74303
2.72025
2.69777
2.67513
2.65255
2.63025
2.60778
2.58598
2.56392
2.54274
2.52143
2.50105
2.48094
2.46168
2.44338
2.42592
2.40983
2.39469
2.3821
2.37092
2.36298
2.35708
2.35598
2.35569
2.3569
2.36022
2.37014
2.38381
2.39975
2.4166
2.42797
2.45125
4.66104
4.62963
4.58954
4.516
4.41315
4.29618
4.17593
4.06212
3.95204
3.85195
3.75627
3.66945
3.58519
3.5077
3.43221
3.36383
3.29778
3.23933
3.1858
3.1398
3.09973
3.06678
3.03985
3.01957
3.00464
2.99622
2.99193
2.99461
2.99783
3.00421
3.01607
3.03048
3.04593
3.06178
3.07584
3.08923
3.10039
3.11061
3.11878
3.12538
3.1304
3.13232
3.13387
3.13434
3.13425
3.13163
3.12718
3.12098
3.11307
3.10367
3.09249
3.07984
3.06594
3.05061
3.03466
3.01734
2.99968
2.98088
2.96154
2.94166
2.92111
2.90061
2.8792
2.85816
2.83623
2.81469
2.79255
2.77057
2.74844
2.72612
2.70411
2.68164
2.65983
2.63752
2.61596
2.59418
2.57301
2.55217
2.53169
2.51218
2.49288
2.47521
2.458
2.44243
2.42779
2.41555
2.40523
2.39782
2.39272
2.39211
2.39223
2.39364
2.39833
2.4091
2.42375
2.43974
2.45522
2.47056
2.47882
2.49812
4.85904
4.82779
4.77901
4.67943
4.54371
4.40845
4.2805
4.16545
4.05842
3.96171
3.87043
3.78599
3.70359
3.62591
3.5494
3.47791
3.40866
3.34531
3.28605
3.23333
3.1856
3.14451
3.10903
3.07969
3.05601
3.03813
3.02583
3.01879
3.01623
3.01895
3.02257
3.02857
3.04001
3.0534
3.06658
3.08001
3.09152
3.10218
3.11075
3.11775
3.12302
3.12596
3.12726
3.12806
3.12796
3.12601
3.12212
3.1164
3.10907
3.10026
3.0896
3.07778
3.0642
3.04964
3.03388
3.017
2.99958
2.98073
2.96192
2.94189
2.92212
2.90146
2.88084
2.85979
2.83847
2.8172
2.79539
2.77398
2.75194
2.73044
2.70843
2.6869
2.66523
2.64381
2.62275
2.60169
2.58149
2.56124
2.54218
2.52339
2.50594
2.48959
2.47413
2.46041
2.44837
2.43902
2.43197
2.42823
2.42763
2.42797
2.42989
2.43654
2.44831
2.46408
2.47961
2.49592
2.50882
2.52147
2.52645
2.5417
5.06494
5.0243
4.94255
4.80024
4.64975
4.51007
4.38204
4.26943
4.16621
4.07295
3.98482
3.90167
3.82029
3.74164
3.66428
3.59006
3.51787
3.45027
3.38604
3.32739
3.27304
3.22512
3.1819
3.14505
3.11334
3.08746
3.06691
3.05139
3.04125
3.03608
3.03418
3.03645
3.04009
3.04535
3.05561
3.06728
3.0787
3.08965
3.09874
3.10637
3.11223
3.11612
3.11753
3.11857
3.11886
3.11762
3.11431
3.10897
3.1024
3.09402
3.08416
3.07297
3.05996
3.04621
3.03058
3.01456
2.99695
2.979
2.9602
2.94094
2.92141
2.90126
2.88117
2.86039
2.83982
2.81864
2.79767
2.77637
2.75509
2.73393
2.71252
2.69161
2.6704
2.64984
2.62926
2.60928
2.5898
2.5708
2.55299
2.53562
2.52027
2.50521
2.49231
2.48087
2.47254
2.46608
2.46396
2.46355
2.46379
2.46754
2.47535
2.48906
2.50457
2.52145
2.53651
2.5503
2.56006
2.56872
2.57114
2.58217
5.28149
5.20073
5.05813
4.90027
4.74736
4.60996
4.48622
4.37749
4.27776
4.18608
4.09878
4.01483
3.93289
3.85247
3.77398
3.69725
3.62335
3.55198
3.48478
3.42126
3.36277
3.30892
3.26006
3.21673
3.17795
3.14493
3.11614
3.09301
3.07421
3.06066
3.05214
3.04712
3.04412
3.04644
3.05038
3.05538
3.06506
3.07446
3.08361
3.09166
3.0981
3.10282
3.10451
3.10587
3.10627
3.10575
3.10307
3.09845
3.09263
3.0848
3.07596
3.06518
3.05322
3.03984
3.02501
3.00944
2.9923
2.97507
2.95655
2.93814
2.91879
2.89944
2.87959
2.8595
2.83932
2.81871
2.7983
2.77744
2.75687
2.73613
2.7155
2.69524
2.67477
2.65527
2.63537
2.61688
2.59814
2.58112
2.56428
2.54964
2.53545
2.52315
2.51279
2.50534
2.49976
2.49914
2.49889
2.50032
2.50441
2.51557
2.52974
2.5464
2.56278
2.57835
2.59086
2.60109
2.60738
2.61205
2.61307
2.61996
5.46202
5.31416
5.1501
4.99122
4.84406
4.71303
4.5955
4.49064
4.39403
4.30252
4.21509
4.12945
4.04616
3.96396
3.88388
3.80535
3.72948
3.65548
3.5853
3.51803
3.45559
3.39664
3.34294
3.29321
3.24837
3.20784
3.17186
3.14077
3.11425
3.09264
3.07544
3.06405
3.05505
3.04851
3.04721
3.04931
3.0526
3.05682
3.0647
3.07177
3.07844
3.08388
3.08702
3.08837
3.08887
3.08885
3.08703
3.08328
3.0781
3.07104
3.06318
3.05291
3.04226
3.02917
3.0158
3.00042
2.98464
2.96776
2.95026
2.93242
2.91378
2.89521
2.87586
2.85663
2.83692
2.81711
2.79732
2.77714
2.75749
2.73724
2.71787
2.698
2.67908
2.66011
2.64196
2.62444
2.60764
2.59219
2.57786
2.56515
2.55337
2.54441
2.53759
2.53418
2.53347
2.53388
2.53637
2.54334
2.55578
2.57157
2.58837
2.60527
2.62006
2.63288
2.64171
2.64824
2.65103
2.65235
2.65288
2.65663
5.57197
5.39165
5.2225
5.07157
4.93501
4.81445
4.7053
4.60384
4.50893
4.41695
4.32833
4.24118
4.15618
4.0726
3.99079
3.9107
3.83267
3.75651
3.68349
3.61329
3.54719
3.48417
3.42592
3.37072
3.32048
3.27341
3.2314
3.19304
3.15923
3.12985
3.10496
3.08499
3.06999
3.0576
3.04748
3.04295
3.04142
3.04331
3.04575
3.04884
3.05436
3.05914
3.06307
3.06467
3.06518
3.06563
3.06444
3.06209
3.05698
3.05133
3.04345
3.03486
3.02462
3.01322
3.00059
2.98659
2.97184
2.95598
2.93962
2.92248
2.90488
2.88698
2.86849
2.85017
2.83112
2.81246
2.79331
2.77438
2.75553
2.73654
2.71825
2.69957
2.68212
2.66436
2.64813
2.63201
2.61777
2.60434
2.59299
2.58221
2.57473
2.56874
2.56767
2.56739
2.56803
2.57241
2.58249
2.59647
2.61343
2.63054
2.6479
2.66224
2.67487
2.68313
2.68901
2.69113
2.69142
2.69101
2.68969
2.69229
5.62545
5.4311
5.27201
5.13921
5.02031
4.9108
4.80904
4.71085
4.61671
4.52422
4.43432
4.34607
4.25981
4.17526
4.09247
4.01119
3.93161
3.85401
3.77876
3.70633
3.6372
3.57117
3.50874
3.44943
3.39402
3.34163
3.2937
3.2487
3.20881
3.17222
3.1405
3.11245
3.08904
3.07054
3.05364
3.04035
3.03166
3.02738
3.0247
3.02575
3.02655
3.02802
3.03106
3.03331
3.03385
3.03397
3.03383
3.03249
3.02893
3.02387
3.01706
3.00942
3.00013
2.99002
2.97846
2.96598
2.95249
2.93804
2.92299
2.90697
2.89068
2.87366
2.85639
2.83897
2.82091
2.80346
2.78505
2.76775
2.74956
2.73258
2.71504
2.69872
2.68221
2.6671
2.65225
2.63911
2.62717
2.61697
2.60791
2.60154
2.59797
2.59763
2.59803
2.60095
2.60731
2.62042
2.63602
2.6542
2.67171
2.68909
2.70348
2.71541
2.72349
2.72845
2.73003
2.73001
2.72949
2.72769
2.72263
2.72468
5.61256
5.42708
5.29447
5.18644
5.0893
4.99254
4.89723
4.80182
4.70789
4.61563
4.52518
4.43701
4.35056
4.26603
4.18312
4.10164
4.02201
3.94398
3.86812
3.79431
3.72336
3.65462
3.58895
3.52581
3.46596
3.4089
3.35552
3.30514
3.25881
3.21551
3.17652
3.14103
3.10976
3.08275
3.06105
3.04079
3.02363
3.01188
3.00322
2.99802
2.99487
2.99409
2.99445
2.9951
2.99583
2.99604
2.99615
2.99539
2.99371
2.98932
2.98395
2.9771
2.96921
2.96025
2.95011
2.93918
2.92707
2.9142
2.90046
2.88578
2.87088
2.85484
2.83928
2.82253
2.80654
2.78963
2.77339
2.75674
2.74071
2.7247
2.70941
2.69454
2.68055
2.66752
2.65566
2.64564
2.63696
2.63014
2.62488
2.62431
2.62454
2.62606
2.63061
2.64138
2.65641
2.6734
2.69248
2.71062
2.72781
2.74221
2.75329
2.76148
2.76563
2.76669
2.76656
2.76573
2.76358
2.75906
2.75103
2.75219
5.55335
5.40003
5.29891
5.21703
5.13734
5.05382
4.96584
4.87561
4.78472
4.69461
4.60619
4.5192
4.43398
4.34983
4.26702
4.18537
4.10495
4.02616
3.94876
3.87371
3.80046
3.72976
3.66097
3.59495
3.53116
3.47026
3.41215
3.35697
3.30509
3.25623
3.21101
3.16903
3.131
3.09643
3.06597
3.04019
3.01609
2.99548
2.98008
2.96899
2.96128
2.95632
2.95351
2.95203
2.95139
2.95099
2.95048
2.94966
2.94807
2.94539
2.94122
2.93583
2.92927
2.92148
2.91293
2.90334
2.89291
2.88178
2.86945
2.85694
2.8431
2.82947
2.8148
2.80036
2.78539
2.7705
2.75562
2.74087
2.72654
2.7126
2.69941
2.68692
2.67566
2.66534
2.65741
2.65043
2.64568
2.64322
2.64355
2.64514
2.64888
2.65732
2.67095
2.68804
2.7069
2.72637
2.74534
2.76194
2.77663
2.78715
2.79521
2.79901
2.79948
2.79935
2.79855
2.796
2.79056
2.78463
2.77523
2.77536
5.47498
5.35786
5.28436
5.22027
5.15374
5.08007
5.00162
4.91929
4.83581
4.7515
4.66751
4.58376
4.50047
4.41763
4.33532
4.25372
4.1732
4.09384
4.01617
3.93999
3.86584
3.79339
3.72265
3.65374
3.58691
3.52223
3.4603
3.40068
3.34431
3.29032
3.23986
3.19208
3.14792
3.10712
3.06995
3.03671
3.00798
2.98099
2.95804
2.93977
2.92543
2.91473
2.90714
2.90208
2.89877
2.89676
2.89538
2.89426
2.89298
2.89113
2.88821
2.88444
2.87924
2.87314
2.86599
2.85806
2.8495
2.83989
2.82983
2.81873
2.80729
2.79515
2.78272
2.77001
2.75711
2.74432
2.73158
2.71935
2.70736
2.69637
2.68581
2.67673
2.66861
2.66244
2.65818
2.65477
2.65546
2.65674
2.66006
2.66628
2.67928
2.6956
2.71398
2.73479
2.75449
2.77451
2.79083
2.80558
2.81586
2.82348
2.8272
2.82758
2.82743
2.82652
2.82409
2.81849
2.81149
2.80457
2.79449
2.79372
5.40697
5.32146
5.26615
5.21097
5.14881
5.08138
5.00891
4.93316
4.85498
4.77528
4.6952
4.61489
4.53526
4.45556
4.37675
4.29773
4.21994
4.14209
4.06546
3.98915
3.91436
3.84046
3.7679
3.697
3.62773
3.56069
3.49568
3.43306
3.37284
3.31509
3.26021
3.20789
3.15892
3.1127
3.07009
3.0308
2.99538
2.96411
2.9346
2.90997
2.88918
2.87273
2.85967
2.85009
2.84317
2.83834
2.8352
2.83284
2.83121
2.82961
2.82747
2.82476
2.82086
2.81631
2.81071
2.80444
2.79754
2.78968