/*--------------------------------*- C++ -*----------------------------------*\
  =========                 |
  \\      /  F ield         | OpenFOAM: The Open Source CFD Toolbox
   \\    /   O peration     | Website:  https://openfoam.org
    \\  /    A nd           | Version:  13
     \\/     M anipulation  |
\*---------------------------------------------------------------------------*/
FoamFile
{
    format      ascii;
    class       volScalarField;
    location    "9.5";
    object      T;
}
// * * * * * * * * * * * * * * * * * * * * * * * * * * * * * * * * * * * * * //

dimensions      [0 0 0 1 0 0 0];

internalField   nonuniform List<scalar> 
5250
(
1.00001
1.00002
1.00005
1.00015
1.00033
1.00094
1.00207
1.00559
1.01307
1.03396
1.08546
1.22888
1.61203
2.38211
2.72172
2.73974
2.73531
2.73823
2.75
2.76574
2.77813
2.7863
2.79314
2.79814
2.80117
1.00001
1.00002
1.00005
1.00015
1.00033
1.00093
1.00206
1.00552
1.01296
1.03356
1.08456
1.22627
1.60543
2.37335
2.71858
2.73921
2.73471
2.73747
2.74915
2.76476
2.77705
2.78518
2.79197
2.79689
2.79977
1.00001
1.00002
1.00005
1.00015
1.00031
1.00093
1.00198
1.00547
1.01252
1.03303
1.08231
1.2211
1.59106
2.35368
2.71123
2.73776
2.73297
2.7352
2.74655
2.76195
2.7739
2.782
2.78869
2.79369
2.79655
1.00001
1.00002
1.00006
1.00013
1.00036
1.00076
1.00221
1.00471
1.0131
1.03041
1.08101
1.21155
1.57007
2.32212
2.69962
2.73575
2.73026
2.73149
2.74238
2.75717
2.76905
2.77657
2.78285
2.78737
2.79011
1.00001
1.00002
1.00005
1.00014
1.00029
1.00086
1.00181
1.00506
1.01148
1.03039
1.0753
1.20203
1.5406
2.2779
2.68302
2.7333
2.72669
2.72634
2.73654
2.75069
2.76218
2.76953
2.77533
2.77974
2.78222
1.00001
1.00002
1.00005
1.00013
1.00029
1.00078
1.00172
1.00476
1.01063
1.02873
1.06996
1.18881
1.50405
2.21818
2.66056
2.73035
2.722
2.71964
2.72923
2.74231
2.75316
2.75985
2.7649
2.76803
2.77012
1.00001
1.00002
1.00005
1.0001
1.00029
1.00064
1.00175
1.00401
1.01047
1.02528
1.0655
1.17121
1.46129
2.13955
2.63072
2.7264
2.7159
2.71091
2.71952
2.73194
2.74129
2.74707
2.75119
2.75327
2.75356
1
1.00001
1.00004
1.00009
1.00026
1.00058
1.00157
1.00364
1.00936
1.02283
1.05851
1.15267
1.41077
2.03951
2.59186
2.72036
2.70737
2.69981
2.70758
2.71907
2.72761
2.73088
2.73255
2.73152
2.72776
1
1.00001
1.00003
1.00009
1.00021
1.00057
1.00125
1.0035
1.00767
1.02095
1.04985
1.13364
1.35461
1.91858
2.5421
2.70898
2.69397
2.68456
2.69191
2.70192
2.70949
2.71104
2.7088
2.70156
2.68601
1
1.00001
1.00003
1.00008
1.00017
1.00051
1.00105
1.00304
1.00658
1.01791
1.04253
1.11273
1.29682
1.77695
2.4795
2.68866
2.67321
2.6645
2.67152
2.68068
2.68632
2.6855
2.67648
2.65411
2.59747
1
1.00001
1.00003
1.00007
1.00017
1.00041
1.00099
1.0025
1.00589
1.01531
1.03689
1.09663
1.25424
1.67361
2.41598
2.66798
2.65506
2.64617
2.64889
2.65638
2.65991
2.65497
2.63544
2.5884
2.48341
1
1.00001
1.00003
1.00005
1.00016
1.00032
1.00092
1.00202
1.00545
1.01265
1.03295
1.0824
1.22009
1.58539
2.3221
2.63268
2.64191
2.63286
2.62972
2.63215
2.63132
2.62058
2.59103
2.52913
2.41892
1
1.00001
1.00002
1.00005
1.00011
1.00033
1.00068
1.00198
1.0042
1.01172
1.02698
1.07184
1.18583
1.50011
2.19427
2.58253
2.63254
2.62269
2.61373
2.61063
2.6042
2.58686
2.5521
2.48989
2.39723
1
1.00001
1.00002
1.00004
1.00011
1.00024
1.00067
1.00142
1.00408
1.00882
1.02417
1.058
1.15558
1.41347
2.03664
2.5166
2.62045
2.61107
2.59941
2.58903
2.57817
2.55782
2.51994
2.46511
2.38642
1
1.00001
1.00001
1.00003
1.00009
1.0002
1.00054
1.00119
1.00327
1.00722
1.01965
1.04652
1.12428
1.32761
1.84954
2.43062
2.59707
2.59256
2.58122
2.56831
2.55304
2.53225
2.49673
2.44538
2.3802
1
1
1.00001
1.00003
1.00007
1.00016
1.00042
1.00095
1.00258
1.0057
1.01547
1.03607
1.09558
1.24782
1.65144
2.32347
2.55887
2.56567
2.55684
2.54367
2.52853
2.50707
2.47648
2.43012
2.37285
1
1
1.00001
1.00002
1.00005
1.00014
1.00032
1.0008
1.00198
1.00472
1.01216
1.02912
1.07574
1.19669
1.52347
2.19959
2.51295
2.54306
2.53333
2.52182
2.50695
2.48479
2.4567
2.41759
2.36715
1
1
1.00001
1.00002
1.00005
1.0001
1.00027
1.00062
1.00156
1.00383
1.00935
1.02349
1.05883
1.1541
1.40951
2.01357
2.4354
2.52192
2.5155
2.50228
2.48806
2.46666
2.43965
2.406
2.36314
1
1
1.00001
1.00001
1.00003
1.00008
1.00019
1.00052
1.00112
1.00313
1.00681
1.01856
1.04368
1.11616
1.30384
1.78771
2.33103
2.49064
2.49553
2.48547
2.46873
2.45003
2.42507
2.39613
2.36011
1
1
1
1.00001
1.00003
1.00006
1.00016
1.00034
1.00097
1.002
1.00574
1.01251
1.03374
1.08188
1.21754
1.56695
2.19586
2.44294
2.47
2.46366
2.44927
2.43219
2.41265
2.38757
2.35917
1
1
1
1.00001
1.00002
1.00005
1.00011
1.00028
1.00066
1.00165
1.00406
1.00983
1.02477
1.06167
1.16127
1.42476
2.02052
2.37773
2.44677
2.44356
2.43189
2.41668
2.40068
2.38109
2.35921
1
1
1
1.00001
1.00001
1.00003
1.00008
1.0002
1.00049
1.00125
1.00287
1.00759
1.0175
1.04586
1.11497
1.30602
1.78321
2.27269
2.41487
2.42405
2.41706
2.40387
2.3896
2.37693
2.36293
1
1
1
1
1.00001
1.00002
1.00006
1.00013
1.00038
1.00082
1.0022
1.00505
1.01292
1.03121
1.07985
1.20592
1.53896
2.12685
2.36399
2.40133
2.40004
2.39277
2.38133
2.37671
2.37184
1
1
1
1
1.00001
1.00002
1.00004
1.0001
1.00027
1.00059
1.00162
1.00349
1.00968
1.02172
1.05781
1.14506
1.38521
1.93159
2.29349
2.3792
2.38752
2.38501
2.38153
2.38218
2.386
1
1
1
1
1
1.00001
1.00003
1.00008
1.00017
1.00045
1.00107
1.0026
1.00651
1.01555
1.03958
1.09917
1.26025
1.66907
2.18003
2.34927
2.37495
2.38282
2.38603
2.3923
2.40067
1
1
1
1
1
1.00001
1.00002
1.00005
1.00013
1.0003
1.00078
1.00175
1.0047
1.01051
1.02793
1.06702
1.1767
1.45971
2.02416
2.3044
2.36657
2.38653
2.39782
2.40933
2.41972
1
1
1
1
1
1.00001
1.00001
1.00004
1.00009
1.00021
1.00055
1.00123
1.00332
1.00734
1.01972
1.04634
1.12246
1.31683
1.79474
2.2262
2.36327
2.40061
2.41674
2.42901
2.4391
1
1
1
1
1
1
1.00001
1.00003
1.00006
1.00015
1.00036
1.00089
1.00221
1.00522
1.01339
1.03178
1.08211
1.2098
1.5468
2.10686
2.35585
2.4228
2.44473
2.45401
2.46038
1
1
1
1
1
1
1.00001
1.00002
1.00004
1.00011
1.00025
1.00068
1.00148
1.00412
1.00897
1.02436
1.05763
1.15327
1.3987
1.95374
2.34079
2.46255
2.48065
2.48365
2.47926
1
1
1
1
1
1
1.00001
1.00001
1.00003
1.00008
1.0002
1.00045
1.00122
1.00266
1.00734
1.01634
1.04367
1.10737
1.28478
1.72157
2.30497
2.51066
2.5262
2.51627
2.49868
1
1
1
1
1
1
1
1.00001
1.00003
1.00006
1.00016
1.00034
1.001
1.00207
1.0059
1.01302
1.03494
1.08571
1.2288
1.6002
2.27215
2.56619
2.58273
2.55772
2.52251
1
1
1
1
1
1
1
1.00001
1.00002
1.00005
1.00013
1.00029
1.00083
1.00174
1.00501
1.01094
1.02981
1.07271
1.19598
1.5207
2.20262
2.61233
2.64645
2.60909
2.55714
1
1
1
1
1
1
1
1.00001
1.00002
1.00005
1.0001
1.00028
1.00063
1.00169
1.00398
1.0102
1.02509
1.06467
1.1703
1.45992
2.108
2.63778
2.70423
2.65883
2.59558
1
1
1
1
1
1
1
1.00001
1.00001
1.00004
1.00009
1.00026
1.00053
1.00159
1.00332
1.0095
1.02163
1.05841
1.15035
1.41145
2.01681
2.64885
2.74644
2.69482
2.62837
1
1
1
1
1
1
1
1.00001
1.00001
1.00003
1.00009
1.00021
1.00052
1.00135
1.00311
1.0084
1.01963
1.05233
1.13473
1.36954
1.93119
2.64242
2.77247
2.71886
2.65519
1
1
1
1
1
1
1
1.00001
1.00001
1.00003
1.00007
1.00021
1.00044
1.00129
1.00275
1.00774
1.01778
1.0476
1.12159
1.33275
1.85352
2.62565
2.78339
2.72931
2.67034
1
1
1
1
1
1
1
1
1.00001
1.00003
1.00008
1.00017
1.00049
1.00101
1.00298
1.00644
1.01778
1.04238
1.11371
1.30338
1.80144
2.57676
2.78539
2.738
2.68757
1
1
1
1
1
1
1
1
1.00001
1.00003
1.00006
1.00019
1.00039
1.00113
1.00248
1.00674
1.01579
1.04151
1.10575
1.28671
1.7662
2.54138
2.78724
2.7489
2.7008
1
1
1
1
1
1
1
1
1.00001
1.00003
1.00007
1.00016
1.00041
1.00099
1.00258
1.00603
1.0159
1.03855
1.10212
1.27227
1.73537
2.50891
2.78283
2.7553
2.70541
1
1
1
1
1
1
1
1
1.00001
1.00003
1.00006
1.00017
1.00037
1.00101
1.00236
1.00608
1.01485
1.03785
1.09748
1.26204
1.70987
2.48088
2.7741
2.75375
2.71157
1
1
1
1
1
1
1
1
1.00001
1.00003
1.00006
1.00017
1.00034
1.00103
1.00216
1.00616
1.01391
1.03737
1.0936
1.25382
1.69097
2.4532
2.76364
2.74993
2.71803
1
1
1
1
1
1
1
1
1.00001
1.00003
1.00006
1.00016
1.00036
1.00095
1.00225
1.0057
1.01408
1.03558
1.09181
1.24563
1.67612
2.42517
2.75417
2.74702
2.72114
1
1
1
1
1
1
1
1
1.00001
1.00002
1.00006
1.00014
1.00038
1.00086
1.00228
1.00544
1.01387
1.0345
1.08966
1.23883
1.66081
2.3985
2.74311
2.74727
2.72224
1
1
1
1
1
1
1
1
1.00001
1.00002
1.00006
1.00015
1.00033
1.00094
1.00202
1.00577
1.01279
1.0348
1.08624
1.23383
1.64293
2.37508
2.73325
2.74739
2.72302
1
1
1
1
1
1
1
1
1.00001
1.00002
1.00006
1.00014
1.00036
1.00082
1.00226
1.00499
1.01379
1.03218
1.08631
1.22674
1.62003
2.3591
2.72482
2.74669
2.72368
1
1
1
1
1
1
1
1
1.00001
1.00002
1.00006
1.00013
1.00038
1.00078
1.00225
1.00494
1.0134
1.03188
1.08433
1.22229
1.59843
2.34919
2.71667
2.74503
2.72345
1
1
1
1
1
1
1
1
1.00001
1.00002
1.00006
1.00012
1.00037
1.00076
1.00223
1.00485
1.01328
1.03139
1.08325
1.21892
1.58956
2.33989
2.70756
2.74232
2.72198
1
1
1
1
1
1
1
1
1.00001
1.00002
1.00006
1.00013
1.00036
1.00078
1.0022
1.00479
1.01327
1.03089
1.08262
1.21625
1.58311
2.33353
2.69948
2.73956
2.71958
1
1
1
1
1
1
1
1
1.00001
1.00002
1.00005
1.00014
1.00033
1.00082
1.00209
1.00493
1.01294
1.03101
1.0817
1.21485
1.57863
2.32979
2.6934
2.73739
2.71805
1
1
1
1
1
1
1
1
1.00001
1.00002
1.00006
1.00012
1.00036
1.00077
1.00215
1.00487
1.01289
1.03102
1.08132
1.21431
1.57596
2.32831
2.69017
2.73623
2.71763
2.35665
2.4945
2.80489
3.06783
3.04556
3.01076
2.99743
2.9866
2.97104
2.95479
2.94092
2.93294
2.9307
2.92954
2.92931
2.9325
2.93747
2.94498
2.95282
2.96171
2.96915
2.97873
2.98564
2.99369
2.99996
3.00477
3.01018
3.01282
3.01526
3.01606
3.01621
3.01391
3.01105
3.00836
3.00746
3.00434
3.00134
2.99709
2.99161
2.98452
2.97981
2.97166
2.96603
2.95706
2.95001
2.94043
2.9322
2.92189
2.9143
2.90374
2.89499
2.88457
2.87483
2.86454
2.85477
2.8437
2.83449
2.82289
2.8133
2.80149
2.79167
2.78021
2.76966
2.75873
2.74758
2.73668
2.72556
2.71434
2.70343
2.69197
2.68113
2.66964
2.65893
2.64742
2.63698
2.62543
2.61526
2.60378
2.59374
2.58256
2.57247
2.56187
2.55167
2.54177
2.53158
2.52226
2.51237
2.50347
2.49418
2.4857
2.4772
2.46935
2.46182
2.45499
2.44877
2.44344
2.43906
2.43585
2.43403
2.43147
2.37126
2.4644
2.62934
2.85433
3.00367
3.04733
3.14174
3.16761
3.16905
3.16521
3.15832
3.15725
3.15788
3.15637
3.15098
3.14562
3.14047
3.13538
3.12871
3.12323
3.11519
3.10564
3.09678
3.09167
3.08786
3.08255
3.07602
3.06701
3.05934
3.04851
3.03873
3.02703
3.01754
3.00602
2.99485
2.98234
2.97077
2.95774
2.94399
2.93117
2.91768
2.90449
2.89173
2.87896
2.86485
2.85177
2.83775
2.82568
2.81227
2.79976
2.78733
2.77456
2.76251
2.74977
2.738
2.72561
2.71397
2.70218
2.69028
2.67905
2.66701
2.65599
2.64429
2.63324
2.62208
2.611
2.60019
2.58913
2.57855
2.56749
2.55719
2.54615
2.5362
2.52525
2.51566
2.50491
2.49556
2.48514
2.47586
2.46591
2.45659
2.44716
2.43784
2.42889
2.41977
2.41116
2.40246
2.39416
2.38607
2.37812
2.37069
2.36335
2.35674
2.35036
2.34491
2.33997
2.3362
2.33326
2.33189
2.32955
2.36041
2.38833
2.46977
2.53149
2.66645
2.78404
2.93749
3.05587
3.13034
3.15802
3.16456
3.17761
3.21953
3.23677
3.22863
3.2181
3.20008
3.18422
3.16664
3.14916
3.13114
3.11254
3.09589
3.07775
3.05813
3.03927
3.01845
2.99851
2.97796
2.95868
2.93816
2.91923
2.89994
2.88088
2.86259
2.84414
2.82643
2.80919
2.79207
2.776
2.75941
2.7444
2.7295
2.71497
2.7008
2.68565
2.6723
2.65809
2.64564
2.63227
2.62032
2.60758
2.59569
2.58382
2.57191
2.56088
2.54899
2.53837
2.52664
2.51618
2.50482
2.49457
2.48362
2.4736
2.46291
2.45301
2.44248
2.43261
2.42229
2.41243
2.40238
2.3926
2.38285
2.37327
2.36377
2.35455
2.34519
2.33649
2.32715
2.31908
2.30976
2.3023
2.2931
2.28615
2.27721
2.27061
2.26209
2.25583
2.24785
2.24207
2.23479
2.22967
2.22324
2.21904
2.21377
2.21093
2.20734
2.20644
2.20536
2.20484
2.33779
2.33062
2.36445
2.3951
2.45839
2.53113
2.61378
2.70945
2.81762
2.90129
2.97416
3.01589
3.04538
3.05842
3.05534
3.04761
3.03474
3.01689
2.99673
2.97395
2.94914
2.92328
2.89867
2.87322
2.85092
2.82639
2.80445
2.78132
2.76037
2.73987
2.72068
2.70303
2.68527
2.66997
2.65391
2.64032
2.62619
2.61369
2.6009
2.58905
2.57711
2.56628
2.55559
2.54575
2.53499
2.5248
2.51414
2.50485
2.49469
2.48613
2.47608
2.46801
2.45803
2.45025
2.44041
2.43273
2.4231
2.41539
2.40598
2.39821
2.38899
2.38113
2.37206
2.36407
2.3551
2.34697
2.33811
2.32985
2.32109
2.31276
2.3041
2.29576
2.28713
2.27886
2.27019
2.26209
2.25333
2.2455
2.23663
2.22907
2.22014
2.21276
2.20393
2.19668
2.18819
2.18118
2.17323
2.16652
2.15921
2.1529
2.14635
2.14063
2.13498
2.13011
2.12568
2.12211
2.11933
2.11782
2.11727
2.11586
2.32329
2.29653
2.2977
2.3194
2.34597
2.39498
2.44272
2.49838
2.54983
2.60243
2.63985
2.67298
2.68966
2.70221
2.70009
2.69428
2.6874
2.6786
2.67173
2.6597
2.64706
2.63451
2.62039
2.60767
2.59365
2.5821
2.5687
2.55776
2.54602
2.53659
2.52721
2.51859
2.51076
2.50247
2.49565
2.48794
2.48185
2.47462
2.46906
2.46196
2.45668
2.44976
2.44514
2.43866
2.43344
2.42601
2.41977
2.41256
2.40622
2.39911
2.39247
2.38521
2.37836
2.37085
2.36384
2.35607
2.34891
2.34098
2.33364
2.32564
2.31812
2.31014
2.30252
2.29459
2.28694
2.27902
2.27139
2.26341
2.25583
2.24774
2.24023
2.23207
2.22462
2.21652
2.20907
2.20117
2.19362
2.1859
2.17818
2.17071
2.16293
2.15573
2.14802
2.14105
2.1335
2.12676
2.11949
2.11306
2.1062
2.10024
2.09397
2.08868
2.08332
2.079
2.07496
2.07212
2.06987
2.06932
2.06934
2.06852
2.31941
2.28068
2.26663
2.26897
2.28586
2.31323
2.34895
2.38454
2.41674
2.44295
2.45935
2.47055
2.47287
2.47163
2.46893
2.46417
2.45934
2.45263
2.45279
2.45234
2.45112
2.44822
2.44584
2.44168
2.4395
2.4361
2.43378
2.43067
2.42853
2.42612
2.42374
2.42113
2.41845
2.4153
2.4127
2.40937
2.40688
2.40336
2.40054
2.3965
2.39291
2.38846
2.38473
2.38045
2.37591
2.37055
2.36465
2.35912
2.35296
2.34738
2.34081
2.33501
2.32814
2.32208
2.31498
2.30861
2.30136
2.29468
2.28735
2.28031
2.27284
2.26535
2.25775
2.24981
2.24216
2.23386
2.22621
2.21769
2.21005
2.20151
2.19387
2.18551
2.17786
2.16979
2.16199
2.15429
2.14636
2.13916
2.13122
2.12448
2.1166
2.11025
2.10256
2.09649
2.08913
2.08325
2.07638
2.07063
2.0644
2.05883
2.05331
2.04823
2.04351
2.03945
2.03584
2.03333
2.03148
2.03127
2.03134
2.0298
2.31791
2.27828
2.2545
2.24776
2.25368
2.27086
2.29669
2.32101
2.34292
2.35457
2.36027
2.3578
2.35177
2.34434
2.33825
2.33335
2.32958
2.32598
2.32617
2.32963
2.3338
2.33723
2.33958
2.34179
2.34289
2.34414
2.34493
2.34592
2.34675
2.34706
2.34729
2.34721
2.34693
2.34629
2.34557
2.34414
2.34256
2.34018
2.33747
2.33418
2.3303
2.32631
2.32211
2.31816
2.31324
2.30824
2.30211
2.29665
2.29033
2.28467
2.27814
2.27211
2.26536
2.259
2.25208
2.24543
2.23836
2.2315
2.22434
2.21737
2.21016
2.20311
2.19584
2.18872
2.18144
2.17427
2.16703
2.15986
2.15266
2.14555
2.13833
2.13129
2.12399
2.11712
2.10979
2.10317
2.09576
2.08937
2.08193
2.07569
2.06831
2.06217
2.055
2.04897
2.04214
2.03633
2.02999
2.02458
2.01884
2.01396
2.00909
2.00484
2.00122
1.9979
1.99586
1.99412
1.99419
1.99461
1.99575
1.9945
2.31914
2.28157
2.25525
2.24453
2.24526
2.25713
2.27495
2.29246
2.30485
2.30788
2.30381
2.29402
2.28174
2.26918
2.25925
2.25206
2.24885
2.24515
2.24441
2.24589
2.2509
2.25648
2.26075
2.26454
2.26712
2.26957
2.27121
2.27296
2.27426
2.27551
2.2763
2.27685
2.27682
2.27655
2.27589
2.2745
2.2733
2.27112
2.26917
2.26641
2.26363
2.26083
2.25802
2.25546
2.25194
2.24841
2.24359
2.23939
2.23406
2.22958
2.22391
2.21909
2.21309
2.20792
2.20167
2.19618
2.18973
2.18393
2.17731
2.17122
2.16445
2.15805
2.15114
2.14449
2.13744
2.1306
2.12345
2.11651
2.10922
2.10218
2.09481
2.08781
2.08037
2.07348
2.06604
2.05933
2.052
2.0455
2.03834
2.03203
2.02507
2.01891
2.01223
2.00615
1.99988
1.99393
1.98818
1.98256
1.97746
1.97235
1.96812
1.96388
1.96069
1.95791
1.95607
1.95546
1.95565
1.95613
1.95774
1.95663
2.32234
2.29076
2.26654
2.25431
2.25397
2.26118
2.27346
2.28342
2.28706
2.28304
2.27242
2.25767
2.24096
2.22566
2.21229
2.20385
2.19745
2.19528
2.19235
2.19248
2.19458
2.19984
2.20523
2.21017
2.21393
2.21773
2.22034
2.22336
2.22538
2.22783
2.22942
2.23138
2.23236
2.23377
2.23412
2.23483
2.23465
2.23425
2.23365
2.23245
2.23092
2.2293
2.2274
2.2257
2.22292
2.22012
2.21602
2.21237
2.20762
2.20349
2.19833
2.19377
2.18829
2.18331
2.17756
2.1722
2.16623
2.16052
2.15435
2.14831
2.14195
2.13559
2.12907
2.12243
2.1158
2.10896
2.1022
2.09528
2.08839
2.08156
2.07451
2.06776
2.06059
2.0539
2.04676
2.04014
2.03317
2.02668
2.01997
2.01362
2.00723
2.001
1.99497
1.98891
1.98325
1.97748
1.97224
1.96701
1.96223
1.95791
1.95382
1.95069
1.94782
1.94609
1.94523
1.94537
1.94582
1.94671
1.9492
1.94851
2.32906
2.30223
2.28383
2.27408
2.27436
2.2785
2.28381
2.28553
2.28103
2.27034
2.25498
2.23671
2.21858
2.20072
2.18638
2.17441
2.16685
2.16123
2.1591
2.1564
2.15648
2.15796
2.1622
2.16667
2.17149
2.17536
2.17938
2.18226
2.1855
2.18789
2.1905
2.19244
2.19432
2.19566
2.19676
2.19736
2.19751
2.19731
2.1967
2.19577
2.19417
2.19277
2.19073
2.18911
2.18626
2.18366
2.17974
2.17637
2.17186
2.16798
2.16307
2.15867
2.1534
2.14848
2.1429
2.13754
2.13172
2.12598
2.11993
2.11388
2.10754
2.10126
2.09465
2.08823
2.08144
2.07487
2.06812
2.06144
2.05489
2.04803
2.0416
2.03467
2.02816
2.02139
2.01465
2.00822
2.00133
1.99523
1.98843
1.9825
1.97604
1.97015
1.96421
1.95837
1.95305
1.94747
1.94282
1.93782
1.93385
1.92995
1.92685
1.92449
1.92271
1.92229
1.92255
1.9232
1.92448
1.92642
1.93052
1.93195
2.33966
2.32063
2.30832
2.30129
2.30096
2.30081
2.29905
2.29321
2.28183
2.2666
2.24812
2.22867
2.20924
2.19174
2.17553
2.16273
2.15182
2.14488
2.13905
2.13664
2.13415
2.13364
2.13404
2.13705
2.14111
2.14525
2.14966
2.15326
2.15696
2.15989
2.16254
2.165
2.16676
2.16868
2.16972
2.1709
2.17124
2.1715
2.17128
2.17072
2.16951
2.16865
2.16701
2.16585
2.16346
2.16143
2.15783
2.15494
2.15074
2.14724
2.14259
2.13851
2.13344
2.12885
2.12343
2.1184
2.11276
2.10733
2.10155
2.09571
2.08979
2.08357
2.07746
2.07097
2.06461
2.05811
2.05155
2.04512
2.03841
2.03201
2.02527
2.01883
2.01212
2.00561
1.99902
1.99246
1.98607
1.97955
1.97339
1.96703
1.96109
1.95505
1.94931
1.94374
1.9383
1.93335
1.92839
1.92423
1.92022
1.91709
1.91459
1.91283
1.91236
1.9126
1.91324
1.91454
1.91649
1.92049
1.92526
1.92747
2.35163
2.34229
2.33575
2.33069
2.3274
2.3224
2.31395
2.30147
2.28603
2.26821
2.24838
2.22881
2.20905
2.19146
2.17477
2.16076
2.14835
2.13876
2.1309
2.12545
2.12119
2.11888
2.11697
2.11708
2.11846
2.12179
2.12497
2.12901
2.13265
2.13581
2.13881
2.14102
2.14327
2.14491
2.14643
2.1475
2.14821
2.14846
2.14835
2.14782
2.14674
2.14575
2.1442
2.14302
2.14065
2.13843
2.13506
2.13209
2.12825
2.12465
2.12049
2.11628
2.11179
2.10708
2.10219
2.09715
2.09183
2.08657
2.08085
2.07532
2.06931
2.06339
2.05726
2.05096
2.04488
2.03838
2.03231
2.02576
2.0196
2.01316
2.00685
2.00054
1.99405
1.98786
1.98127
1.97514
1.96865
1.96256
1.95637
1.95033
1.94459
1.93869
1.93347
1.92792
1.92324
1.91835
1.91425
1.91045
1.90728
1.90497
1.90323
1.90284
1.90308
1.90374
1.90492
1.90764
1.9109
1.9162
1.92143
1.92387
2.36854
2.36561
2.36355
2.35982
2.35286
2.3422
2.32729
2.31036
2.29112
2.27192
2.25224
2.2329
2.21442
2.1968
2.18064
2.16536
2.1519
2.13987
2.12982
2.12135
2.11481
2.10937
2.1064
2.10411
2.10345
2.1037
2.10513
2.10809
2.11087
2.11453
2.11725
2.11989
2.12208
2.12368
2.12529
2.12615
2.12703
2.12722
2.1273
2.12696
2.12614
2.12505
2.12401
2.12259
2.12079
2.11839
2.11557
2.11263
2.10909
2.10566
2.10157
2.09753
2.09302
2.08831
2.08347
2.07823
2.0731
2.06761
2.06214
2.05654
2.05067
2.04495
2.03878
2.03296
2.02671
2.02069
2.01449
2.00825
2.00214
1.99575
1.98966
1.98323
1.97712
1.97074
1.9646
1.95839
1.95224
1.94634
1.94031
1.9348
1.92906
1.92399
1.91878
1.91418
1.9097
1.90563
1.90222
1.89907
1.89712
1.89542
1.89539
1.89565
1.89642
1.89804
1.90031
1.90491
1.90961
1.91514
1.9201
1.92203
2.38828
2.38922
2.38687
2.38063
2.36852
2.35314
2.33523
2.31617
2.29743
2.27802
2.25973
2.24063
2.22318
2.20527
2.18906
2.17271
2.15821
2.14437
2.13254
2.12172
2.11305
2.10554
2.10009
2.09543
2.09309
2.09113
2.09074
2.09099
2.09238
2.0949
2.09756
2.10009
2.10231
2.10388
2.10547
2.10626
2.10711
2.10733
2.10739
2.10707
2.10624
2.10525
2.10406
2.10272
2.10103
2.09873
2.09634
2.09335
2.09029
2.08679
2.08302
2.07908
2.07471
2.07029
2.06549
2.06058
2.05556
2.05022
2.04503
2.03936
2.03392
2.02811
2.0224
2.0166
2.01061
2.00482
1.99864
1.99281
1.9866
1.98069
1.97456
1.96856
1.96259
1.95651
1.95071
1.94462
1.93898
1.93302
1.92757
1.92196
1.9168
1.9118
1.90708
1.90291
1.89877
1.89565
1.89259
1.89086
1.88939
1.88947
1.88983
1.89077
1.89228
1.89548
1.89944
1.905
1.90998
1.91494
1.91913
1.92039
2.4072
2.41207
2.40883
2.39855
2.38192
2.36244
2.34257
2.32163
2.30319
2.28422
2.26739
2.24933
2.23301
2.21557
2.19982
2.18308
2.16804
2.15274
2.13933
2.12649
2.11547
2.10554
2.09732
2.0904
2.08527
2.08139
2.07918
2.07755
2.07712
2.07732
2.07855
2.08023
2.08216
2.08358
2.08516
2.0859
2.08678
2.08698
2.08708
2.08681
2.08616
2.08519
2.08391
2.08282
2.08108
2.07918
2.07669
2.07392
2.0709
2.0675
2.06395
2.06012
2.05598
2.05174
2.04701
2.04239
2.03729
2.03229
2.02701
2.02159
2.01626
2.01057
2.00519
1.99932
1.99382
1.98787
1.9822
1.97629
1.97042
1.96465
1.95865
1.95303
1.94703
1.94153
1.93567
1.93022
1.92466
1.91927
1.91415
1.90895
1.90442
1.89967
1.89585
1.89181
1.88881
1.88609
1.88434
1.88328
1.88341
1.884
1.88491
1.88688
1.89004
1.89501
1.9001
1.90553
1.9103
1.91403
1.9177
1.91802
2.42471
2.42864
2.42212
2.40601
2.3855
2.36472
2.34533
2.3257
2.30827
2.29083
2.27469
2.25776
2.24182
2.22486
2.20891
2.19204
2.17618
2.16007
2.1454
2.13111
2.11853
2.1068
2.09669
2.08784
2.08042
2.07441
2.06969
2.0663
2.06399
2.06235
2.06133
2.06143
2.0623
2.06337
2.06483
2.06558
2.06653
2.06675
2.06686
2.0666
2.06605
2.06494
2.0639
2.06271
2.06127
2.05947
2.05712
2.05453
2.05164
2.0484
2.04508
2.04127
2.03744
2.03319
2.02876
2.02423
2.01929
2.01458
2.00927
2.00435
1.99892
1.99377
1.98831
1.98288
1.97743
1.97177
1.96633
1.96052
1.95508
1.94925
1.94379
1.93807
1.93258
1.92709
1.92158
1.9164
1.91101
1.90619
1.90115
1.89675
1.89239
1.88853
1.88504
1.88197
1.87981
1.87812
1.87765
1.87784
1.87862
1.87985
1.88234
1.8857
1.89098
1.89587
1.90162
1.90579
1.91002
1.9122
1.91498
1.91457
2.44497
2.44243
2.42984
2.40846
2.38645
2.36519
2.34681
2.32888
2.31292
2.29674
2.28118
2.26496
2.24899
2.2324
2.21607
2.19926
2.183
2.16661
2.15131
2.13627
2.12269
2.10948
2.09793
2.08701
2.07758
2.06923
2.0622
2.05662
2.05195
2.04883
2.04624
2.04477
2.0436
2.04366
2.04419
2.04484
2.04572
2.04598
2.04626
2.04602
2.04551
2.04452
2.04348
2.04232
2.04098
2.03936
2.03718
2.03491
2.03214
2.02924
2.02604
2.02247
2.01891
2.01472
2.01075
2.00612
2.0017
1.9968
1.99195
1.987
1.98187
1.97685
1.9715
1.96639
1.96093
1.95571
1.95022
1.94486
1.93945
1.93397
1.92871
1.9232
1.91808
1.91274
1.90774
1.90273
1.89789
1.89339
1.88887
1.88508
1.88118
1.87817
1.87517
1.87346
1.87187
1.8719
1.87217
1.87305
1.87489
1.87713
1.88165
1.88645
1.89217
1.89703
1.90182
1.90505
1.90804
1.90922
1.91102
1.91013
2.45887
2.44761
2.42819
2.406
2.38481
2.36477
2.34769
2.33131
2.3165
2.30156
2.28671
2.27132
2.25552
2.23938
2.22283
2.20627
2.18947
2.17311
2.15683
2.14138
2.12629
2.1121
2.09877
2.08614
2.07493
2.06444
2.05568
2.04771
2.04139
2.03608
2.03203
2.02882
2.02629
2.02498
2.02366
2.02363
2.02379
2.02413
2.02451
2.02444
2.02415
2.02357
2.02268
2.02153
2.02046
2.01899
2.01712
2.01504
2.01245
2.00991
2.00679
2.00368
2.00016
1.99643
1.99259
1.98827
1.9841
1.97931
1.97484
1.96987
1.96515
1.96011
1.95515
1.95011
1.94493
1.9399
1.93461
1.92956
1.92429
1.91918
1.91408
1.90889
1.90407
1.8989
1.89443
1.88951
1.88546
1.88105
1.87761
1.87398
1.87122
1.86866
1.86703
1.86604
1.86615
1.86671
1.86785
1.86964
1.87295
1.87732
1.88279
1.88803
1.89333
1.89749
1.90116
1.90328
1.90501
1.90544
1.90634
1.90496
2.46566
2.4459
2.42391
2.40181
2.38192
2.36376
2.34788
2.33267
2.31813
2.30391
2.28914
2.27423
2.25851
2.2426
2.22611
2.2096
2.1928
2.17634
2.1598
2.14401
2.12819
2.11338
2.09877
2.08531
2.07257
2.06098
2.05049
2.04097
2.03271
2.02553
2.01972
2.01485
2.01068
2.00764
2.00552
2.00434
2.00327
2.0032
2.00325
2.00338
2.00331
2.00297
2.00227
2.00127
2.00043
1.99919
1.99775
1.99581
1.99353
1.99125
1.98827
1.98565
1.9821
1.97899
1.97499
1.97129
1.96698
1.9627
1.95826
1.95357
1.949
1.94406
1.93935
1.93434
1.92946
1.92452
1.91947
1.91464
1.90947
1.90478
1.89965
1.89508
1.89017
1.88573
1.88127
1.87708
1.87328
1.86965
1.86671
1.86387
1.86193
1.86035
1.86005
1.86023
1.86111
1.86243
1.86481
1.86853
1.8735
1.87875
1.88429
1.88917
1.89359
1.89658
1.89911
1.90006
1.90088
1.90084
1.90075
1.89918
2.47132
2.44509
2.42188
2.40053
2.38234
2.36524
2.34957
2.33501
2.32033
2.30605
2.29114
2.2761
2.26042
2.24447
2.22819
2.21178
2.19528
2.17891
2.16256
2.14657
2.13051
2.11521
2.09992
2.08583
2.07194
2.05942
2.04729
2.03654
2.02669
2.01789
2.01022
2.00352
1.99807
1.99308
1.9895
1.98681
1.98513
1.98402
1.9832
1.98314
1.9832
1.98315
1.9829
1.98235
1.9818
1.98079
1.97992
1.97813
1.97659
1.97414
1.97195
1.96908
1.96616
1.96287
1.95932
1.95564
1.95161
1.94756
1.94321
1.93885
1.93433
1.92965
1.92507
1.92014
1.91552
1.91052
1.90579
1.9009
1.89603
1.89138
1.88648
1.88216
1.87744
1.8735
1.86923
1.86581
1.86225
1.85968
1.857
1.85541
1.85412
1.85419
1.85456
1.85553
1.8575
1.86018
1.86457
1.86979
1.87509
1.88074
1.88522
1.88964
1.89225
1.89466
1.89541
1.89603
1.89574
1.89555
1.89517
1.89352
2.48418
2.45136
2.42632
2.40506
2.38716
2.37097
2.35505
2.34006
2.32479
2.30985
2.29449
2.27899
2.26311
2.24697
2.23061
2.21424
2.19789
2.18157
2.16526
2.14907
2.13292
2.11712
2.10157
2.08672
2.07226
2.05885
2.04576
2.03401
2.02241
2.01226
2.00273
1.99466
1.9876
1.98171
1.97667
1.97244
1.96986
1.96774
1.9668
1.96612
1.96596
1.96603
1.96611
1.96597
1.96558
1.96519
1.96441
1.96336
1.96188
1.95983
1.95773
1.9551
1.95249
1.94937
1.94617
1.9426
1.93884
1.93492
1.9307
1.92652
1.92202
1.91759
1.913
1.90827
1.9038
1.89882
1.89446
1.88939
1.88506
1.88011
1.87588
1.87125
1.86734
1.86323
1.8599
1.85661
1.8541
1.85188
1.85029
1.84953
1.84965
1.85022
1.8514
1.85337
1.85729
1.86169
1.86721
1.87237
1.87796
1.88227
1.88642
1.88903
1.89103
1.89195
1.89207
1.89187
1.89137
1.89055
1.88972
1.88804
2.50947
2.47179
2.44344
2.4212
2.40127
2.38393
2.36695
2.3508
2.33472
2.31868
2.30262
2.28628
2.26987
2.25324
2.23652
2.21983
2.20301
2.18629
2.16943
2.15292
2.13641
2.12039
2.10453
2.08932
2.07445
2.06034
2.04664
2.03387
2.02156
2.01045
1.99994
1.99068
1.98235
1.97503
1.96866
1.9632
1.95904
1.95597
1.95424
1.95314
1.95266
1.95244
1.95231
1.95221
1.95197
1.95171
1.95119
1.95056
1.94929
1.94783
1.94579
1.94362
1.94109
1.93826
1.93525
1.93184
1.92836
1.92457
1.92061
1.91662
1.91223
1.90812
1.90334
1.89909
1.89418
1.8898
1.88499
1.88057
1.87594
1.87163
1.86728
1.86326
1.85942
1.85592
1.8529
1.8503
1.84836
1.84675
1.84638
1.84655
1.84715
1.84859
1.85133
1.85558
1.86028
1.86606
1.87124
1.87658
1.88085
1.88454
1.88726
1.88877
1.88983
1.88977
1.88953
1.88909
1.88809
1.88659
1.88535
1.88363
2.54154
2.50226
2.47217
2.44721
2.42472
2.40383
2.38432
2.36566
2.34766
2.33001
2.31241
2.29502
2.27761
2.26048
2.24342
2.22651
2.20973
2.19291
2.17624
2.15958
2.14327
2.12697
2.11118
2.09553
2.08047
2.06578
2.05166
2.03814
2.0252
2.01311
2.0017
1.99135
1.98183
1.97362
1.96641
1.96031
1.95478
1.9507
1.94749
1.94504
1.94347
1.9426
1.94211
1.94197
1.94195
1.94189
1.94174
1.9414
1.94081
1.93966
1.93817
1.93625
1.93398
1.93149
1.92855
1.92546
1.92211
1.91842
1.91476
1.91054
1.90661
1.90203
1.89775
1.89305
1.88855
1.88396
1.87944
1.87502
1.87064
1.86646
1.86241
1.85871
1.85522
1.85237
1.84976
1.84807
1.84653
1.84632
1.84647
1.8471
1.84888
1.85213
1.85662
1.8617
1.86717
1.87258
1.87745
1.88198
1.88507
1.88786
1.88896
1.88985
1.88972
1.88943
1.88882
1.88786
1.88619
1.8843
1.88281
1.88099
2.57761
2.54115
2.51116
2.48439
2.4586
2.4344
2.41115
2.38925
2.36804
2.34778
2.32811
2.30916
2.29079
2.27296
2.25558
2.23852
2.2216
2.20478
2.18785
2.17098
2.15427
2.13788
2.12182
2.10616
2.09088
2.07607
2.06155
2.0477
2.03413
2.02151
2.00931
1.99819
1.98777
1.97838
1.97004
1.96271
1.95633
1.95061
1.94621
1.9429
1.94056
1.93902
1.93815
1.93774
1.93774
1.93777
1.93778
1.93769
1.9374
1.93675
1.9357
1.93405
1.93217
1.9298
1.92716
1.92422
1.92087
1.91744
1.91357
1.9097
1.90544
1.90113
1.89662
1.89203
1.88742
1.88275
1.8782
1.8736
1.86931
1.86499
1.86125
1.85757
1.85468
1.85226
1.85048
1.84937
1.84902
1.84918
1.85001
1.85252
1.85625
1.86072
1.86621
1.87123
1.87691
1.88111
1.88562
1.88833
1.89089
1.89191
1.89254
1.89224
1.89189
1.8912
1.88995
1.88833
1.88633
1.88427
1.88262
1.88076
2.61051
2.57781
2.54913
2.52164
2.49509
2.46908
2.44435
2.42071
2.39821
2.37676
2.356
2.33598
2.31625
2.29717
2.27823
2.25994
2.24158
2.22382
2.20599
2.18864
2.17164
2.15519
2.13912
2.1233
2.10786
2.0926
2.07777
2.06331
2.04937
2.03603
2.02324
2.01131
1.99993
1.98964
1.98011
1.97166
1.96422
1.9575
1.95173
1.94691
1.94342
1.94069
1.93908
1.93809
1.93773
1.93777
1.93787
1.93811
1.93808
1.93787
1.93736
1.93631
1.93493
1.9329
1.93058
1.92783
1.92467
1.92138
1.91758
1.91381
1.90954
1.90527
1.90072
1.89612
1.89148
1.88678
1.88222
1.87763
1.87346
1.86925
1.86584
1.86243
1.86019
1.85811
1.8569
1.85625
1.85641
1.85764
1.8603
1.86467
1.86874
1.8745
1.87908
1.88462
1.88862
1.8927
1.89527
1.89743
1.89838
1.89859
1.89835
1.89784
1.89708
1.8957
1.89384
1.89187
1.8896
1.8874
1.88556
1.88369
2.63483
2.6094
2.58455
2.55883
2.53223
2.50689
2.48184
2.4586
2.43581
2.41389
2.3921
2.37067
2.34953
2.32883
2.30883
2.28927
2.2705
2.25191
2.23406
2.21629
2.19893
2.18187
2.16514
2.14875
2.1327
2.11692
2.10168
2.08658
2.07216
2.05793
2.04441
2.03152
2.01922
2.00805
1.99742
1.98803
1.97929
1.9718
1.96478
1.95908
1.95431
1.95087
1.94828
1.94675
1.94584
1.94558
1.94564
1.94578
1.94609
1.94607
1.94588
1.94536
1.94442
1.94273
1.9408
1.93825
1.93519
1.93199
1.92793
1.92422
1.9194
1.91511
1.90996
1.90529
1.90015
1.89542
1.89056
1.88606
1.88189
1.87798
1.87493
1.87213
1.87043
1.86881
1.86828
1.86851
1.87046
1.87294
1.87753
1.88165
1.88722
1.89175
1.89696
1.90075
1.9045
1.90695
1.90858
1.90967
1.90951
1.9091
1.90868
1.90777
1.90657
1.90472
1.90273
1.90047
1.89813
1.8956
1.89369
1.89156
2.65679
2.63325
2.61058
2.58706
2.56367
2.53988
2.51749
2.49434
2.47272
2.45023
2.42882
2.40721
2.38653
2.36602
2.34627
2.32667
2.30752
2.28862
2.26988
2.25185
2.23341
2.21629
2.19856
2.182
2.165
2.1485
2.13213
2.11589