/*--------------------------------*- C++ -*----------------------------------*\
  =========                 |
  \\      /  F ield         | OpenFOAM: The Open Source CFD Toolbox
   \\    /   O peration     | Website:  https://openfoam.org
    \\  /    A nd           | Version:  13
     \\/     M anipulation  |
\*---------------------------------------------------------------------------*/
FoamFile
{
    format      ascii;
    class       volVectorField;
    location    "9.5";
    object      U;
}
// * * * * * * * * * * * * * * * * * * * * * * * * * * * * * * * * * * * * * //

dimensions      [0 1 -1 0 0 0 0];

internalField   nonuniform List<vector> 
5250
(
(2.99999 1.08962e-08 0)
(2.99998 6.80296e-08 0)
(2.99995 2.33541e-07 0)
(2.99988 6.58875e-07 0)
(2.9997 1.72816e-06 0)
(2.99925 4.32341e-06 0)
(2.99819 1.09598e-05 0)
(2.99547 2.68666e-05 0)
(2.98885 6.84929e-05 0)
(2.97191 0.000168802 0)
(2.92749 0.000433423 0)
(2.80317 0.00114503 0)
(2.43715 0.00318494 0)
(1.44505 0.00938213 0)
(0.630558 0.0217446 0)
(0.553853 0.0227536 0)
(0.573082 0.0237072 0)
(0.560027 0.0252807 0)
(0.504797 0.0270669 0)
(0.418346 0.0291755 0)
(0.337621 0.0317412 0)
(0.269023 0.0346792 0)
(0.199044 0.0377878 0)
(0.119536 0.0414496 0)
(0.0525686 0.0466981 0)
(2.99999 4.10508e-08 0)
(2.99998 1.78794e-07 0)
(2.99995 8.68124e-07 0)
(2.99988 1.75721e-06 0)
(2.99971 6.05498e-06 0)
(2.99926 1.22244e-05 0)
(2.99821 3.61797e-05 0)
(2.99552 8.10256e-05 0)
(2.98897 0.000215497 0)
(2.97222 0.000517393 0)
(2.9283 0.00134184 0)
(2.80545 0.00352698 0)
(2.44394 0.00985568 0)
(1.45982 0.0289719 0)
(0.6399 0.0658355 0)
(0.552824 0.0657551 0)
(0.572419 0.065777 0)
(0.559847 0.0682033 0)
(0.504753 0.0711761 0)
(0.418529 0.0750507 0)
(0.337743 0.0795766 0)
(0.268502 0.0843503 0)
(0.197494 0.0887951 0)
(0.116646 0.0931738 0)
(0.0491891 0.0975774 0)
(2.99999 6.80812e-08 0)
(2.99998 3.30906e-07 0)
(2.99995 1.30506e-06 0)
(2.99988 3.18936e-06 0)
(2.99971 9.63308e-06 0)
(2.99928 2.01485e-05 0)
(2.99824 6.41534e-05 0)
(2.99562 0.000122849 0)
(2.98921 0.000393153 0)
(2.97285 0.000823207 0)
(2.92999 0.0023303 0)
(2.81027 0.00590284 0)
(2.45837 0.0168283 0)
(1.4927 0.0492054 0)
(0.661622 0.113444 0)
(0.552093 0.111262 0)
(0.573188 0.110201 0)
(0.562366 0.114716 0)
(0.508116 0.120356 0)
(0.42284 0.127899 0)
(0.342326 0.136255 0)
(0.272552 0.144932 0)
(0.20053 0.153222 0)
(0.118228 0.160857 0)
(0.0488367 0.166671 0)
(2.99999 7.96115e-08 0)
(2.99998 5.00487e-07 0)
(2.99996 1.7169e-06 0)
(2.99989 4.87387e-06 0)
(2.99972 1.28946e-05 0)
(2.99931 3.21524e-05 0)
(2.99829 8.21415e-05 0)
(2.99579 0.000198777 0)
(2.98955 0.000504864 0)
(2.97382 0.00123929 0)
(2.93257 0.00317997 0)
(2.81744 0.00838998 0)
(2.4804 0.0234907 0)
(1.54331 0.0687793 0)
(0.694996 0.161792 0)
(0.550378 0.156137 0)
(0.575017 0.153513 0)
(0.567688 0.160453 0)
(0.514974 0.169028 0)
(0.431342 0.180534 0)
(0.351376 0.193071 0)
(0.281296 0.206186 0)
(0.208201 0.219072 0)
(0.123665 0.230746 0)
(0.0507091 0.238473 0)
(3 1.12264e-07 0)
(2.99998 5.8891e-07 0)
(2.99996 2.45522e-06 0)
(2.99989 5.78328e-06 0)
(2.99973 1.79557e-05 0)
(2.99934 4.03638e-05 0)
(2.99838 0.000109432 0)
(2.99597 0.00025816 0)
(2.99008 0.000654045 0)
(2.97508 0.00160273 0)
(2.93595 0.00410613 0)
(2.82721 0.0107665 0)
(2.50898 0.0300834 0)
(1.61288 0.0877092 0)
(0.739798 0.211849 0)
(0.547076 0.200671 0)
(0.577798 0.195832 0)
(0.575743 0.205243 0)
(0.525068 0.216752 0)
(0.443688 0.232245 0)
(0.36459 0.249225 0)
(0.294398 0.267278 0)
(0.220129 0.285506 0)
(0.132493 0.302243 0)
(0.0544384 0.312842 0)
(3 1.435e-07 0)
(2.99999 7.44942e-07 0)
(2.99996 2.90004e-06 0)
(2.9999 7.30524e-06 0)
(2.99975 2.15481e-05 0)
(2.99938 4.83903e-05 0)
(2.99847 0.000139101 0)
(2.99624 0.000296036 0)
(2.99067 0.000845896 0)
(2.97671 0.00187722 0)
(2.94017 0.00510863 0)
(2.83922 0.0129723 0)
(2.54466 0.0366344 0)
(1.70206 0.105927 0)
(0.796954 0.264169 0)
(0.542187 0.245662 0)
(0.582265 0.237704 0)
(0.587327 0.249494 0)
(0.539038 0.263923 0)
(0.460521 0.283614 0)
(0.382723 0.305626 0)
(0.312773 0.32963 0)
(0.237405 0.3547 0)
(0.14584 0.378665 0)
(0.0606499 0.394502 0)
(3 1.51103e-07 0)
(2.99999 9.41078e-07 0)
(2.99996 3.19657e-06 0)
(2.99991 9.23661e-06 0)
(2.99977 2.38688e-05 0)
(2.99944 6.03603e-05 0)
(2.99859 0.00015254 0)
(2.99656 0.000368033 0)
(2.9914 0.000941294 0)
(2.97863 0.00227256 0)
(2.94522 0.00586671 0)
(2.85345 0.0152361 0)
(2.58709 0.0425322 0)
(1.81216 0.123031 0)
(0.868387 0.317674 0)
(0.537978 0.291176 0)
(0.590001 0.279523 0)
(0.603744 0.293359 0)
(0.558019 0.310507 0)
(0.483009 0.334548 0)
(0.407116 0.362271 0)
(0.338016 0.393532 0)
(0.262065 0.427596 0)
(0.166151 0.462387 0)
(0.0710633 0.488403 0)
(3 1.54644e-07 0)
(2.99999 1.03631e-06 0)
(2.99997 3.48088e-06 0)
(2.99992 1.01297e-05 0)
(2.99979 2.6018e-05 0)
(2.99949 6.77008e-05 0)
(2.99873 0.000162989 0)
(2.9969 0.000423279 0)
(2.99226 0.00100512 0)
(2.98081 0.00260671 0)
(2.951 0.00643093 0)
(2.86977 0.0170533 0)
(2.63531 0.0470125 0)
(1.94432 0.136364 0)
(0.956952 0.366038 0)
(0.540146 0.336042 0)
(0.604692 0.321634 0)
(0.627381 0.336468 0)
(0.583902 0.355973 0)
(0.51292 0.384639 0)
(0.439629 0.41891 0)
(0.372363 0.458968 0)
(0.297289 0.504704 0)
(0.198071 0.555766 0)
(0.0894011 0.602608 0)
(3 1.53845e-07 0)
(2.99999 1.08826e-06 0)
(2.99997 3.51106e-06 0)
(2.99993 1.06466e-05 0)
(2.99982 2.63872e-05 0)
(2.99955 7.1395e-05 0)
(2.99889 0.000166914 0)
(2.99726 0.000448283 0)
(2.99322 0.00103956 0)
(2.98316 0.0027605 0)
(2.95725 0.00671955 0)
(2.88741 0.0179251 0)
(2.68719 0.0491774 0)
(2.09388 0.143145 0)
(1.06593 0.403227 0)
(0.560301 0.384076 0)
(0.631191 0.37029 0)
(0.660794 0.381256 0)
(0.619421 0.401939 0)
(0.55284 0.434063 0)
(0.482825 0.475549 0)
(0.418684 0.524895 0)
(0.347691 0.584753 0)
(0.250748 0.661421 0)
(0.12398 0.751439 0)
(3 1.60887e-07 0)
(2.99999 9.86794e-07 0)
(2.99997 3.44515e-06 0)
(2.99994 9.6589e-06 0)
(2.99984 2.5598e-05 0)
(2.99961 6.40184e-05 0)
(2.99904 0.000162755 0)
(2.99763 0.00039595 0)
(2.99419 0.00100543 0)
(2.98555 0.00245169 0)
(2.96364 0.00625802 0)
(2.9053 0.0160704 0)
(2.74062 0.0440109 0)
(2.25756 0.126528 0)
(1.21351 0.372262 0)
(0.62604 0.415575 0)
(0.680277 0.42274 0)
(0.70836 0.426453 0)
(0.668778 0.449357 0)
(0.606144 0.483123 0)
(0.539577 0.531094 0)
(0.479922 0.589028 0)
(0.420807 0.667513 0)
(0.341429 0.786525 0)
(0.191141 0.993329 0)
(3 1.43918e-07 0)
(2.99999 8.54958e-07 0)
(2.99998 3.01253e-06 0)
(2.99995 8.33494e-06 0)
(2.99986 2.22445e-05 0)
(2.99966 5.43446e-05 0)
(2.99916 0.000141835 0)
(2.99796 0.000328966 0)
(2.99493 0.000869417 0)
(2.98753 0.00201145 0)
(2.96862 0.00523694 0)
(2.91887 0.0129972 0)
(2.77946 0.0350324 0)
(2.37125 0.0980596 0)
(1.35559 0.292476 0)
(0.683172 0.446925 0)
(0.709767 0.477732 0)
(0.740494 0.476601 0)
(0.716634 0.498274 0)
(0.664068 0.531698 0)
(0.606362 0.582136 0)
(0.558472 0.647674 0)
(0.528539 0.741679 0)
(0.527469 0.887455 0)
(0.56294 1.12925 0)
(3 1.16394e-07 0)
(2.99999 7.84572e-07 0)
(2.99998 2.58024e-06 0)
(2.99995 7.63318e-06 0)
(2.99988 1.90952e-05 0)
(2.99971 5.04837e-05 0)
(2.99927 0.000119251 0)
(2.99823 0.000310949 0)
(2.99559 0.000726076 0)
(2.98918 0.00187738 0)
(2.9728 0.00449421 0)
(2.93002 0.0116135 0)
(2.81089 0.0303335 0)
(2.46287 0.0847072 0)
(1.52565 0.249347 0)
(0.771938 0.497212 0)
(0.722037 0.525906 0)
(0.752809 0.525276 0)
(0.750904 0.5429 0)
(0.71592 0.576486 0)
(0.675268 0.626467 0)
(0.646235 0.696085 0)
(0.64688 0.794724 0)
(0.699733 0.932689 0)
(0.825601 1.1106 0)
(3 1.09763e-07 0)
(2.99999 7.3495e-07 0)
(2.99998 2.43609e-06 0)
(2.99996 7.17699e-06 0)
(2.9999 1.80963e-05 0)
(2.99975 4.76775e-05 0)
(2.99938 0.000113088 0)
(2.99847 0.000294223 0)
(2.99624 0.000690415 0)
(2.99067 0.00177853 0)
(2.97672 0.00428752 0)
(2.94038 0.0110157 0)
(2.83999 0.0287091 0)
(2.54888 0.0798913 0)
(1.72408 0.232454 0)
(0.894518 0.541906 0)
(0.731221 0.556707 0)
(0.762184 0.560231 0)
(0.778159 0.576164 0)
(0.762075 0.612264 0)
(0.74045 0.662698 0)
(0.73309 0.731168 0)
(0.755892 0.822027 0)
(0.827793 0.933256 0)
(0.966555 1.04224 0)
(3 1.05775e-07 0)
(2.99999 7.19416e-07 0)
(2.99999 2.31768e-06 0)
(2.99997 7.02438e-06 0)
(2.99991 1.7341e-05 0)
(2.99979 4.59916e-05 0)
(2.99948 0.000111097 0)
(2.99871 0.000280728 0)
(2.99683 0.000687531 0)
(2.99218 0.00170313 0)
(2.9805 0.00423141 0)
(2.95035 0.0106837 0)
(2.86822 0.0278792 0)
(2.63127 0.0771036 0)
(1.9408 0.223249 0)
(1.0449 0.575908 0)
(0.750159 0.584186 0)
(0.777806 0.588192 0)
(0.806026 0.600718 0)
(0.807189 0.638145 0)
(0.801217 0.689234 0)
(0.810025 0.752864 0)
(0.846346 0.828841 0)
(0.921712 0.913224 0)
(1.05143 0.983599 0)
(3 1.01058e-07 0)
(3 6.48889e-07 0)
(2.99999 2.22101e-06 0)
(2.99997 6.34523e-06 0)
(2.99993 1.65526e-05 0)
(2.99983 4.23353e-05 0)
(2.99957 0.000104803 0)
(2.99895 0.000263956 0)
(2.99742 0.000643929 0)
(2.99362 0.00162546 0)
(2.98421 0.00398887 0)
(2.96007 0.0101632 0)
(2.89544 0.0262901 0)
(2.71163 0.0723697 0)
(2.16975 0.209199 0)
(1.23045 0.582552 0)
(0.801797 0.615886 0)
(0.811159 0.621926 0)
(0.841915 0.626572 0)
(0.855816 0.659058 0)
(0.859333 0.707097 0)
(0.876785 0.763717 0)
(0.91947 0.825942 0)
(0.993295 0.889652 0)
(1.10956 0.93963 0)
(3 8.84619e-08 0)
(3 5.49832e-07 0)
(2.99999 1.92076e-06 0)
(2.99998 5.37413e-06 0)
(2.99994 1.42618e-05 0)
(2.99986 3.58518e-05 0)
(2.99966 8.93962e-05 0)
(2.99916 0.000222491 0)
(2.99796 0.000545255 0)
(2.99497 0.00136451 0)
(2.98761 0.00333935 0)
(2.96896 0.00843129 0)
(2.92012 0.0214975 0)
(2.7845 0.0580345 0)
(2.39107 0.165294 0)
(1.46494 0.488839 0)
(0.902612 0.630381 0)
(0.866595 0.654107 0)
(0.887071 0.66112 0)
(0.908674 0.681883 0)
(0.917009 0.721224 0)
(0.936986 0.769112 0)
(0.98045 0.819704 0)
(1.05017 0.868327 0)
(1.15255 0.904947 0)
(3 7.63343e-08 0)
(3 4.36922e-07 0)
(2.99999 1.61872e-06 0)
(2.99998 4.26337e-06 0)
(2.99996 1.19334e-05 0)
(2.99989 2.83138e-05 0)
(2.99973 7.43661e-05 0)
(2.99933 0.000173624 0)
(2.99837 0.000448036 0)
(2.99595 0.00105241 0)
(2.9901 0.00268245 0)
(2.97521 0.00645427 0)
(2.93668 0.0165256 0)
(2.8305 0.0429296 0)
(2.52432 0.119024 0)
(1.69575 0.35413 0)
(1.00584 0.655823 0)
(0.905495 0.687578 0)
(0.921371 0.700222 0)
(0.949685 0.708173 0)
(0.967712 0.735613 0)
(0.990358 0.773521 0)
(1.0323 0.813577 0)
(1.09639 0.850326 0)
(1.18592 0.876658 0)
(3 6.41917e-08 0)
(3 3.70231e-07 0)
(2.99999 1.36603e-06 0)
(2.99999 3.61148e-06 0)
(2.99996 1.00858e-05 0)
(2.99991 2.39995e-05 0)
(2.99978 6.32397e-05 0)
(2.99948 0.000147676 0)
(2.99869 0.000382637 0)
(2.99683 0.000899204 0)
(2.99211 0.00230168 0)
(2.9805 0.00554843 0)
(2.95037 0.0141673 0)
(2.8687 0.0365768 0)
(2.63474 0.100707 0)
(1.96086 0.29348 0)
(1.16417 0.689244 0)
(0.937531 0.720237 0)
(0.945914 0.7316 0)
(0.978094 0.731732 0)
(1.00835 0.74765 0)
(1.03576 0.776646 0)
(1.07611 0.807832 0)
(1.13437 0.834925 0)
(1.21252 0.853222 0)
(3 4.93954e-08 0)
(3 3.33723e-07 0)
(3 1.09245e-06 0)
(2.99999 3.25239e-06 0)
(2.99997 8.14217e-06 0)
(2.99993 2.14677e-05 0)
(2.99983 5.13867e-05 0)
(2.99959 0.000132107 0)
(2.999 0.000315118 0)
(2.99755 0.000801883 0)
(2.99397 0.00193561 0)
(2.9851 0.00487905 0)
(2.96249 0.0121416 0)
(2.90239 0.0315038 0)
(2.73307 0.0856944 0)
(2.23619 0.247189 0)
(1.38073 0.666879 0)
(1.00271 0.742256 0)
(0.982868 0.752152 0)
(1.00702 0.751909 0)
(1.04421 0.758296 0)
(1.07641 0.778631 0)
(1.1143 0.80188 0)
(1.16644 0.820442 0)
(1.23412 0.831972 0)
(3 3.9989e-08 0)
(3 2.68737e-07 0)
(3 8.81515e-07 0)
(2.99999 2.62041e-06 0)
(2.99998 6.55215e-06 0)
(2.99995 1.72331e-05 0)
(2.99988 4.11909e-05 0)
(2.9997 0.000105471 0)
(2.99925 0.000250978 0)
(2.99818 0.00063624 0)
(2.99551 0.00152752 0)
(2.989 0.00384677 0)
(2.97257 0.0094281 0)
(2.92989 0.0242365 0)
(2.81312 0.0642119 0)
(2.47583 0.182063 0)
(1.65539 0.533157 0)
(1.11213 0.745314 0)
(1.03467 0.767508 0)
(1.04495 0.774267 0)
(1.07977 0.773134 0)
(1.11399 0.782564 0)
(1.14831 0.796518 0)
(1.194 0.807547 0)
(1.25193 0.811318 0)
(3 3.33334e-08 0)
(3 1.99811e-07 0)
(3 7.17527e-07 0)
(2.99999 1.94171e-06 0)
(2.99998 5.28746e-06 0)
(2.99996 1.28323e-05 0)
(2.99991 3.28445e-05 0)
(2.99977 7.87896e-05 0)
(2.99944 0.00019657 0)
(2.99862 0.000476318 0)
(2.99665 0.00117067 0)
(2.99168 0.00287322 0)
(2.97947 0.00707051 0)
(2.94786 0.0177166 0)
(2.86244 0.0459452 0)
(2.61904 0.125801 0)
(1.93887 0.372369 0)
(1.24814 0.749877 0)
(1.07447 0.788496 0)
(1.07484 0.798286 0)
(1.10559 0.792194 0)
(1.14323 0.789481 0)
(1.17711 0.793474 0)
(1.21689 0.797051 0)
(1.2647 0.791577 0)
(3 2.61936e-08 0)
(3 1.58634e-07 0)
(3 5.57185e-07 0)
(3 1.54822e-06 0)
(2.99999 4.12584e-06 0)
(2.99997 1.01749e-05 0)
(2.99993 2.60006e-05 0)
(2.99983 6.1906e-05 0)
(2.99958 0.000158404 0)
(2.99899 0.00037255 0)
(2.99751 0.000956782 0)
(2.99391 0.00226059 0)
(2.98491 0.00577215 0)
(2.96219 0.0141042 0)
(2.90166 0.0367704 0)
(2.73212 0.099005 0)
(2.23592 0.287215 0)
(1.45519 0.725268 0)
(1.13309 0.809722 0)
(1.10788 0.816389 0)
(1.12789 0.810122 0)
(1.16521 0.798408 0)
(1.20025 0.792798 0)
(1.23417 0.786683 0)
(1.27139 0.770871 0)
(3 1.84565e-08 0)
(3 1.25503e-07 0)
(3 4.08399e-07 0)
(3 1.22302e-06 0)
(2.99999 3.03162e-06 0)
(2.99998 8.03799e-06 0)
(2.99995 1.89915e-05 0)
(2.99988 4.90376e-05 0)
(2.9997 0.000115379 0)
(2.99928 0.000294341 0)
(2.99822 0.000698958 0)
(2.99569 0.00176264 0)
(2.98934 0.00425996 0)
(2.97367 0.0106978 0)
(2.93288 0.0269967 0)
(2.82208 0.0718251 0)
(2.50308 0.203046 0)
(1.74178 0.580277 0)
(1.24068 0.805935 0)
(1.15347 0.824508 0)
(1.15724 0.82332 0)
(1.18638 0.806429 0)
(1.21882 0.789987 0)
(1.24541 0.771459 0)
(1.27185 0.744853 0)
(3 1.40561e-08 0)
(3 9.06251e-08 0)
(3 3.10159e-07 0)
(3 8.799e-07 0)
(2.99999 2.28819e-06 0)
(2.99999 5.80386e-06 0)
(2.99996 1.41667e-05 0)
(2.99991 3.56097e-05 0)
(2.99979 8.46904e-05 0)
(2.99948 0.000214449 0)
(2.99873 0.000504389 0)
(2.99688 0.00128296 0)
(2.99236 0.0030333 0)
(2.9811 0.00767727 0)
(2.95237 0.018804 0)
(2.87522 0.0490565 0)
(2.65747 0.133115 0)
(2.04625 0.392722 0)
(1.38327 0.795175 0)
(1.18899 0.838972 0)
(1.17871 0.833981 0)
(1.19841 0.813346 0)
(1.22716 0.783453 0)
(1.24849 0.750768 0)
(1.2669 0.713154 0)
(3 1.06607e-08 0)
(3 6.55474e-08 0)
(3 2.30526e-07 0)
(3 6.37108e-07 0)
(3 1.70063e-06 0)
(2.99999 4.20185e-06 0)
(2.99997 1.05851e-05 0)
(2.99994 2.57048e-05 0)
(2.99985 6.36599e-05 0)
(2.99963 0.000154545 0)
(2.99911 0.000380748 0)
(2.9978 0.000929274 0)
(2.99467 0.00228092 0)
(2.98679 0.00562401 0)
(2.96719 0.0139421 0)
(2.9156 0.0356774 0)
(2.77366 0.0954346 0)
(2.36072 0.275279 0)
(1.61781 0.706318 0)
(1.25458 0.836077 0)
(1.20453 0.835904 0)
(1.20914 0.811313 0)
(1.22761 0.772044 0)
(1.24443 0.726627 0)
(1.25767 0.678714 0)
(3 7.52009e-09 0)
(3 4.77156e-08 0)
(3 1.62299e-07 0)
(3 4.63217e-07 0)
(3 1.20063e-06 0)
(2.99999 3.0249e-06 0)
(2.99998 7.51114e-06 0)
(2.99996 1.82982e-05 0)
(2.9999 4.52687e-05 0)
(2.99974 0.000109067 0)
(2.99938 0.000270783 0)
(2.99846 0.000649319 0)
(2.99627 0.00161676 0)
(2.99082 0.00390406 0)
(2.97736 0.00973183 0)
(2.94263 0.0243014 0)
(2.84927 0.0636381 0)
(2.58298 0.176877 0)
(1.90414 0.509665 0)
(1.35533 0.814452 0)
(1.22335 0.833694 0)
(1.21084 0.798188 0)
(1.22088 0.750553 0)
(1.2332 0.695891 0)
(1.24509 0.641051 0)
(3 5.44348e-09 0)
(3 3.32488e-08 0)
(3 1.17169e-07 0)
(3 3.2309e-07 0)
(3 8.61678e-07 0)
(2.99999 2.12295e-06 0)
(2.99999 5.34604e-06 0)
(2.99997 1.29045e-05 0)
(2.99993 3.20032e-05 0)
(2.99982 7.73293e-05 0)
(2.99956 0.00018989 0)
(2.99892 0.000462185 0)
(2.99738 0.00112934 0)
(2.99355 0.00276719 0)
(2.98415 0.00678367 0)
(2.96023 0.0169073 0)
(2.897 0.0432702 0)
(2.7203 0.116963 0)
(2.2146 0.34112 0)
(1.51917 0.768951 0)
(1.23508 0.830411 0)
(1.19486 0.782585 0)
(1.2027 0.720072 0)
(1.21576 0.658328 0)
(1.22976 0.599069 0)
(3 3.85136e-09 0)
(3 2.2742e-08 0)
(3 8.18941e-08 0)
(3 2.20921e-07 0)
(3 6.01235e-07 0)
(3 1.44744e-06 0)
(2.99999 3.73458e-06 0)
(2.99998 8.76682e-06 0)
(2.99995 2.23264e-05 0)
(2.99987 5.24444e-05 0)
(2.9997 0.000132085 0)
(2.99925 0.000313445 0)
(2.99819 0.000781646 0)
(2.99553 0.00187749 0)
(2.98912 0.00465416 0)
(2.97295 0.0114073 0)
(2.93135 0.0289538 0)
(2.81856 0.0764166 0)
(2.4947 0.217278 0)
(1.76748 0.595444 0)
(1.27963 0.789401 0)
(1.17126 0.750698 0)
(1.17479 0.679772 0)
(1.19348 0.614019 0)
(1.21298 0.554389 0)
(3 2.48279e-09 0)
(3 1.56999e-08 0)
(3 5.3541e-08 0)
(3 1.52155e-07 0)
(3 3.94326e-07 0)
(3 9.89096e-07 0)
(2.99999 2.45227e-06 0)
(2.99998 5.93884e-06 0)
(2.99996 1.46696e-05 0)
(2.99991 3.51049e-05 0)
(2.99978 8.70643e-05 0)
(2.99946 0.000207007 0)
(2.99868 0.000514642 0)
(2.99678 0.00122629 0)
(2.99209 0.003047 0)
(2.98044 0.00735783 0)
(2.9506 0.0184596 0)
(2.87055 0.0473211 0)
(2.644 0.129081 0)
(2.02379 0.378088 0)
(1.33629 0.748157 0)
(1.11571 0.71495 0)
(1.12209 0.636906 0)
(1.15716 0.567519 0)
(1.19252 0.512152 0)
(3 1.54674e-09 0)
(3 1.05471e-08 0)
(3 3.41978e-08 0)
(3 1.02248e-07 0)
(3 2.51701e-07 0)
(3 6.64997e-07 0)
(3 1.55843e-06 0)
(2.99999 3.99259e-06 0)
(2.99997 9.31239e-06 0)
(2.99993 2.3457e-05 0)
(2.99984 5.53198e-05 0)
(2.9996 0.00013714 0)
(2.99904 0.000328201 0)
(2.99764 0.000803665 0)
(2.99423 0.00195571 0)
(2.98576 0.00476849 0)
(2.96445 0.0118328 0)
(2.90829 0.0300806 0)
(2.75343 0.0807678 0)
(2.31015 0.234907 0)
(1.47382 0.604663 0)
(1.06667 0.64649 0)
(1.06077 0.587083 0)
(1.1138 0.52728 0)
(1.17302 0.481116 0)
(3 1.03916e-09 0)
(3 6.4279e-09 0)
(3 2.23336e-08 0)
(3 6.21128e-08 0)
(3 1.63134e-07 0)
(3 4.02367e-07 0)
(3 1.00219e-06 0)
(2.99999 2.39927e-06 0)
(2.99998 5.90204e-06 0)
(2.99995 1.40058e-05 0)
(2.99987 3.42939e-05 0)
(2.99969 8.1341e-05 0)
(2.99924 0.000198529 0)
(2.99813 0.000470793 0)
(2.99539 0.00114865 0)
(2.98866 0.00274536 0)
(2.97162 0.00672343 0)
(2.92711 0.0166261 0)
(2.80433 0.0430809 0)
(2.45267 0.118525 0)
(1.59438 0.345902 0)
(1.00731 0.532403 0)
(0.968034 0.51595 0)
(1.04532 0.483305 0)
(1.1333 0.456105 0)
(3 6.96657e-10 0)
(3 4.01375e-09 0)
(3 1.48903e-08 0)
(3 3.87607e-08 0)
(3 1.08238e-07 0)
(3 2.54327e-07 0)
(3 6.5448e-07 0)
(2.99999 1.53415e-06 0)
(2.99998 3.80489e-06 0)
(2.99996 9.10977e-06 0)
(2.9999 2.18078e-05 0)
(2.99974 5.37792e-05 0)
(2.99936 0.000125066 0)
(2.99843 0.000315027 0)
(2.99612 0.000720397 0)
(2.99041 0.00183032 0)
(2.97596 0.00425109 0)
(2.93821 0.0108026 0)
(2.8338 0.027236 0)
(2.5306 0.0738375 0)
(1.70725 0.211692 0)
(0.959509 0.447966 0)
(0.846465 0.440115 0)
(0.95045 0.427317 0)
(1.06866 0.427035 0)
(3 4.91702e-10 0)
(3 2.6534e-09 0)
(3 1.02883e-08 0)
(3 2.5739e-08 0)
(3 7.49567e-08 0)
(3 1.68858e-07 0)
(3 4.59708e-07 0)
(2.99999 1.02036e-06 0)
(2.99999 2.70032e-06 0)
(2.99996 6.0897e-06 0)
(2.99991 1.56864e-05 0)
(2.99978 3.63388e-05 0)
(2.99945 9.05987e-05 0)
(2.99863 0.000217406 0)
(2.99665 0.000524256 0)
(2.9916 0.00129433 0)
(2.97907 0.00310562 0)
(2.94615 0.00780634 0)
(2.85546 0.0199711 0)
(2.59124 0.054511 0)
(1.83394 0.155614 0)
(0.949936 0.386344 0)
(0.715714 0.361863 0)
(0.850896 0.358923 0)
(0.997473 0.385641 0)
(3 3.19114e-10 0)
(3 2.008e-09 0)
(3 6.7364e-09 0)
(3 1.9441e-08 0)
(3 5.01924e-08 0)
(3 1.25087e-07 0)
(3 3.20372e-07 0)
(2.99999 7.47158e-07 0)
(2.99999 1.96216e-06 0)
(2.99997 4.38314e-06 0)
(2.99992 1.1898e-05 0)
(2.9998 2.58195e-05 0)
(2.99951 7.11046e-05 0)
(2.99879 0.000153855 0)
(2.99702 0.0004224 0)
(2.99256 0.000935218 0)
(2.98137 0.00249778 0)
(2.95223 0.00592245 0)
(2.87213 0.0157496 0)
(2.6386 0.042646 0)
(1.94873 0.122641 0)
(0.963955 0.331788 0)
(0.600622 0.294649 0)
(0.769521 0.299183 0)
(0.939387 0.339047 0)
(3 2.12586e-10 0)
(3 1.38825e-09 0)
(3 4.63943e-09 0)
(3 1.35283e-08 0)
(3 3.4352e-08 0)
(3 8.97945e-08 0)
(3 2.15966e-07 0)
(3 5.54577e-07 0)
(2.99999 1.32577e-06 0)
(2.99997 3.39242e-06 0)
(2.99993 8.11044e-06 0)
(2.99982 2.06266e-05 0)
(2.99956 5.00241e-05 0)
(2.99892 0.000125717 0)
(2.9973 0.000307328 0)
(2.99333 0.000772072 0)
(2.98322 0.00190053 0)
(2.95716 0.004849 0)
(2.88584 0.0125752 0)
(2.67811 0.0348216 0)
(2.05518 0.101268 0)
(0.999158 0.290858 0)
(0.525583 0.252551 0)
(0.721058 0.261381 0)
(0.897557 0.295319 0)
(3 1.2451e-10 0)
(3 1.00514e-09 0)
(3 2.9549e-09 0)
(3 9.92701e-09 0)
(3 2.21269e-08 0)
(3 6.64801e-08 0)
(3 1.39898e-07 0)
(3 4.12957e-07 0)
(2.99999 8.68039e-07 0)
(2.99997 2.5231e-06 0)
(2.99993 5.43729e-06 0)
(2.99984 1.52891e-05 0)
(2.9996 3.45336e-05 0)
(2.99901 9.29451e-05 0)
(2.99756 0.000221408 0)
(2.99388 0.000570116 0)
(2.98477 0.00142044 0)
(2.96111 0.00364086 0)
(2.89709 0.00958288 0)
(2.7119 0.026733 0)
(2.15458 0.0797987 0)
(1.05088 0.242229 0)
(0.490949 0.221079 0)
(0.69566 0.23443 0)
(0.867792 0.25729 0)
(3 1.0264e-10 0)
(3 7.29981e-10 0)
(3 2.34029e-09 0)
(3 7.12063e-09 0)
(3 1.77592e-08 0)
(3 4.725e-08 0)
(3 1.13911e-07 0)
(3 2.92567e-07 0)
(2.99999 6.97869e-07 0)
(2.99998 1.77985e-06 0)
(2.99994 4.26037e-06 0)
(2.99985 1.08382e-05 0)
(2.99963 2.57333e-05 0)
(2.99908 6.65928e-05 0)
(2.9977 0.000157974 0)
(2.99433 0.000409108 0)
(2.98579 0.000998718 0)
(2.96396 0.00257782 0)
(2.90522 0.00672102 0)
(2.73673 0.0186405 0)
(2.23436 0.0555743 0)
(1.10356 0.171832 0)
(0.476649 0.196007 0)
(0.678155 0.218219 0)
(0.841984 0.230326 0)
(3 8.87487e-11 0)
(3 5.34671e-10 0)
(3 1.96771e-09 0)
(3 5.17784e-09 0)
(3 1.45856e-08 0)
(3 3.52658e-08 0)
(3 8.94075e-08 0)
(3 2.24653e-07 0)
(2.99999 5.25738e-07 0)
(2.99998 1.40886e-06 0)
(2.99994 3.0672e-06 0)
(2.99986 8.79838e-06 0)
(2.99965 1.81324e-05 0)
(2.99912 5.37796e-05 0)
(2.99784 0.000109199 0)
(2.99458 0.000327074 0)
(2.98658 0.000694406 0)
(2.96589 0.00195746 0)
(2.91055 0.00478955 0)
(2.75278 0.0133281 0)
(2.28141 0.0384152 0)
(1.15619 0.116056 0)
(0.483116 0.182622 0)
(0.66692 0.209059 0)
(0.819313 0.206972 0)
(3 7.07721e-11 0)
(3 4.8377e-10 0)
(3 1.55733e-09 0)
(3 4.69964e-09 0)
(3 1.13306e-08 0)
(3 3.09156e-08 0)
(3 6.94653e-08 0)
(3 1.87683e-07 0)
(2.99999 4.20773e-07 0)
(2.99998 1.12296e-06 0)
(2.99994 2.51177e-06 0)
(2.99986 6.69428e-06 0)
(2.99966 1.54549e-05 0)
(2.99916 3.91652e-05 0)
(2.99793 9.57535e-05 0)
(2.99482 0.000234716 0)
(2.98715 0.000587045 0)
(2.96737 0.00147205 0)
(2.91469 0.00379826 0)
(2.76478 0.0103168 0)
(2.31849 0.0297946 0)
(1.21289 0.0905729 0)
(0.512003 0.167515 0)
(0.660334 0.197149 0)
(0.797671 0.182759 0)
(3 8.79986e-11 0)
(3 3.41029e-10 0)
(3 1.70786e-09 0)
(3 3.30616e-09 0)
(3 1.21347e-08 0)
(3 2.18219e-08 0)
(3 7.41462e-08 0)
(3 1.30995e-07 0)
(2.99999 4.4146e-07 0)
(2.99998 7.8801e-07 0)
(2.99995 2.55228e-06 0)
(2.99987 4.84558e-06 0)
(2.99968 1.46324e-05 0)
(2.99918 3.05427e-05 0)
(2.99801 8.27393e-05 0)
(2.99499 0.000193025 0)
(2.98761 0.000482707 0)
(2.96856 0.00119436 0)
(2.91794 0.00307524 0)
(2.77443 0.00829471 0)
(2.34813 0.0239224 0)
(1.26459 0.0736963 0)
(0.548842 0.149026 0)
(0.656683 0.179661 0)
(0.777914 0.161368 0)
(3 4.84665e-11 0)
(3 3.39872e-10 0)
(3 1.074e-09 0)
(3 3.29904e-09 0)
(3 8.03349e-09 0)
(3 2.12716e-08 0)
(3 5.07957e-08 0)
(3 1.28322e-07 0)
(2.99999 3.05391e-07 0)
(2.99998 7.69858e-07 0)
(2.99995 1.84036e-06 0)
(2.99987 4.57498e-06 0)
(2.99968 1.10454e-05 0)
(2.99921 2.71686e-05 0)
(2.99806 6.66926e-05 0)
(2.99515 0.000163043 0)
(2.98798 0.000404836 0)
(2.96954 0.00100413 0)
(2.92058 0.00257542 0)
(2.78226 0.00690934 0)
(2.3727 0.0199732 0)
(1.31152 0.0618913 0)
(0.586445 0.132482 0)
(0.65558 0.156042 0)
(0.763004 0.142932 0)
(3 2.85066e-11 0)
(3 3.357e-10 0)
(3 6.8066e-10 0)
(3 3.26654e-09 0)
(3 5.35948e-09 0)
(3 1.97794e-08 0)
(3 3.71898e-08 0)
(3 1.11293e-07 0)
(2.99999 2.43521e-07 0)
(2.99998 6.13514e-07 0)
(2.99995 1.63872e-06 0)
(2.99987 3.31902e-06 0)
(2.99969 1.07644e-05 0)
(2.99923 1.86731e-05 0)
(2.99812 6.91676e-05 0)
(2.99528 0.000111351 0)
(2.98831 0.000410587 0)
(2.97037 0.000777843 0)
(2.92286 0.00236944 0)
(2.7889 0.00590518 0)
(2.39388 0.0174422 0)
(1.35486 0.0533306 0)
(0.620064 0.117938 0)
(0.654815 0.129349 0)
(0.75329 0.125209 0)
(3 4.87173e-11 0)
(3 1.82754e-10 0)
(3 8.92142e-10 0)
(3 1.78295e-09 0)
(3 6.47245e-09 0)
(3 1.13514e-08 0)
(3 4.12446e-08 0)
(3 6.68839e-08 0)
(2.99999 2.57997e-07 0)
(2.99998 3.85714e-07 0)
(2.99995 1.61609e-06 0)
(2.99988 2.31733e-06 0)
(2.9997 9.98383e-06 0)
(2.99926 1.50305e-05 0)
(2.99814 5.96932e-05 0)
(2.99544 0.000102101 0)
(2.98854 0.000345985 0)
(2.97117 0.000715797 0)
(2.92488 0.00207664 0)
(2.79473 0.00531564 0)
(2.4126 0.0154545 0)
(1.3956 0.0461578 0)
(0.647637 0.103445 0)
(0.652907 0.106209 0)
(0.747886 0.107514 0)
(3 1.86871e-11 0)
(3 1.76965e-10 0)
(3 5.24845e-10 0)
(3 1.75432e-09 0)
(3 3.98542e-09 0)
(3 1.28082e-08 0)
(3 2.21981e-08 0)
(3 8.67049e-08 0)
(2.99999 1.22309e-07 0)
(2.99998 5.6263e-07 0)
(2.99995 6.94952e-07 0)
(2.99988 3.55694e-06 0)
(2.9997 4.30336e-06 0)
(2.99927 2.1835e-05 0)
(2.99819 2.90254e-05 0)
(2.99551 0.000131857 0)
(2.98882 0.000217038 0)
(2.97182 0.00076566 0)
(2.92668 0.00168439 0)
(2.80012 0.00496672 0)
(2.42841 0.0137511 0)
(1.43204 0.0394087 0)
(0.670803 0.0883647 0)
(0.650523 0.0881684 0)
(0.743589 0.0898945 0)
(3 2.7192e-12 0)
(3 1.97813e-10 0)
(3 1.94118e-10 0)
(3 1.9901e-09 0)
(3 1.67342e-09 0)
(3 1.28649e-08 0)
(3 1.1989e-08 0)
(3 7.55485e-08 0)
(2.99999 8.76533e-08 0)
(2.99998 4.1617e-07 0)
(2.99995 6.65421e-07 0)
(2.99988 2.31137e-06 0)
(2.99971 4.83252e-06 0)
(2.99928 1.27633e-05 0)
(2.99823 3.58716e-05 0)
(2.99559 7.48047e-05 0)
(2.98907 0.000241057 0)
(2.97239 0.000533895 0)
(2.92841 0.00155025 0)
(2.80484 0.00418308 0)
(2.4423 0.011943 0)
(1.46244 0.0328499 0)
(0.690306 0.0739038 0)
(0.648202 0.0720441 0)
(0.739841 0.0730145 0)
(3 1.92731e-11 0)
(3 1.09702e-10 0)
(3 3.7087e-10 0)
(3 1.03688e-09 0)
(3 2.68274e-09 0)
(3 6.18063e-09 0)
(3 1.83703e-08 0)
(3 3.46472e-08 0)
(2.99999 1.22396e-07 0)
(2.99998 1.83993e-07 0)
(2.99995 8.17582e-07 0)
(2.99988 1.08697e-06 0)
(2.99971 5.22706e-06 0)
(2.9993 6.99339e-06 0)
(2.99824 3.33335e-05 0)
(2.99569 4.7012e-05 0)
(2.98921 0.000202349 0)
(2.9729 0.000378011 0)
(2.92979 0.0012208 0)
(2.80884 0.00316414 0)
(2.45364 0.00924769 0)
(1.48758 0.0263167 0)
(0.706718 0.0602097 0)
(0.646213 0.0571551 0)
(0.73655 0.0572604 0)
(3 6.79446e-12 0)
(3 8.76336e-11 0)
(3 2.22991e-10 0)
(3 8.1563e-10 0)
(3 1.66944e-09 0)
(3 5.4793e-09 0)
(3 9.43094e-09 0)
(3 3.70915e-08 0)
(2.99999 5.45086e-08 0)
(2.99998 2.46837e-07 0)
(2.99995 3.14315e-07 0)
(2.99989 1.61224e-06 0)
(2.99972 1.88993e-06 0)
(2.9993 1.06138e-05 0)
(2.99827 1.18932e-05 0)
(2.99573 6.47933e-05 0)
(2.98934 9.42344e-05 0)
(2.97324 0.00036117 0)
(2.93075 0.000775936 0)
(2.81168 0.00234174 0)
(2.46241 0.00659914 0)
(1.50868 0.0201194 0)
(0.720572 0.0469003 0)
(0.644716 0.0432599 0)
(0.733775 0.0426675 0)
(3 9.53416e-12 0)
(3 1.23192e-11 0)
(3 2.31619e-10 0)
(3 1.32146e-10 0)
(3 1.61214e-09 0)
(3 1.70286e-09 0)
(3 7.18599e-09 0)
(3 1.72989e-08 0)
(2.99999 2.73011e-08 0)
(2.99998 1.64438e-07 0)
(2.99995 8.2476e-08 0)
(2.99989 1.31172e-06 0)
(2.99972 2.88532e-07 0)
(2.99931 9.39647e-06 0)
(2.99829 2.17507e-06 0)
(2.99575 5.97283e-05 0)
(2.98946 3.44966e-05 0)
(2.97347 0.000299302 0)
(2.93146 0.000480811 0)
(2.81377 0.0016914 0)
(2.469 0.00458716 0)
(1.52512 0.0142971 0)
(0.731519 0.0336018 0)
(0.643727 0.0301877 0)
(0.73156 0.0293115 0)
(3 1.05988e-11 0)
(3 5.06367e-12 0)
(3 1.23198e-10 0)
(3 1.17879e-10 0)
(3 8.43034e-10 0)
(3 6.70036e-10 0)
(3 6.58173e-09 0)
(3 -1.17324e-09 0)
(2.99999 4.96108e-08 0)
(2.99998 -2.45794e-08 0)
(2.99995 3.38541e-07 0)
(2.99989 -1.90887e-07 0)
(2.99972 2.3409e-06 0)
(2.99931 -1.37566e-06 0)
(2.99831 1.55098e-05 0)
(2.99576 -1.72359e-06 0)
(2.98954 8.18139e-05 0)
(2.97362 7.03788e-05 0)
(2.93192 0.000397434 0)
(2.81518 0.000872552 0)
(2.47335 0.00279149 0)
(1.53637 0.00851255 0)
(0.739069 0.0202451 0)
(0.643125 0.0177639 0)
(0.729992 0.0170028 0)
(3 2.05593e-12 0)
(3 1.80207e-11 0)
(3 -4.20635e-11 0)
(3 2.35592e-10 0)
(3 -2.91042e-10 0)
(3 1.09619e-09 0)
(3 1.44069e-09 0)
(3 -2.17885e-09 0)
(2.99999 3.35356e-08 0)
(2.99998 -6.90565e-08 0)
(2.99995 3.04548e-07 0)
(2.99989 -6.56512e-07 0)
(2.99972 2.28397e-06 0)
(2.99932 -5.17441e-06 0)
(2.99829 1.50914e-05 0)
(2.99581 -2.77947e-05 0)
(2.98952 7.30639e-05 0)
(2.97374 -5.70815e-05 0)
(2.93212 0.000215169 0)
(2.81583 0.000188906 0)
(2.4756 0.00097754 0)
(1.54206 0.00280379 0)
(0.74289 0.00681589 0)
(0.642711 0.00590662 0)
(0.728988 0.00563782 0)
(1.11212 0.996379 0)
(0.983041 0.706009 0)
(0.0573526 0.417042 0)
(-0.422589 0.0169622 0)
(-0.55416 -0.0114573 0)
(-0.687998 -0.0242268 0)
(-0.734854 -0.012572 0)
(-0.770674 0.00968798 0)
(-0.817706 0.0175947 0)
(-0.864152 0.0156185 0)
(-0.896909 0.00834436 0)
(-0.911329 0.00221252 0)
(-0.911981 -0.00213283 0)
(-0.905463 -0.00485626 0)
(-0.893542 -0.00541027 0)
(-0.873432 -0.00571376 0)
(-0.844909 -0.00686425 0)
(-0.809795 -0.00814504 0)
(-0.770975 -0.00893547 0)
(-0.729713 -0.00946352 0)
(-0.686802 -0.0099433 0)
(-0.642575 -0.0103998 0)
(-0.597129 -0.0109342 0)
(-0.550697 -0.0114931 0)
(-0.503385 -0.012098 0)
(-0.455358 -0.0128702 0)
(-0.405858 -0.014501 0)
(-0.355605 -0.015903 0)
(-0.30568 -0.0170257 0)
(-0.256272 -0.0179806 0)
(-0.207631 -0.0191243 0)
(-0.159668 -0.0202577 0)
(-0.112133 -0.021246 0)
(-0.065099 -0.0222522 0)
(-0.0203847 -0.0247163 0)
(0.0310723 -0.0247181 0)
(0.0774837 -0.0230884 0)
(0.121434 -0.0218618 0)
(0.164379 -0.021213 0)
(0.20565 -0.0206005 0)
(0.245617 -0.0198047 0)
(0.283359 -0.0189753 0)
(0.319416 -0.018397 0)
(0.356711 -0.0183909 0)
(0.394848 -0.0185474 0)
(0.431707 -0.0179997 0)
(0.467191 -0.0172114 0)
(0.501674 -0.0165586 0)
(0.535333 -0.0159589 0)
(0.568284 -0.0154451 0)
(0.60049 -0.0149114 0)
(0.632045 -0.0143972 0)
(0.662939 -0.013885 0)
(0.69322 -0.0133809 0)
(0.722906 -0.0128846 0)
(0.752006 -0.0123999 0)
(0.780548 -0.0119154 0)
(0.808548 -0.0114526 0)
(0.836007 -0.0109888 0)
(0.862953 -0.0105468 0)
(0.889389 -0.0101065 0)
(0.915342 -0.00968573 0)
(0.940805 -0.00927015 0)
(0.965804 -0.00886736 0)
(0.990335 -0.00847391 0)
(1.01441 -0.00808929 0)
(1.03803 -0.00771413 0)
(1.0612 -0.00734728 0)
(1.08393 -0.00698792 0)
(1.1062 -0.00663691 0)
(1.12801 -0.00629238 0)
(1.14937 -0.00595639 0)
(1.17028 -0.00562702 0)
(1.19074 -0.00530698 0)
(1.21075 -0.00499444 0)
(1.23033 -0.00469212 0)
(1.24948 -0.0043974 0)
(1.26821 -0.00411265 0)
(1.28653 -0.00383623 0)
(1.30445 -0.00356784 0)
(1.32199 -0.0033074 0)
(1.33913 -0.00305385 0)
(1.35588 -0.00280837 0)
(1.37225 -0.00257067 0)
(1.38822 -0.00234648 0)
(1.40378 -0.0021323 0)