/*--------------------------------*- C++ -*----------------------------------*\
  =========                 |
  \\      /  F ield         | OpenFOAM: The Open Source CFD Toolbox
   \\    /   O peration     | Website:  https://openfoam.org
    \\  /    A nd           | Version:  13
     \\/     M anipulation  |
\*---------------------------------------------------------------------------*/
FoamFile
{
    format      ascii;
    class       volVectorField;
    location    "34";
    object      U;
}
// * * * * * * * * * * * * * * * * * * * * * * * * * * * * * * * * * * * * * //

dimensions      [0 1 -1 0 0 0 0];

internalField   nonuniform List<vector> 
918
(
(0.985166 -0.000497885 0)
(0.00500954 2.96625 0)
(-0.0368718 0.864659 0)
(0.979701 0.0021512 0)
(-0.0743049 1.45849 -3.61492e-20)
(-0.00704195 2.94879 -2.62469e-18)
(0.832197 1.17601 3.96419e-19)
(0.326612 0.148986 -1.71728e-20)
(0.999907 -0.000290189 0)
(0.0486071 0.841322 0)
(0.000221197 0.654478 0)
(0.734522 -0.0114781 0)
(0.0111257 2.93032 0)
(0.00263239 2.79473 0)
(-0.0175821 3.15708 7.36635e-19)
(-0.0367468 1.8469 -9.89836e-20)
(0.400912 0.0475381 1.13079e-18)
(0.19032 1.18751 2.68464e-19)
(0.962789 0.0050285 0)
(-0.0113825 0.636059 0)
(0.0776881 0.192845 -8.0836e-19)
(1.00197 -0.00498284 0)
(1.00022 -0.00979741 0)
(0.975717 -0.00644229 0)
(0.586412 -0.0384872 0)
(0.0161511 2.63799 0)
(-0.0148786 2.91003 9.76432e-19)
(-0.046731 0.811137 0)
(-0.139019 1.04892 0)
(-0.0400128 0.817732 0)
(-0.246469 2.5484 0)
(-0.135246 1.64584 2.85399e-20)
(-0.117803 1.47747 0)
(-0.0206093 2.9876 -9.48132e-23)
(-0.0166914 3.0053 2.03995e-18)
(0.00210534 3.00019 0)
(0.870506 -0.00950409 0)
(0.403494 0.936876 2.09342e-19)
(0.81329 1.19206 -4.06525e-19)
(0.96213 1.03114 4.69338e-19)
(0.683145 1.28507 -9.29263e-20)
(0.67969 1.27056 5.35338e-19)
(0.367875 0.235522 1.67535e-20)
(0.342291 0.118726 0)
(1.13851 0.554404 0)
(0.332562 0.234485 7.65841e-20)
(0.293305 0.158369 -7.94745e-20)
(0.919697 -0.00745427 0)
(1.00027 0.000136293 0)
(0.999909 0.000328001 0)
(1.00364 -0.00777824 0)
(1.00096 -0.000927979 0)
(1.00017 2.82136e-05 0)
(0.0797542 1.79718 -8.83815e-19)
(0.0322064 1.00312 0)
(0.0868933 0.904765 0)
(0.0214274 0.956656 0)
(0.0337407 0.774538 0)
(0.0230472 1.99916 0)
(-0.0066475 0.810217 0)
(0.0209829 0.659259 0)
(-0.00592765 0.812472 0)
(-0.00587301 0.661737 0)
(0.836494 -0.0152963 0)
(0.850614 0.0275711 0)
(0.768267 -0.00172292 0)
(0.824009 0.0362095 0)
(0.702673 -0.0164475 0)
(0.0146938 3.0004 9.75159e-19)
(0.0115133 3.008 0)
(0.0061209 3.00279 0)
(0.0135528 2.99736 1.11e-23)
(0.00797466 2.95846 -1.44933e-18)
(0.0144826 2.982 0)
(0.0108224 2.90362 0)
(0.0249307 2.93034 2.26586e-24)
(0.00441567 2.82495 0)
(0.0312397 2.91596 0)
(-0.00570688 2.74553 0)
(0.308576 3.55403 0)
(-0.131848 3.63565 0)
(0.139696 3.24745 -6.85524e-19)
(-0.0125058 2.98254 0)
(-0.264662 2.3668 0)
(-0.0604232 1.98754 9.76061e-20)
(-0.0138113 1.90675 -9.18419e-20)
(0.488059 0.14775 -3.9126e-19)
(0.398906 0.0269529 -3.77882e-19)
(0.4732 0.170971 -1.17836e-18)
(0.38547 0.0679813 -7.77145e-19)
(0.217562 0.938379 0)
(0.272302 1.32667 -3.3411e-19)
(0.377528 1.27186 5.62491e-19)
(0.987496 0.00856148 0)
(0.941933 0.00586967 0)
(1.0003 0.000577235 0)
(1.00287 0.00930342 0)
(1.00302 0.00846641 -2.98725e-18)
(0.991916 0.00969343 2.25592e-18)
(0.00327514 0.780632 0)
(-0.00903917 0.63432 0)
(-0.0105834 0.840996 0)
(-0.0163576 0.781771 0)
(0.0169547 0.627429 0)
(0.12223 0.19981 2.49951e-19)
(0.178271 0.177859 0)
(0.993534 -0.0083854 0)
(0.954398 -0.00652862 0)
(0.776386 0.0450405 0)
(0.714542 0.0549784 0)
(0.660535 -0.0304849 0)
(0.951368 -0.0101203 0)
(0.632859 0.0681638 0)
(0.461935 -0.0190471 1.64454e-18)
(-0.0363795 2.86434 7.50824e-19)
(0.0420545 2.90952 0)
(0.0547839 2.8847 0)
(-0.00430992 2.69892 0)
(-0.013297 2.98507 9.29287e-19)
(-0.0180423 2.89509 0)
(-0.0154509 2.98807 -2.87174e-18)
(-0.0133217 2.92518 9.81729e-19)
(-0.138976 1.14973 0)
(-0.182827 1.32199 0)
(-0.112039 1.92416 -3.32229e-21)
(-0.115392 1.82164 0)
(-0.0770596 1.69122 0)
(0.937717 -0.00765103 0)
(0.856031 -0.00940114 0)
(0.863582 0.0066533 0)
(0.949026 -0.00799496 0)
(0.883516 -0.00816991 0)
(0.515636 1.13076 -2.62897e-19)
(0.565203 1.18255 0)
(0.367456 0.880898 3.77695e-20)
(0.309758 0.740496 0)
(0.921416 1.06932 -1.25374e-19)
(1.03296 0.871676 2.47114e-19)
(0.372984 1.37671 0)
(0.537167 1.3472 0)
(0.544986 1.30091 0)
(0.111389 0.182836 -3.20748e-19)
(0.401696 0.220306 0)
(0.368611 0.111014 2.1903e-19)
(1.0029 0.926041 0)
(1.06733 0.773575 0)
(1.09265 0.714765 -1.74056e-19)
(1.1187 0.614975 0)
(1.1634 0.398656 5.48628e-20)
(0.957404 -0.00888147 0)
(0.962308 -0.0101298 0)
(0.90138 -0.00795465 0)
(0.984161 -0.00918034 0)
(0.97461 -0.00940394 0)
(0.937019 -0.00639015 0)
(1.00019 0.00233863 0)
(1.00091 0.00139344 0)
(0.999913 0.000851145 0)
(0.0332834 2.05652 4.8537e-19)
(0.120424 1.73833 0)
(0.0132836 2.17161 7.71565e-19)
(0.0544437 1.8567 -6.62363e-19)
(0.10519 1.1913 -2.18905e-19)
(0.0467049 1.07836 0)
(0.142175 1.05106 0)
(0.0118412 0.911194 0)
(0.0202871 0.728647 0)
(-0.00452641 2.20323 -1.81261e-21)
(0.0338552 1.99275 0)
(-0.00559331 2.17909 -9.93044e-20)
(0.027243 2.00018 1.8781e-19)
(0.0160692 0.868077 0)
(0.00854355 0.830476 0)
(0.0241171 0.692558 0)
(-0.00495225 0.806422 0)
(-0.0225163 0.648235 0)
(0.934352 0.00877924 0)
(0.843581 -0.0147414 0)
(0.924766 -0.000438642 0)
(0.839042 -0.0124866 0)
(0.81277 0.00235435 0)
(0.902662 0.019135 0)
(0.879953 0.0235168 0)
(0.789662 0.000767337 0)
(0.00574612 3.06483 -9.18532e-21)
(0.0165169 3.05777 0)
(0.0146254 2.96908 0)
(0.00862306 2.87632 0)
(0.925473 3.97062 0)
(1.24014 3.30262 9.24225e-19)
(0.0701836 3.07481 0)
(-0.0283837 2.90577 0)
(-0.0871901 1.50065 0)
(-0.182523 2.19509 0)
(-0.237986 1.90427 0)
(-0.213319 2.51639 3.3736e-20)
(-0.226821 2.47594 0)
(-0.253038 2.48763 0)
(0.0197063 1.97953 1.66056e-21)
(-0.0171643 2.08575 7.6856e-20)
(-0.0313295 2.03924 9.34285e-20)
(0.00240252 1.95042 0)
(0.514366 0.121533 5.86654e-19)
(0.414724 0.00528863 -5.76299e-19)
(0.26116 1.5675 0)
(0.266359 0.714579 -3.26534e-19)
(0.177733 1.65214 -1.10267e-18)
(0.227426 1.18361 1.10556e-18)
(0.902321 0.0065803 0)
(0.967538 0.010973 0)
(0.974625 0.0107519 0)
(0.923485 0.0065238 0)
(-0.0114116 0.807361 0)
(-0.00223808 0.795596 0)
(-0.00549895 0.63486 0)
(0.28327 0.230472 7.04114e-19)
(0.232671 0.212026 -8.32787e-19)
(0.245125 0.170878 0)
(1.07412 0.0819827 3.34236e-20)
(1.05498 0.0369142 0)
(0.995484 0.03705 0)
(0.893601 -0.00865493 0)
(0.538636 0.095747 0)
(0.570601 0.0740667 -2.63227e-18)
(0.432716 -0.00346415 9.88271e-19)
(0.00914358 2.98137 7.95553e-19)
(-0.0326196 2.86612 4.68988e-20)
(0.00366431 3.05027 -1.93841e-20)
(0.0201055 3.04336 6.88149e-19)
(-0.0149799 2.99655 3.21768e-20)
(-0.0129673 2.94943 -1.29321e-22)
(-0.0172883 3.01196 -5.92809e-19)
(0.0148819 3.02381 4.29501e-19)
(0.00739231 3.03691 -6.8241e-19)
(0.932204 -0.00228779 0)
(0.938263 -0.00396782 0)
(0.843668 -0.00859917 0)
(0.956808 0.0116371 0)
(0.943229 0.0128108 0)
(0.881926 0.00621862 0)
(0.918586 0.0158121 0)
(0.926849 0.0144646 0)
(0.838989 0.00444242 0)
(0.719298 1.40999 5.10533e-21)
(0.753036 1.51939 0)
(0.192154 0.333171 7.85904e-20)
(0.215065 0.653335 6.33267e-19)
(0.258641 0.717118 -3.65431e-19)
(0.267033 0.539372 7.27286e-19)
(0.327113 0.777368 1.67729e-18)
(0.129108 0.21826 3.868e-19)
(0.448241 0.193519 8.24896e-19)
(0.424946 0.21019 2.13774e-19)
(0.379731 0.0934813 4.09858e-19)
(1.15288 0.457103 -9.57443e-21)
(1.16347 0.251642 -1.7554e-20)
(0.00319505 2.20905 3.10521e-19)
(0.0538796 1.92304 0)
(0.960967 0.0266793 0)
(0.937453 0.0122569 0)
(0.85964 -0.0186208 0)
(0.0113505 3.07456 0)
(0.0199339 2.94421 1.27286e-18)
(0.0164406 2.95645 0)
(0.00622584 2.85055 -1.2627e-18)
(0.00626953 3.09176 3.10171e-19)
(0.0070189 3.08211 0)
(0.786146 1.82237 -1.51012e-19)
(1.2478 2.50129 3.79545e-19)
(0.76835 1.96238 -1.21188e-18)
(0.0202282 2.98245 -6.94197e-19)
(0.0357308 3.00237 0)
(-0.0338001 2.879 0)
(-0.0105681 2.15431 -7.54195e-21)
(-0.0131321 2.12048 -1.58244e-19)
(0.0207162 1.99845 -2.51556e-21)
(0.274572 1.37391 1.06402e-18)
(0.220663 0.499094 -7.29544e-19)
(0.0633337 1.9824 8.23087e-19)
(0.137188 1.87166 -9.69188e-19)
(0.178131 1.47677 8.99636e-20)
(0.0051579 3.11871 -1.74186e-18)
(0.0111577 3.1193 1.9031e-18)
(-0.00906402 2.98073 8.6306e-19)
(-0.00423518 2.97746 -8.21155e-19)
(-0.0214336 2.88091 -8.79015e-19)
(0.00847747 3.0996 -2.31105e-18)
(0.00175133 3.10511 2.32502e-18)
(0.271009 0.678976 0)
(0.231818 0.667411 -1.30702e-18)
(0.0985942 0.22194 5.7833e-19)
(0.344066 0.901721 1.15157e-18)
(0.183791 0.261001 -1.7766e-18)
(1.15585 0.17102 9.19509e-20)
(1.16482 0.306133 0)
(1.14254 0.119297 -4.10608e-20)
(-0.00611034 2.21057 -2.47104e-21)
(-0.00379954 2.21659 0)
(0.0421985 1.96613 0)
(0.337772 1.28066 -3.83937e-19)
(0.363397 1.11051 -8.27011e-19)
(0.196872 0.355583 1.47431e-18)
(1.00587 -0.0108734 0)
(1.00766 -0.00765761 5.51643e-19)
(-0.0386639 1.19367 0)
(-0.0210688 1.03895 0)
(1.00222 0.00348783 1.79292e-21)
(1.00364 0.00941519 1.12532e-18)
(-0.193204 2.51697 -4.46492e-20)
(-0.156042 2.51127 0)
(0.0359887 3.17932 4.73093e-19)
(0.395786 3.49268 0)
(1.1372 0.652112 -9.19653e-20)
(1.01294 0.0130693 -2.13554e-21)
(1.02119 -0.0104661 0)
(1.00168 9.88188e-05 6.06868e-23)
(0.0968832 1.35144 0)
(0.147945 2.58331 0)
(0.0220812 1.30731 0)
(-0.00343812 2.62687 9.28059e-20)
(-0.0246808 2.57518 7.47628e-20)
(1.00348 0.0270876 2.40772e-21)
(1.06153 0.00327203 0)
(1.09374 0.0207501 0)
(-0.126176 2.06227 0)
(-0.0318942 2.55939 0)
(0.0291997 1.19666 0)
(0.28553 1.46476 -1.18591e-19)
(1.01124 -0.00966031 0)
(1.0094 -0.0149484 0)
(1.00233 0.000684869 7.04208e-19)
(1.00547 -0.00485521 -8.28557e-19)
(1.00118 -0.00100913 0)
(0.0273103 1.7364 0)
(0.0169767 1.27552 0)
(-0.053208 1.55796 0)
(0.0190904 1.16381 0)
(0.0373906 1.05801 0)
(0.00830293 1.00911 0)
(1.03417 -0.00659229 0)
(1.02085 0.0157323 -9.63377e-22)
(0.796571 1.26162 2.06525e-19)
(1.0023 0.000250884 -7.04195e-19)
(1.00406 0.00522618 8.2162e-19)
(1.00118 0.00206059 0)
(1.01284 0.0102642 6.9926e-19)
(1.00804 0.00827195 -8.46104e-19)
(1.00861 0.014675 0)
(-0.083536 2.56879 0)
(-0.141417 2.54489 8.7423e-20)
(-0.0815061 2.53795 -7.38711e-20)
(1.2141 0.256552 7.24988e-19)
(1.15117 0.0773963 0)
(0.0450016 3.07774 -1.01792e-18)
(0.065735 2.85353 -7.38849e-20)
(0.142438 3.19385 1.54101e-18)
(0.137075 3.22259 -2.40869e-19)
(0.135935 3.23541 0)
(0.0196622 3.13779 2.65645e-19)
(0.0767446 3.1606 1.00536e-18)
(0.0693448 3.18687 -4.99942e-19)
(0.023034 3.12918 0)
(0.655747 0.304095 0)
(0.576477 0.351355 0)
(1.10736 0.684429 2.37857e-19)
(1.10335 0.814381 -2.54741e-19)
(1.16604 0.571552 0)
(1.1954 0.512592 0)
(1.01619 0.0132705 -1.30436e-18)
(1.015 0.01425 1.63719e-18)
(1.02513 -0.0100555 0)
(1.02317 -0.0119545 0)
(1.00647 0.00260346 0)
(1.01039 0.00364605 0)
(1.0046 0.00184878 0)
(1.0099 0.00610615 0)
(1.00783 0.00602947 0)
(1.00448 0.00458056 0)
(0.0868846 1.34798 0)
(0.0786547 1.32162 0)
(0.11756 1.38367 0)
(0.126689 1.39898 0)
(0.145586 2.60735 0)
(0.186672 2.67192 -4.703e-19)
(0.0991528 2.66485 0)
(0.0879969 2.66666 2.45167e-19)
(0.0399672 2.6842 -2.42368e-19)
(0.0270844 1.30742 0)
(-0.00280546 1.23572 0)
(0.0252084 1.32409 0)
(0.0429261 1.27238 0)
(-0.00909948 1.99 -5.4031e-20)
(-0.0286275 2.60408 6.04222e-20)
(-0.0157468 2.66781 9.49567e-20)
(-0.0223434 2.6769 0)
(-0.0339213 2.60845 -1.71951e-19)
(-0.0336607 2.60101 -1.06295e-19)
(0.000519954 1.99106 4.14393e-20)
(-0.02186 2.41336 -8.10184e-20)
(-0.0223938 2.42959 -1.07713e-19)
(1.01217 0.0350548 1.32249e-18)
(1.00828 0.0168559 -1.63941e-18)
(1.00482 0.0413804 -1.32959e-18)
(0.983173 0.0220306 1.68871e-18)
(1.06254 0.00691556 0)
(1.04787 -0.00909653 0)
(1.09078 0.0314764 0)
(1.07201 0.0107545 0)
(1.06952 -0.00110845 0)
(1.13381 0.0723749 0)
(1.10614 0.0384398 0)
(1.1083 0.0260315 0)
(-0.189083 2.51437 -1.83434e-21)
(-0.0955229 2.30536 0)
(-0.190808 2.43821 0)
(-0.0580652 2.57869 4.62074e-20)
(-0.0408427 2.58961 -2.02916e-21)
(0.0697377 1.79201 -3.65399e-20)
(0.0534977 1.66142 3.69633e-20)
(0.0679803 1.40336 0)
(0.0628422 1.40083 0)
(0.0725271 1.38431 0)
(0.0367556 1.21874 0)
(0.011318 1.07455 0)
(0.376454 1.47955 1.80443e-19)
(0.414317 1.48614 1.14523e-19)
(0.596114 2.45251 -2.4824e-19)
(0.40396 2.54688 7.34963e-19)
(0.355299 2.07316 8.68064e-20)
(1.02089 -0.0082687 0)
(1.01542 -0.00982688 0)
(1.01486 -0.0155756 0)
(1.00746 -0.00123028 0)
(1.0049 -0.000974028 0)
(1.00776 -0.00477527 0)
(1.00922 -0.00378745 0)
(1.01413 -0.00456165 0)
(1.02152 0.015922 1.27741e-18)
(1.01817 0.0158 -1.63873e-18)
(1.02202 0.0178636 -1.2865e-18)
(1.01977 0.0165359 1.61331e-18)
(0.764199 1.30965 0)
(0.69842 1.36402 1.82884e-19)
(0.872496 1.2076 4.10243e-20)
(0.915131 1.16201 -5.45833e-20)
(1.15652 2.60801 3.84656e-19)
(0.812723 0.0963577 6.47508e-19)
(1.15191 0.0955713 0)
(1.19429 0.18199 -5.81898e-19)
(1.17867 0.146294 -2.45495e-20)
(1.0059 0.138476 0)
(0.138437 2.96236 6.02777e-19)
(0.115225 2.86828 -1.28425e-18)
(0.0265556 2.37043 8.6831e-19)
(0.0928625 0.00199484 -3.90988e-19)
(0.340631 3.4216 -1.79972e-19)
(0.195035 3.31413 0)
(0.237792 3.35643 2.34383e-19)
(0.247008 3.03548 -1.95668e-18)
(0.341484 3.19447 0)
(0.00739095 3.12063 5.11561e-20)
(0.0180275 3.12945 -5.97447e-19)
(0.0160169 3.12551 8.79358e-19)
(0.0360039 3.13956 0)
(0.0341751 3.1509 0)
(1.2151 2.60794 0)
(0.530107 0.84184 -5.67706e-19)
(1.03384 0.989504 4.20656e-20)
(0.971651 1.06256 0)
(0.817696 0.961709 -1.38873e-19)
(1.05698 0.877356 2.94917e-20)
(0.3691 0.409969 -1.00667e-18)
(0.700739 0.327744 -2.29124e-20)
(0.67677 0.247044 4.6336e-19)
(0.591724 0.387299 3.41915e-20)
(0.509585 0.363901 -1.37663e-18)
(0.671112 0.341506 0)
(0.70256 0.426672 7.86316e-19)
(0.709502 0.425754 0)
(0.629163 0.370143 0)
(0.605429 0.297162 0)
(0.789344 0.616759 4.72055e-19)
(1.21072 0.278597 -6.14631e-19)
(1.20548 0.41715 0)
(1.21701 0.362395 0)
(0.756362 0.19255 6.91389e-19)
(0.835445 0.536394 -4.30437e-19)
(0.740403 0.512595 7.62405e-19)
(0.937601 0.421639 -8.48263e-19)
(1.01986 0.0145753 8.79044e-19)
(1.01792 0.0141324 -8.83457e-19)
(1.01597 0.0155678 0)
(1.03567 -0.00621779 0)
(1.02947 -0.0087269 -8.29895e-19)
(1.02741 -0.0122807 8.21806e-19)
(1.0251 0.00957717 0)
(1.02378 0.0130744 0)
(1.0114 0.00401801 0)
(1.01431 0.0089235 0)
(1.01507 0.00390189 0)
(1.01418 0.00273414 0)
(0.0605274 1.33242 0)
(0.0626931 1.29387 0)
(0.148069 1.3496 -4.86558e-20)
(0.263838 1.46252 5.75678e-20)
(0.153984 1.4328 1.16407e-19)
(0.184508 1.44184 -1.92539e-19)
(0.160425 1.37585 0)
(0.133043 1.58799 -1.27415e-19)
(0.114357 1.55807 0)
(0.354102 2.02727 -1.26173e-19)
(0.349283 2.36039 6.80646e-19)
(0.183869 1.44034 1.11099e-19)
(0.260529 1.37247 -8.86259e-22)
(0.197051 1.35667 7.17846e-22)
(0.271468 1.3128 -1.54322e-19)
(0.240885 1.5733 0)
(0.261284 1.6152 1.5241e-19)
(0.0294629 2.27738 -5.50424e-20)
(0.0375733 2.67629 0)
(0.0621897 2.41436 1.93387e-19)
(0.055041 2.43579 0)
(0.0693966 2.67983 -2.71248e-19)
(0.0500707 2.70542 0)
(0.0199998 1.41202 -3.56165e-20)
(0.0267366 1.46225 0)
(0.0304595 1.37881 0)
(0.0172289 1.38496 4.06574e-20)
(-0.00517034 2.65676 -2.12668e-20)
(0.0256909 2.70189 2.81646e-19)
(0.00856322 2.72511 1.97e-21)
(-0.0074978 1.84167 5.396e-20)
(-0.0182265 1.67145 2.4347e-20)
(0.0270491 1.29643 0)
(0.0287361 1.17269 0)
(0.0432268 1.56682 5.83957e-20)
(0.0272834 1.44419 5.31818e-20)
(0.0314287 1.50939 -6.66293e-20)
(0.0358914 1.58981 0)
(-0.0584147 2.31678 -7.61401e-20)
(-0.0744816 2.54637 3.20745e-20)
(-0.0230493 2.46232 -2.17851e-20)
(-0.0222277 1.85105 -6.53693e-20)
(-0.0423476 2.49296 -2.62239e-20)
(-0.0272035 2.44106 1.18548e-19)
(1.02014 0.0204661 -8.74192e-19)
(1.01653 0.0256447 8.76557e-19)
(1.01524 0.0162102 0)
(1.01443 0.0648061 1.22524e-18)
(0.993958 0.0556113 -1.3753e-18)
(0.955875 0.0433077 1.53657e-18)
(1.01673 0.101303 -1.64592e-19)
(1.04185 -0.00629584 0)
(1.04989 -0.00225722 7.94741e-19)
(1.03811 -0.0102975 -7.9573e-19)
(1.06995 0.0395963 -4.74878e-20)
(1.06342 0.02163 4.09062e-19)
(1.06319 0.0509929 0)
(1.05289 0.0453171 -1.46571e-19)
(1.03278 0.0391268 0)
(1.02631 0.0353854 0)
(1.02773 0.0127144 0)
(1.02446 0.015488 0)
(1.03899 0.0299983 3.01596e-19)
(1.03928 0.0252931 -6.64622e-19)
(1.05034 0.0322089 -3.20811e-19)
(1.04686 0.0326233 -3.52409e-19)
(1.06747 0.0581711 6.92461e-19)
(1.09262 0.0454985 0)
(1.09992 0.0879248 0)
(-0.0712173 2.32908 1.34001e-21)
(-0.047455 2.23998 1.40146e-21)
(-0.0140591 2.19521 0)
(-0.0892279 2.48786 -1.32417e-21)
(-0.13246 2.49053 3.65083e-22)
(-0.119545 2.49512 -1.51744e-20)
(-0.0348328 2.61308 9.22775e-20)
(-0.0559068 2.54818 -7.5667e-21)
(-0.0353704 2.51238 2.89844e-20)
(-0.0357673 2.6011 -4.80493e-20)
(-0.0365084 2.60538 5.95439e-20)
(0.113398 1.60195 3.56096e-21)
(0.0480029 1.78756 1.41787e-20)
(0.366219 1.41933 -6.62222e-20)
(0.364153 1.36171 8.70088e-20)
(0.645651 1.40943 -1.76897e-19)
(0.512762 1.47382 -1.10716e-19)
(0.564553 1.44724 0)
(0.591599 2.42793 2.22149e-19)
(0.658456 2.41934 3.51341e-19)
(0.410732 2.52281 8.21106e-20)
(0.40547 2.55226 -6.84814e-19)
(0.514643 2.49865 6.51962e-19)
(0.550934 2.46617 0)
(0.488614 2.52099 -5.89468e-19)
(0.2486 2.59754 1.25208e-18)
(0.353554 2.5718 -8.41224e-20)
(0.284739 2.65884 -1.7027e-18)
(0.940917 2.3798 7.81269e-19)
(0.833591 2.38513 0)
(1.01092 0.000381744 2.86065e-20)
(1.01524 -0.00557339 -2.32504e-20)
(1.01766 -0.00366976 -4.24889e-19)
(1.01495 -0.00106964 4.26944e-19)
(1.0123 0.000976426 0)
(0.634338 1.27919 0)
(0.65324 1.17387 0)
(0.754397 1.08113 0)
(0.644311 1.14098 0)
(1.18556 2.6226 5.95767e-20)
(1.07475 2.36675 0)
(0.838578 2.18649 4.47068e-21)
(0.827216 2.45138 0)
(0.92255 2.54057 -4.76872e-19)
(0.958353 2.49599 3.1754e-19)
(0.821988 0.147871 0)
(0.792765 0.128415 1.77461e-19)
(0.924992 0.129867 1.02875e-18)
(0.842818 0.12471 -3.8672e-19)
(0.822231 0.0670791 -1.18097e-18)
(1.07217 0.22172 -1.02424e-18)
(0.992439 0.278934 -1.54445e-20)
(0.917048 0.274207 9.61892e-19)
(1.00433 0.206849 8.06384e-19)
(0.951393 0.17095 -1.37221e-18)
(0.918494 0.172965 1.71446e-19)
(0.949304 0.234765 -3.69595e-19)
(0.928316 0.196432 0)
(0.996775 0.170762 6.77628e-19)
(1.04604 0.172516 0)
(1.0441 0.19915 0)
(1.09942 0.106191 3.25776e-19)
(1.07251 0.161627 -1.36298e-20)
(1.06601 0.224642 -1.77278e-19)
(1.09595 0.191045 0)
(1.02284 0.0436437 6.78874e-19)
(1.04148 0.054803 8.47571e-19)
(1.03288 0.0413507 -6.73364e-19)
(1.04178 0.05988 -5.67905e-19)
(1.01643 0.0668801 -8.62457e-19)
(0.991138 0.144974 0)
(1.00037 0.0974043 0)
(0.971732 0.0629479 -5.46698e-19)
(0.924075 0.082957 2.14938e-19)
(1.03877 0.0958542 7.8634e-19)
(1.06873 0.108556 -9.37761e-19)
(1.07361 0.141311 8.36766e-19)
(1.03279 0.133081 0)
(1.07383 0.0977954 0)
(1.05776 0.0812774 -3.8065e-19)
(1.04563 0.0887408 -6.44684e-19)
(0.580121 1.07955 1.66214e-19)
(0.611573 1.41304 -6.89776e-20)
(1.15614 2.74107 -2.63373e-19)
(1.22285 3.08224 8.75401e-21)
(1.2485 2.72226 -2.10181e-19)
(1.27861 2.70629 4.24252e-21)
(1.20665 2.34567 -1.00663e-20)
(1.21003 2.9859 -1.23218e-19)
(1.22947 2.95083 2.82027e-19)
(1.21387 3.23598 -1.31571e-19)
(1.37511 2.96744 1.81978e-19)
(1.3657 2.88563 0)
(0.536872 0.849285 -5.37331e-20)
(0.138912 1.26035 5.99846e-19)
(0.529364 0.466965 6.50307e-19)
(0.364098 0.217932 7.18757e-19)
(0.530421 0.394797 7.76715e-19)
(0.541039 0.483734 -1.27865e-18)
(0.5442 0.490473 1.04466e-18)
(0.497558 0.415096 -3.91952e-19)
(0.424754 0.352037 8.90302e-19)
(0.759843 0.250016 -3.95954e-19)
(0.721436 0.286707 0)
(0.714403 0.217156 9.8671e-21)
(0.723424 0.513948 4.14148e-19)
(0.694735 0.48204 -1.5092e-18)
(0.613517 0.482235 1.65147e-20)
(0.624854 0.462497 0)
(0.666037 0.736378 4.34673e-19)
(0.815621 0.771094 4.55183e-19)
(0.743051 0.853973 -5.31213e-19)
(0.857308 0.80304 -1.8471e-19)
(0.891011 0.846509 -4.88077e-20)
(0.89942 0.848132 4.99652e-20)
(0.829253 0.642523 -7.83706e-19)
(0.906642 0.698697 1.71579e-19)
(0.963924 0.713003 0)
(0.954394 0.688915 -2.38626e-19)
(1.01743 0.319466 2.47578e-19)
(1.12682 0.290264 3.54184e-19)
(1.05746 0.259701 4.18657e-19)
(1.00069 0.354077 -4.94884e-19)
(1.03949 0.420851 0)
(1.09189 0.406686 0)
(0.904769 0.349538 4.98552e-21)
(0.840157 0.282948 0)
(0.86651 0.275962 4.50989e-19)
(0.900993 0.28061 -5.95287e-21)
(0.929344 0.424783 2.36637e-18)
(0.885079 0.4858 6.11307e-19)
(0.890819 0.450173 -6.44181e-19)
(0.816709 0.434665 6.89848e-19)
(0.799229 0.430753 4.11739e-19)
(0.769997 0.418736 -4.04795e-19)
(1.02708 -0.000585361 7.08268e-19)
(1.01999 -0.000306696 0)
(1.0185 0.000628282 4.61509e-19)
(1.02164 -0.00194642 -1.04576e-18)
(1.02229 0.0039817 5.0786e-19)
(1.02046 0.0109081 -1.06355e-18)
(1.02141 0.0103133 0)
(1.02075 0.0106095 -2.2147e-19)
(1.016 0.0075087 5.5555e-19)
(1.01678 0.0102603 -2.77155e-19)
(1.01748 0.00959213 2.04184e-19)
(0.0313808 1.31096 0)
(0.0401316 1.34802 0)
(0.0459637 1.31209 0)
(0.0508731 1.2752 0)
(0.0695458 1.36668 7.56507e-20)
(0.0766641 1.33978 -1.60081e-20)
(0.11233 1.49661 -4.53017e-20)
(0.0883832 1.33827 2.53031e-20)
(0.0323699 1.44585 -7.96515e-20)
(0.036296 1.43626 6.17791e-20)
(0.0633705 1.35012 -6.97161e-21)
(0.0573095 1.35179 -3.7933e-20)
(0.0527056 1.33214 -5.79473e-21)
(0.0413811 1.35185 -8.85809e-21)
(0.104751 2.38659 -2.13962e-19)
(0.0944616 2.43149 0)
(0.171438 2.06293 1.31796e-19)
(0.106098 1.7103 6.59779e-20)
(0.231871 2.0537 -1.06877e-19)
(0.208996 2.45026 0)
(0.267984 2.40161 -6.62259e-19)
(0.306622 2.39964 4.69867e-19)
(0.233305 2.01194 -2.98426e-19)
(0.153731 2.17878 1.91965e-19)
(0.14545 2.2982 0)
(0.0104066 1.88224 -8.98069e-20)
(-0.0142308 2.40992 -1.59229e-19)
(-0.00301921 2.16487 0)
(0.00949673 2.4692 -1.49797e-20)
(0.0205687 2.31707 5.62591e-20)
(0.0144674 1.39402 6.21229e-21)
(0.0167691 1.3825 -8.82506e-20)
(0.0253541 1.39737 1.819e-20)
(0.0101605 1.39515 3.64098e-20)
(0.0198264 1.41573 0)
(0.0292874 1.37795 0)
(0.0723366 1.23322 2.70582e-20)
(0.0872199 1.37704 -1.14376e-20)
(0.0500612 1.37287 0)
(0.0426203 1.26976 1.7217e-20)
(0.0216979 1.10341 -3.37166e-20)
(1.04004 0.0109035 0)
(1.046 0.00710656 -7.45528e-20)
(1.03845 0.0200191 -5.35809e-19)
(1.04755 0.0190902 0)
(1.05143 0.0192399 0)
(1.03647 0.0107266 -6.53567e-21)
(1.03112 0.0105605 8.6014e-19)
(1.03199 0.015524 1.04295e-18)
(1.02594 0.0195199 0)
(1.02332 0.0199709 0)
(1.03513 0.0234975 5.34962e-19)
(1.02638 0.0249288 0)
(1.02483 0.0249001 0)
(-0.0414272 2.02528 0)
(0.0343548 1.77926 6.03793e-21)
(0.0123015 1.84661 9.51114e-21)
(0.0791031 1.3922 0)
(0.0478042 1.62872 2.45708e-20)
(0.0806885 1.51833 -6.80076e-21)
(0.090965 1.44895 0)
(0.39661 1.68097 0)
(0.365595 1.2903 -1.58941e-19)
(0.30725 1.34026 0)
(0.422046 1.29086 1.22628e-19)
(0.465691 1.44721 0)
(0.446639 1.39166 -2.83411e-20)
(1.03421 2.68772 -1.67715e-20)
(0.963046 2.40992 -9.81974e-19)
(0.91207 2.18686 1.13844e-18)
(0.846784 2.37685 2.56385e-19)
(0.846312 2.50009 0)
(0.916576 2.49494 0)
(0.924269 2.37341 0)
(0.901866 2.36037 -9.97106e-19)
(0.69235 2.47054 -4.39159e-19)
(0.802189 2.46129 -1.07107e-19)
(0.81335 2.43357 8.17693e-20)
(0.693424 2.39406 0)
(0.797127 2.38952 0)
(0.756029 2.40228 -3.82451e-19)
(0.769667 2.49139 0)
(0.612112 1.09734 0)
(0.481896 0.928973 -5.55004e-19)
(0.550082 0.964535 -3.52504e-20)
(0.520569 1.057 0)
(0.520004 1.00631 8.33438e-19)
(0.766973 0.880379 -1.52959e-19)
(0.778411 1.01198 0)
(0.751599 0.970065 2.28681e-19)
(0.639796 1.03482 0)
(0.644376 0.944466 0)
(1.16429 2.76189 -2.67122e-19)
(1.1418 2.82567 -1.23813e-19)
(0.931571 2.34619 1.45758e-19)
(0.899392 2.32513 -9.77682e-20)
(1.12923 2.73464 0)
(1.08279 2.7047 1.17681e-19)
(1.08899 2.4867 -3.47975e-19)
(0.984182 2.23363 -3.04479e-20)
(0.500455 1.36013 0)
(0.512821 1.07773 -1.46647e-19)
(0.562868 1.16233 0)
(0.860793 0.212217 0)
(0.800186 0.166744 0)
(0.752695 0.142261 0)
(0.855336 0.219732 -7.09877e-19)
(0.7768 0.212386 4.15456e-19)
(0.93691 0.0696102 -4.43987e-19)
(0.950302 0.114116 0)
(0.928463 0.121797 1.91027e-19)
(0.870403 0.0973084 7.65344e-19)
(0.848999 0.0575937 -4.78865e-19)
(1.16131 3.36161 -6.97307e-19)
(1.20883 3.28088 0)
(1.15988 3.38965 -1.44533e-18)
(0.647663 3.55052 1.22644e-18)
(0.872329 3.11809 4.50238e-20)
(0.510938 0.85441 6.3959e-19)
(0.428812 0.84741 0)
(0.339353 0.501099 -1.61377e-19)
(0.444897 0.685489 9.20623e-19)
(0.532201 0.4734 -2.24266e-19)
(0.506861 0.525033 2.53567e-19)
(0.65594 0.53752 5.56943e-19)
(0.68336 0.554109 0)
(0.635672 0.620481 0)
(0.593704 0.55753 0)
(0.966339 0.597309 1.25673e-19)
(0.887034 0.535197 -5.94828e-19)
(0.910643 0.567899 4.61697e-19)
(0.946145 0.503101 -4.62245e-19)
(1.04926 0.479323 0)
(1.05882 0.567302 -1.20184e-19)
(0.839947 0.386032 -9.40464e-19)
(0.843964 0.371025 -1.16567e-18)
(0.791677 0.385142 7.33518e-19)
(0.788732 0.352888 -7.48721e-19)
(0.839374 0.307552 -5.85777e-19)
(0.793522 0.306675 7.19779e-19)
(1.02678 0.005374 -5.41267e-19)
(1.0265 0.00561059 1.10273e-18)
(1.02911 -0.000628282 6.87277e-19)
(1.0333 0.000511932 -8.27541e-19)
(1.03285 0.00804014 0)
(1.03003 0.00868371 -1.34626e-18)
(0.0571073 1.64326 3.69714e-20)
(0.0401327 1.56761 0)
(0.0845638 1.69598 2.33892e-19)
(0.0943912 1.67612 -2.09283e-19)
(0.0848065 1.51265 8.50098e-20)
(0.0795549 1.495 0)
(-0.00147529 1.70306 0)
(0.000184339 1.52667 -1.76847e-20)
(0.0340967 1.46456 1.59351e-20)
(0.0290947 1.6103 1.35835e-20)
(0.00123572 1.89995 -3.54873e-20)
(-0.0305924 1.93559 2.12435e-20)
(0.499131 1.37488 -3.54771e-19)
(0.494559 1.38024 3.88229e-19)
(0.445432 1.28803 -9.10791e-20)
(0.438954 1.29481 1.21153e-20)
(0.626152 1.29173 0)
(0.54274 1.37891 4.05802e-20)
(0.560636 1.38741 -3.95169e-20)
(0.454027 1.27551 8.77154e-20)
(0.511412 1.22966 0)
(0.565135 1.1982 0)
(0.659386 2.43033 6.45183e-19)
(0.670717 2.46671 1.35436e-18)
(0.717198 2.47975 -9.32217e-19)
(0.617079 2.45804 -2.16633e-19)
(0.563871 2.54859 3.06385e-19)
(0.512594 2.52179 -8.09985e-19)
(0.975224 2.37768 -6.37646e-19)
(1.01211 2.39247 0)
(0.921156 2.16572 -7.34302e-19)
(1.05273 2.68408 0)
(1.05491 2.67072 0)
(0.61244 2.2785 -1.42792e-19)
(1.04161 3.16463 1.06779e-19)
(0.912778 3.03505 -1.04477e-20)
(0.28272 0.919489 0)
(0.323517 0.781461 -3.35553e-19)
(0.479939 0.735079 -3.42895e-19)
(0.391524 2.02636 0)
(0.468213 2.78712 -3.13438e-20)
(0.424434 2.55124 0)
(0.678625 0.683076 -9.22958e-19)
(0.760755 0.681728 1.267e-18)
(0.780499 0.624136 -1.25572e-18)
(0.660199 0.645297 -1.19225e-19)
(0.716656 0.599004 -4.95812e-19)
(1.00355 2.7683 -8.11894e-20)
(1.04063 2.82448 -2.09707e-19)
(0.64063 2.15462 7.11508e-19)
(0.596106 1.72073 -5.04942e-19)
(0.69923 1.9103 -4.59093e-19)
(0.989148 2.45113 -1.19682e-19)
(0.994133 2.44481 3.46015e-19)
(0.660583 1.85059 3.14039e-20)
(0.450567 1.33814 1.69039e-19)
)
;

boundaryField
{
    wall-4
    {
        type            noSlip;
    }
    velocity-inlet-5
    {
        type            fixedValue;
        value           uniform (1 0 0);
    }
    velocity-inlet-6
    {
        type            fixedValue;
        value           uniform (0 3 0);
    }
    pressure-outlet-7
    {
        type            zeroGradient;
    }
    wall-8
    {
        type            noSlip;
    }
    frontAndBackPlanes
    {
        type            empty;
    }
}


// ************************************************************************* //
