/*--------------------------------*- C++ -*----------------------------------*\
  =========                 |
  \\      /  F ield         | OpenFOAM: The Open Source CFD Toolbox
   \\    /   O peration     | Website:  https://openfoam.org
    \\  /    A nd           | Version:  13
     \\/     M anipulation  |
\*---------------------------------------------------------------------------*/
FoamFile
{
    format      ascii;
    class       volScalarField;
    location    "4.325";
    object      T;
}
// * * * * * * * * * * * * * * * * * * * * * * * * * * * * * * * * * * * * * //

dimensions      [0 0 0 1 0 0 0];

internalField   nonuniform List<scalar> 
1000
(
1.01026e-51
1.26724e-51
1.84548e-51
2.88927e-51
4.65837e-51
7.59146e-51
1.2413e-50
2.03092e-50
3.32144e-50
5.42766e-50
8.86118e-50
1.44524e-49
2.35479e-49
3.83285e-49
6.23231e-49
1.01236e-48
1.64276e-48
2.663e-48
4.31245e-48
6.97642e-48
1.12745e-47
1.82019e-47
2.93556e-47
4.72956e-47
7.61211e-47
1.22389e-46
1.96579e-46
3.15417e-46
5.05575e-46
8.09545e-46
1.29494e-45
2.06924e-45
3.30313e-45
5.26737e-45
8.39101e-45
1.33533e-44
2.12282e-44
3.37124e-44
5.34834e-44
8.47617e-44
1.34194e-43
2.12234e-43
3.35313e-43
5.29219e-43
8.34395e-43
1.31419e-42
2.06774e-42
3.24999e-42
5.10293e-42
8.00398e-42
1.25413e-41
1.96303e-41
3.06946e-41
4.79452e-41
7.4813e-41
1.16616e-40
1.81588e-40
2.82464e-40
4.38922e-40
6.81334e-40
1.05653e-39
1.63662e-39
2.53257e-39
3.91492e-39
6.04548e-39
9.32579e-39
1.4371e-38
2.21225e-38
3.40194e-38
5.22595e-38
8.01954e-38
1.22936e-37
1.88258e-37
2.87988e-37
4.40088e-37
6.71813e-37
1.02448e-36
1.56063e-36
2.37489e-36
3.61018e-36
5.48225e-36
8.31633e-36
1.26023e-35
1.90769e-35
2.88477e-35
4.35769e-35
6.57573e-35
9.9123e-35
1.49261e-34
2.24523e-34
3.37379e-34
5.06426e-34
7.59374e-34
1.13746e-33
1.70199e-33
2.54402e-33
3.79861e-33
5.6659e-33
8.44216e-33
1.25655e-32
1.86828e-32
2.7749e-32
4.1171e-32
6.10205e-32
9.03439e-32
1.33617e-31
1.97407e-31
2.91341e-31
4.29518e-31
6.32555e-31
9.30579e-31
1.36756e-30
2.0076e-30
2.94406e-30
4.31275e-30
6.311e-30
9.22527e-30
1.34709e-29
1.96496e-29
2.86316e-29
4.16748e-29
6.05952e-29
8.80115e-29
1.27696e-28
1.85076e-28
2.67953e-28
3.87528e-28
5.59865e-28
8.07975e-28
1.16479e-27
1.67739e-27
2.41297e-27
3.46742e-27
4.97732e-27
7.13705e-27
1.02229e-26
1.46274e-26
2.0907e-26
2.98504e-26
4.25737e-26
6.0655e-26
8.63227e-26
1.2272e-25
1.74277e-25
2.47228e-25
3.50337e-25
4.95916e-25
7.01232e-25
9.90484e-25
1.39754e-24
1.96977e-24
2.7733e-24
3.9004e-24
5.47965e-24
7.69003e-24
1.07804e-23
1.50963e-23
2.11173e-23
2.95078e-23
4.11875e-23
5.74282e-23
7.9986e-23
1.11284e-22
1.54662e-22
2.14714e-22
2.97762e-22
4.12484e-22
5.70787e-22
7.88989e-22
1.08942e-21
1.50262e-21
2.0703e-21
2.84934e-21
3.91728e-21
5.37964e-21
7.37989e-21
1.01129e-20
1.38429e-20
1.89281e-20
2.58533e-20
3.52737e-20
4.80745e-20
6.54493e-20
8.90067e-20
1.20911e-19
1.64074e-19
2.22401e-19
3.01136e-19
4.073e-19
5.50291e-19
7.42672e-19
1.00122e-18
1.34829e-18
1.81371e-18
2.43711e-18
3.27122e-18
4.38602e-18
5.87429e-18
7.85899e-18
1.05027e-17
1.40205e-17
1.86961e-17
2.49036e-17
3.31359e-17
4.40412e-17
5.84716e-17
7.75452e-17
1.02728e-16
1.3594e-16
1.79693e-16
2.37268e-16
3.12947e-16
4.12312e-16
5.42631e-16
7.13358e-16
9.36773e-16
1.22881e-15
1.61012e-15
2.10744e-15
2.75534e-15
3.59847e-15
4.69445e-15
6.1175e-15
7.96318e-15
1.03543e-14
1.34487e-14
1.74486e-14
2.26133e-14
2.92745e-14
3.78563e-14
4.88999e-14
6.30959e-14
8.13235e-14
1.04702e-13
1.34652e-13
1.72979e-13
2.21972e-13
2.84527e-13
3.64309e-13
4.65949e-13
5.9529e-13
7.59698e-13
9.68444e-13
1.23319e-12
1.56858e-12
1.99299e-12
2.52943e-12
3.20674e-12
4.06093e-12
5.13699e-12
6.49102e-12
8.19291e-12
1.03296e-11
1.30092e-11
1.63659e-11
2.0566e-11
2.58154e-11
3.23691e-11
4.05417e-11
5.07218e-11
6.33882e-11
7.91302e-11
9.86727e-11
1.22906e-10
1.52922e-10
1.90058e-10
2.35952e-10
2.92605e-10
3.6246e-10
4.48497e-10
5.54344e-10
6.84415e-10
8.44074e-10
1.03983e-09
1.27957e-09
1.57285e-09
1.93121e-09
2.36861e-09
2.90188e-09
3.55127e-09
4.3412e-09
5.30098e-09
6.46581e-09
7.8779e-09
9.5878e-09
1.1656e-08
1.41546e-08
1.71699e-08
2.08046e-08
2.5181e-08
3.04443e-08
3.67671e-08
4.43542e-08
5.34479e-08
6.43351e-08
7.73546e-08
9.29065e-08
1.11462e-07
1.33576e-07
1.59901e-07
1.91204e-07
2.28383e-07
2.72491e-07
3.24759e-07
3.86628e-07
4.59777e-07
5.46163e-07
6.48067e-07
7.68138e-07
9.09455e-07
1.07559e-06
1.27067e-06
1.49948e-06
1.76756e-06
2.08127e-06
2.44797e-06
2.87612e-06
3.37545e-06
3.95712e-06
4.63393e-06
5.42057e-06
6.33378e-06
7.39275e-06
8.61931e-06
1.00384e-05
1.16783e-05
1.35712e-05
1.57538e-05
1.82673e-05
2.11587e-05
2.44811e-05
2.82942e-05
3.26655e-05
3.76711e-05
4.33963e-05
4.99372e-05
5.74014e-05
6.59095e-05
7.55963e-05
8.66125e-05
9.91263e-05
0.000113325
0.000129416
0.000147633
0.00016823
0.000191494
0.000217739
0.000247314
0.000280601
0.000318025
0.000360051
0.000407191
0.000460006
0.000519112
0.000585182
0.000658953
0.000741225
0.000832875
0.000934854
0.00104819
0.00117402
0.00131354
0.00146807
0.00163904
0.00182796
0.00203648
0.00226638
0.00251956
0.00279804
0.00310401
0.00343979
0.00380787
0.00421088
0.00465164
0.00513312
0.00565848
0.00623106
0.00685438
0.00753216
0.00826831
0.00906694
0.00993234
0.010869
0.0118817
0.0129753
0.0141548
0.0154256
0.0167932
0.0182633
0.0198416
0.0215342
0.0233474
0.0252873
0.0273606
0.0295738
0.0319337
0.034447
0.0371206
0.0399616
0.0429768
0.0461732
0.049558
0.0531379
0.05692
0.0609109
0.0651174
0.069546
0.074203
0.0790946
0.0842266
0.0896046
0.095234
0.10112
0.107266
0.113678
0.120358
0.127309
0.134536
0.142039
0.149821
0.157881
0.166222
0.174842
0.18374
0.192915
0.202365
0.212086
0.222074
0.232326
0.242835
0.253596
0.264603
0.275847
0.28732
0.299014
0.310918
0.323023
0.335318
0.347791
0.360429
0.373221
0.386152
0.39921
0.412379
0.425645
0.438994
0.452409
0.465876
0.479377
0.492899
0.506423
0.519935
0.533417
0.546854
0.56023
0.573528
0.586732
0.599828
0.6128
0.625632
0.63831
0.65082
0.663148
0.67528
0.687204
0.698906
0.710376
0.721601
0.732571
0.743275
0.753704
0.763848
0.773699
0.783249
0.792491
0.801416
0.81002
0.818296
0.82624
0.833845
0.841108
0.848025
0.854592
0.860806
0.866665
0.872166
0.877306
0.882086
0.886501
0.890553
0.894238
0.897557
0.900509
0.903093
0.905308
0.907155
0.908633
0.909741
0.91048
0.91085
0.91085
0.91048
0.909741
0.908633
0.907155
0.905308
0.903093
0.900509
0.897557
0.894238
0.890553
0.886501
0.882086
0.877306
0.872166
0.866665
0.860806
0.854592
0.848025
0.841108
0.833845
0.82624
0.818296
0.81002
0.801416
0.792491
0.783249
0.773699
0.763848
0.753704
0.743275
0.732571
0.721601
0.710376
0.698906
0.687204
0.67528
0.663148
0.65082
0.63831
0.625632
0.6128
0.599828
0.586732
0.573528
0.56023
0.546854
0.533417
0.519935
0.506423
0.492899
0.479377
0.465876
0.452409
0.438994
0.425645
0.412379
0.39921
0.386152
0.373221
0.360429
0.347791
0.335318
0.323023
0.310918
0.299014
0.28732
0.275847
0.264603
0.253596
0.242835
0.232326
0.222074
0.212086
0.202365
0.192915
0.18374
0.174842
0.166222
0.157881
0.149821
0.142039
0.134536
0.127309
0.120358
0.113678
0.107266
0.10112
0.095234
0.0896046
0.0842266
0.0790946
0.074203
0.069546
0.0651174
0.0609109
0.05692
0.0531379
0.049558
0.0461732
0.0429768
0.0399616
0.0371206
0.034447
0.0319337
0.0295738
0.0273606
0.0252873
0.0233474
0.0215342
0.0198416
0.0182633
0.0167932
0.0154256
0.0141548
0.0129753
0.0118817
0.010869
0.00993234
0.00906694
0.00826831
0.00753216
0.00685438
0.00623106
0.00565848
0.00513312
0.00465164
0.00421088
0.00380787
0.00343979
0.00310401
0.00279804
0.00251956
0.00226638
0.00203648
0.00182796
0.00163904
0.00146807
0.00131354
0.00117402
0.00104819
0.000934854
0.000832875
0.000741225
0.000658953
0.000585182
0.000519112
0.000460006
0.000407191
0.000360051
0.000318025
0.000280601
0.000247314
0.000217739
0.000191494
0.00016823
0.000147633
0.000129416
0.000113325
9.91263e-05
8.66125e-05
7.55963e-05
6.59095e-05
5.74014e-05
4.99372e-05
4.33963e-05
3.76711e-05
3.26655e-05
2.82942e-05
2.44811e-05
2.11587e-05
1.82673e-05
1.57538e-05
1.35712e-05
1.16783e-05
1.00384e-05
8.61931e-06
7.39275e-06
6.33378e-06
5.42057e-06
4.63393e-06
3.95712e-06
3.37545e-06
2.87612e-06
2.44797e-06
2.08127e-06
1.76756e-06
1.49948e-06
1.27067e-06
1.07559e-06
9.09455e-07
7.68138e-07
6.48067e-07
5.46163e-07
4.59777e-07
3.86628e-07
3.24759e-07
2.72491e-07
2.28383e-07
1.91204e-07
1.59901e-07
1.33576e-07
1.11462e-07
9.29065e-08
7.73546e-08
6.43351e-08
5.34479e-08
4.43542e-08
3.67671e-08
3.04443e-08
2.5181e-08
2.08046e-08
1.71699e-08
1.41546e-08
1.1656e-08
9.5878e-09
7.8779e-09
6.46581e-09
5.30098e-09
4.3412e-09
3.55127e-09
2.90188e-09
2.36861e-09
1.93121e-09
1.57285e-09
1.27957e-09
1.03983e-09
8.44074e-10
6.84415e-10
5.54344e-10
4.48497e-10
3.6246e-10
2.92605e-10
2.35952e-10
1.90058e-10
1.52922e-10
1.22906e-10
9.86727e-11
7.91302e-11
6.33882e-11
5.07218e-11
4.05417e-11
3.23691e-11
2.58154e-11
2.0566e-11
1.63659e-11
1.30092e-11
1.03296e-11
8.19291e-12
6.49102e-12
5.13699e-12
4.06093e-12
3.20674e-12
2.52943e-12
1.99299e-12
1.56858e-12
1.23319e-12
9.68444e-13
7.59698e-13
5.9529e-13
4.65949e-13
3.64309e-13
2.84527e-13
2.21972e-13
1.72979e-13
1.34652e-13
1.04702e-13
8.13235e-14
6.30959e-14
4.88999e-14
3.78563e-14
2.92745e-14
2.26133e-14
1.74486e-14
1.34487e-14
1.03543e-14
7.96318e-15
6.1175e-15
4.69445e-15
3.59847e-15
2.75534e-15
2.10744e-15
1.61012e-15
1.22881e-15
9.36773e-16
7.13358e-16
5.42631e-16
4.12312e-16
3.12947e-16
2.37268e-16
1.79693e-16
1.3594e-16
1.02728e-16
7.75452e-17
5.84716e-17
4.40412e-17
3.31359e-17
2.49036e-17
1.86961e-17
1.40205e-17
1.05027e-17
7.85899e-18
5.87429e-18
4.38602e-18
3.27122e-18
2.43711e-18
1.81371e-18
1.34829e-18
1.00122e-18
7.42672e-19
5.50291e-19
4.073e-19
3.01136e-19
2.22401e-19
1.64074e-19
1.20911e-19
8.90067e-20
6.54493e-20
4.80745e-20
3.52737e-20
2.58533e-20
1.89281e-20
1.38429e-20
1.01129e-20
7.37989e-21
5.37964e-21
3.91728e-21
2.84934e-21
2.0703e-21
1.50262e-21
1.08942e-21
7.88989e-22
5.70787e-22
4.12484e-22
2.97762e-22
2.14714e-22
1.54662e-22
1.11284e-22
7.9986e-23
5.74282e-23
4.11875e-23
2.95078e-23
2.11173e-23
1.50963e-23
1.07804e-23
7.69003e-24
5.47965e-24
3.9004e-24
2.7733e-24
1.96977e-24
1.39754e-24
9.90484e-25
7.01232e-25
4.95916e-25
3.50337e-25
2.47228e-25
1.74277e-25
1.2272e-25
8.63227e-26
6.0655e-26
4.25737e-26
2.98504e-26
2.0907e-26
1.46274e-26
1.02229e-26
7.13705e-27
4.97732e-27
3.46742e-27
2.41297e-27
1.67739e-27
1.16479e-27
8.07975e-28
5.59865e-28
3.87528e-28
2.67953e-28
1.85076e-28
1.27696e-28
8.80115e-29
6.05952e-29
4.16748e-29
2.86316e-29
1.96496e-29
1.34709e-29
9.22527e-30
6.311e-30
4.31275e-30
2.94406e-30
2.0076e-30
1.36756e-30
9.30579e-31
6.32555e-31
4.29518e-31
2.91341e-31
1.97407e-31
1.33617e-31
9.03439e-32
6.10205e-32
4.1171e-32
2.7749e-32
1.86828e-32
1.25655e-32
8.44216e-33
5.6659e-33
3.79861e-33
2.54402e-33
1.70199e-33
1.13746e-33
7.59374e-34
5.06426e-34
3.37379e-34
2.24523e-34
1.49261e-34
9.9123e-35
6.57573e-35
4.35769e-35
2.88477e-35
1.90769e-35
1.26023e-35
8.31633e-36
5.48225e-36
3.61018e-36
2.37489e-36
1.56063e-36
1.02448e-36
6.71813e-37
4.40088e-37
2.87988e-37
1.88258e-37
1.22936e-37
8.01954e-38
5.22595e-38
3.40194e-38
2.21225e-38
1.4371e-38
9.32579e-39
6.04548e-39
3.91492e-39
2.53257e-39
1.63662e-39
1.05653e-39
6.81334e-40
4.38922e-40
2.82464e-40
1.81588e-40
1.16616e-40
7.4813e-41
4.79452e-41
3.06946e-41
1.96303e-41
1.25413e-41
8.00398e-42
5.10293e-42
3.24999e-42
2.06774e-42
1.31419e-42
8.34395e-43
5.29219e-43
3.35313e-43
2.12234e-43
1.34194e-43
8.47617e-44
5.34834e-44
3.37124e-44
2.12282e-44
1.33533e-44
8.39101e-45
5.26737e-45
3.30313e-45
2.06924e-45
1.29494e-45
8.09545e-46
5.05575e-46
3.15417e-46
1.96579e-46
1.22389e-46
7.61211e-47
4.72956e-47
2.93556e-47
1.82019e-47
1.12745e-47
6.97642e-48
4.31245e-48
2.663e-48
1.64276e-48
1.01236e-48
6.23231e-49
3.83285e-49
2.35479e-49
1.44524e-49
8.86118e-50
5.42766e-50
3.32144e-50
2.03092e-50
1.2413e-50
7.59146e-51
4.65837e-51
2.88927e-51
1.84548e-51
1.26724e-51
1.01026e-51
)
;

boundaryField
{
    sides
    {
        type            zeroGradient;
    }
    empty
    {
        type            empty;
    }
}


// ************************************************************************* //
