/*--------------------------------*- C++ -*----------------------------------*\
  =========                 |
  \\      /  F ield         | OpenFOAM: The Open Source CFD Toolbox
   \\    /   O peration     | Website:  https://openfoam.org
    \\  /    A nd           | Version:  13
     \\/     M anipulation  |
\*---------------------------------------------------------------------------*/
FoamFile
{
    format      ascii;
    class       volVectorField;
    location    "48";
    object      U;
}
// * * * * * * * * * * * * * * * * * * * * * * * * * * * * * * * * * * * * * //

dimensions      [0 1 -1 0 0 0 0];

internalField   nonuniform List<vector> 
918
(
(0.985163 -0.0005037 0)
(0.00501349 2.96625 0)
(0.00869719 0.865918 0)
(0.979703 0.00214759 0)
(-0.0143752 2.05951 3.10759e-20)
(-0.00704465 2.94879 -2.50951e-18)
(0.812412 1.15039 4.35173e-19)
(0.223186 0.109858 -1.56676e-20)
(0.999907 -0.000282693 0)
(0.0622182 0.786768 0)
(0.0136035 0.593619 0)
(0.734708 -0.0172766 0)
(0.0110903 2.93039 0)
(0.00252379 2.79499 0)
(-0.0176038 3.15324 7.7146e-19)
(-0.0185933 1.9099 -8.3916e-22)
(0.295903 0.0339249 1.03455e-18)
(0.187721 1.15951 3.08218e-19)
(0.962754 0.00501763 0)
(-0.00935147 0.525585 0)
(0.0322044 0.146863 -7.39791e-19)
(1.00198 -0.00497889 0)
(1.00022 -0.00978985 0)
(0.975729 -0.00643999 0)
(0.583123 -0.0381486 0)
(0.0153288 2.64074 0)
(-0.0149075 2.91002 9.26257e-19)
(0.00983287 0.927618 0)
(-0.00651606 1.17062 0)
(0.0100594 0.906414 0)
(-0.0163783 2.6086 0)
(-0.00356296 2.11199 -2.48161e-20)
(-0.00948853 1.88843 0)
(-0.0206143 2.9876 -9.03248e-23)
(-0.0166892 3.00529 1.95041e-18)
(0.00210038 3.00018 0)
(0.870972 -0.0095766 0)
(0.404998 0.937942 1.8423e-19)
(0.792717 1.16701 -4.90708e-19)
(0.941464 1.00814 5.32423e-19)
(0.664464 1.25872 -1.00395e-19)
(0.665595 1.24067 5.80594e-19)
(0.259707 0.179719 1.52851e-20)
(0.236732 0.0833392 0)
(1.14146 0.553249 0)
(0.227691 0.171361 6.97495e-20)
(0.194753 0.108621 -7.23773e-20)
(0.919825 -0.00744373 0)
(1.00026 0.000156616 0)
(0.99991 0.000336288 0)
(1.00363 -0.00776778 0)
(1.00096 -0.000920822 0)
(1.00017 3.22233e-05 0)
(0.0761235 1.81681 -7.99658e-19)
(0.02982 0.977951 0)
(0.0951562 0.857083 0)
(0.0132794 0.931617 0)
(0.0363633 0.717424 0)
(0.0110014 2.00351 0)
(0.000792915 0.831076 0)
(0.00850038 0.605905 0)
(0.000408577 0.819671 0)
(0.0122328 0.582867 0)
(0.839792 -0.01586 0)
(0.844459 0.0301027 0)
(0.767615 -0.00622573 0)
(0.812821 0.039804 0)
(0.704834 -0.0196313 0)
(0.0146883 3.0004 9.30811e-19)
(0.0114988 3.008 0)
(0.00611794 3.00277 0)
(0.0135323 2.99734 1.05691e-23)
(0.00797733 2.95848 -1.38341e-18)
(0.0144905 2.98207 0)
(0.0108422 2.9036 0)
(0.0245082 2.93089 2.12971e-24)
(0.00461445 2.82484 0)
(0.030237 2.9164 0)
(-0.00517801 2.74501 0)
(0.307291 3.54875 0)
(-0.131753 3.62993 0)
(0.139062 3.24356 -7.17924e-19)
(-0.0129215 2.97996 0)
(-0.0186233 1.99068 0)
(-0.00763151 2.16842 8.27658e-22)
(-0.0106796 1.91703 -1.05004e-20)
(0.396804 0.144153 -3.58388e-19)
(0.310109 0.0193802 -3.4694e-19)
(0.36881 0.15276 -1.07718e-18)
(0.274369 0.0413089 -7.0751e-19)
(0.225419 0.969014 0)
(0.26899 1.30539 -3.62478e-19)
(0.362099 1.23677 6.04119e-19)
(0.987464 0.00855695 0)
(0.941911 0.00583475 0)
(1.0003 0.00057859 0)
(1.00286 0.00930652 0)
(1.00302 0.00846272 -2.77473e-18)
(0.991912 0.00969916 2.09538e-18)
(-0.00441508 0.804801 0)
(-0.00424884 0.531941 0)
(-0.0321622 0.987948 0)
(-0.0188325 0.830783 0)
(0.00185386 0.518829 0)
(0.0555409 0.149541 2.28545e-19)
(0.119074 0.12407 0)
(0.993544 -0.00837821 0)
(0.954435 -0.00652392 0)
(0.7583 0.0466599 0)
(0.693717 0.0572528 0)
(0.664261 -0.0316557 0)
(0.965426 -0.00797267 0)
(0.608539 0.0765876 0)
(0.444419 -0.0110804 1.54863e-18)
(-0.0372356 2.86234 6.92411e-19)
(0.0415763 2.90944 0)
(0.0537583 2.88571 0)
(-0.00446192 2.6999 0)
(-0.0132628 2.98524 8.7798e-19)
(-0.0178999 2.89514 0)
(-0.01536 2.9881 -2.72035e-18)
(-0.0133489 2.9252 9.30799e-19)
(-0.00974708 1.34248 0)
(0.0101266 1.37316 0)
(-0.00886094 2.13414 3.30393e-22)
(-0.00640286 2.09279 0)
(-0.0203972 1.90113 0)
(0.93824 -0.00755468 0)
(0.856849 -0.00984734 0)
(0.863341 0.00604225 0)
(0.949367 -0.00793185 0)
(0.883811 -0.00814471 0)
(0.516946 1.13134 -2.32507e-19)
(0.566152 1.18243 0)
(0.369205 0.88282 3.42662e-20)
(0.311413 0.74173 0)
(0.902171 1.04745 -1.46124e-19)
(1.01671 0.855152 2.93099e-19)
(0.354121 1.35478 0)
(0.52028 1.31894 0)
(0.541761 1.26753 0)
(0.117988 0.183896 -3.03236e-19)
(0.290927 0.171326 0)
(0.259127 0.0804319 1.99837e-19)
(0.988876 0.910774 0)
(1.06192 0.766073 0)
(1.08608 0.707268 -2.27225e-19)
(1.12131 0.612607 0)
(1.1731 0.399554 5.59215e-20)
(0.957617 -0.00878382 0)
(0.962434 -0.0100869 0)
(0.901605 -0.00794993 0)
(0.984182 -0.00916532 0)
(0.974669 -0.00936644 0)
(0.93709 -0.00636658 0)
(1.00019 0.00233579 0)
(1.0009 0.00141054 0)
(0.99991 0.000852325 0)
(0.0349451 2.06861 4.41999e-19)
(0.120062 1.75967 0)
(0.0168672 2.18325 6.86009e-19)
(0.048852 1.87062 -5.77296e-19)
(0.102313 1.16759 -2.52212e-19)
(0.0449198 1.0538 0)
(0.143102 1.00923 0)
(0.00806322 0.890692 0)
(0.0143677 0.667254 0)
(-0.00115209 2.23595 -1.08633e-21)
(0.0200614 2.00769 0)
(-0.00145156 2.23858 -4.63873e-20)
(0.0120302 2.01352 7.9527e-20)
(0.00432709 0.862129 0)
(0.00246059 0.843671 0)
(0.00774645 0.632332 0)
(0.00632262 0.807978 0)
(0.00620485 0.568328 0)
(0.93674 0.00943235 0)
(0.847759 -0.0150578 0)
(0.926395 0.000105719 0)
(0.841205 -0.0129457 0)
(0.812013 0.000133103 0)
(0.900514 0.0207404 0)
(0.875915 0.0253269 0)
(0.788874 -0.00261742 0)
(0.00578455 3.06492 -8.70174e-21)
(0.01669 3.05775 0)
(0.0147175 2.96905 0)
(0.00868886 2.87621 0)
(0.924033 3.9639 0)
(1.23835 3.29702 9.29696e-19)
(0.0698422 3.07203 0)
(-0.028562 2.90384 0)
(-0.00389932 1.39056 0)
(-0.0188684 1.69745 0)
(-0.00813319 1.52874 0)
(-0.0276086 2.56678 -9.34282e-21)
(-0.0101354 2.25395 0)
(-0.0171886 2.40303 0)
(0.00429113 1.94227 1.76144e-21)
(-0.00394169 2.23747 7.44086e-21)
(-0.00567143 2.20071 1.05551e-20)
(-0.00353048 1.93045 0)
(0.435687 0.126218 5.43904e-19)
(0.353156 0.0108709 -5.33929e-19)
(0.260037 1.5808 0)
(0.273671 0.742928 -3.16898e-19)
(0.177081 1.66678 -1.05995e-18)
(0.226738 1.20891 1.06243e-18)
(0.902148 0.00643746 0)
(0.967464 0.011084 0)
(0.97459 0.0107868 0)
(0.923388 0.00644506 0)
(-0.00241979 0.806453 0)
(-0.000406555 0.80329 0)
(0.00669458 0.543945 0)
(0.194519 0.163144 6.4381e-19)
(0.162016 0.149038 -7.61072e-19)
(0.161035 0.114072 0)
(1.09086 0.0841212 2.8204e-20)
(1.07316 0.0382148 0)
(1.00753 0.0389839 0)
(0.903168 -0.00650792 0)
(0.477915 0.107455 0)
(0.529004 0.0876293 -2.47626e-18)
(0.395053 0.00662072 9.27252e-19)
(0.00894937 2.98123 7.40687e-19)
(-0.032301 2.86595 4.78018e-20)
(0.00360722 3.05024 -1.84058e-20)
(0.0201942 3.04337 6.54429e-19)
(-0.0150148 2.99658 3.05501e-20)
(-0.0129344 2.94946 -1.22928e-22)
(-0.0172543 3.01195 -5.64845e-19)
(0.0148331 3.02389 4.08713e-19)
(0.00735339 3.03678 -6.4769e-19)
(0.933192 -0.00150607 0)
(0.938938 -0.003447 0)
(0.845048 -0.00938367 0)
(0.95664 0.0118258 0)
(0.942878 0.0131068 0)
(0.881694 0.0059805 0)
(0.917584 0.0167613 0)
(0.926256 0.014824 0)
(0.838565 0.00309946 0)
(0.719781 1.40916 3.70233e-20)
(0.75311 1.51798 0)
(0.186474 0.324407 7.20014e-20)
(0.222956 0.664531 5.81308e-19)
(0.261877 0.722156 -3.3854e-19)
(0.265941 0.532556 6.72961e-19)
(0.339886 0.799513 1.59442e-18)
(0.136912 0.225544 3.75034e-19)
(0.341598 0.165618 7.50363e-19)
(0.317924 0.171093 1.95864e-19)
(0.26671 0.0609335 3.72632e-19)
(1.1623 0.457086 4.52859e-20)
(1.17987 0.253017 4.03166e-20)
(0.0091925 2.23037 2.67971e-19)
(0.0432327 1.93761 0)
(0.967071 0.0286622 0)
(0.940871 0.0134232 0)
(0.865923 -0.0184297 0)
(0.0111904 3.07419 0)
(0.0196669 2.94414 1.2014e-18)
(0.0164358 2.95627 0)
(0.00641349 2.85058 -1.19157e-18)
(0.00636755 3.0915 2.91773e-19)
(0.00719696 3.08262 0)
(0.786113 1.82011 -1.59124e-19)
(1.24626 2.49692 4.0513e-19)
(0.768163 1.95957 -1.23421e-18)
(0.019833 2.98074 -6.4073e-19)
(0.0356227 3.00025 0)
(-0.0342656 2.87723 0)
(-0.00317555 2.21848 -1.31511e-20)
(-0.00298185 2.24089 -2.13064e-20)
(0.00609781 1.9756 -7.73706e-21)
(0.276998 1.38853 1.03078e-18)
(0.23237 0.532101 -7.07034e-19)
(0.063411 1.99348 7.77002e-19)
(0.135874 1.88127 -9.2348e-19)
(0.179959 1.50117 9.30016e-20)
(0.00378806 3.11797 -1.76727e-18)
(0.0165645 3.1181 1.89086e-18)
(-0.0091473 2.98073 8.09915e-19)
(-0.0033429 2.97724 -7.67828e-19)
(-0.0213879 2.88137 -8.24875e-19)
(0.00866798 3.09871 -2.16978e-18)
(0.00188594 3.10689 2.11853e-18)
(0.277144 0.689766 0)
(0.243152 0.679565 -1.20123e-18)
(0.0966321 0.225274 5.32931e-19)
(0.353571 0.925278 1.1134e-18)
(0.192103 0.270331 -1.71663e-18)
(1.1744 0.172044 6.88246e-20)
(1.18045 0.306885 0)
(1.16288 0.120608 -1.39007e-20)
(0.000527093 2.24731 -1.73464e-21)
(0.0039205 2.23977 0)
(0.0283111 1.97347 0)
(0.340132 1.29719 -3.70724e-19)
(0.371354 1.13666 -8.02696e-19)
(0.206244 0.369684 1.42966e-18)
(1.00587 -0.0108501 0)
(1.00766 -0.00764532 5.12021e-19)
(-0.00826285 1.32013 0)
(-0.0248415 1.30719 0)
(1.00222 0.00350571 1.80678e-21)
(1.00367 0.00945532 1.04515e-18)
(-0.018761 2.54994 1.18374e-20)
(-0.0238305 2.59225 0)
(0.035371 3.17783 4.27389e-19)
(0.39358 3.48838 0)
(1.16644 0.653092 -6.5163e-20)
(1.01289 0.013102 -2.14628e-21)
(1.02128 -0.0103502 0)
(1.0017 0.000119413 7.53705e-23)
(0.103067 1.35987 0)
(0.144158 2.57519 0)
(0.0225711 1.30203 0)
(0.000164379 2.62351 4.55668e-20)
(-0.0201329 2.5806 1.8323e-20)
(1.00054 0.0291576 2.50115e-21)
(1.06226 0.00402383 0)
(1.09584 0.023851 0)
(-0.0206599 1.73612 0)
(-0.017215 2.58821 0)
(0.00263012 1.30275 0)
(0.298206 1.47245 -1.61014e-19)
(1.01128 -0.00964134 0)
(1.00939 -0.014921 0)
(1.00237 0.000736262 6.54308e-19)
(1.00547 -0.00481781 -7.69005e-19)
(1.00118 -0.000993513 0)
(-0.00311913 1.45772 0)
(-0.00239707 1.36614 0)
(0.001128 1.41367 0)
(0.000383924 1.29055 0)
(-0.00833012 1.26882 0)
(-0.000839335 1.25113 0)
(1.03475 -0.00626538 0)
(1.02021 0.0156671 -8.82593e-22)
(0.809464 1.26459 2.49187e-19)
(1.00224 0.000309005 -6.51802e-19)
(1.00407 0.00524851 7.6297e-19)
(1.00117 0.002065 0)
(1.01278 0.0103187 6.4864e-19)
(1.008 0.00829487 -7.85814e-19)
(1.00858 0.0146859 0)
(-0.0231136 2.61794 0)
(-0.0248566 2.59902 -1.29694e-20)
(-0.0225773 2.61228 9.16214e-21)
(1.23123 0.262522 6.0838e-19)
(1.15792 0.0845892 0)
(0.0420871 3.07762 -9.44914e-19)
(0.0650318 2.85503 -6.87533e-20)
(0.140796 3.19239 1.44656e-18)
(0.136101 3.22083 -2.09781e-19)
(0.134682 3.23259 0)
(0.0194315 3.13729 2.44482e-19)
(0.0755694 3.16032 9.32123e-19)
(0.0684397 3.18568 -4.60674e-19)
(0.0219208 3.12995 0)
(0.616252 0.278839 0)
(0.545266 0.322308 0)
(1.1358 0.688811 1.54766e-19)
(1.1313 0.809616 -1.46266e-19)
(1.19314 0.577 0)
(1.22158 0.512644 0)
(1.01611 0.0133306 -1.20918e-18)
(1.01499 0.0142618 1.51779e-18)
(1.02527 -0.00989575 0)
(1.02333 -0.0119127 0)
(1.00643 0.00258693 0)
(1.01041 0.00370285 0)
(1.00457 0.00184578 0)
(1.0098 0.0062032 0)
(1.00783 0.00594987 0)
(1.00451 0.0046727 0)
(0.0916357 1.35715 0)
(0.085715 1.32722 0)
(0.122594 1.39317 0)
(0.137454 1.40346 0)
(0.144707 2.59997 0)
(0.185202 2.66825 -4.3504e-19)
(0.100258 2.65586 0)
(0.0847975 2.65811 2.09481e-19)
(0.0384741 2.67896 -1.72023e-19)
(0.0184829 1.31454 0)
(0.0209007 1.24748 0)
(0.0184255 1.32715 0)
(0.0326564 1.26861 0)
(0.00240821 1.98122 -1.35153e-20)
(-0.0188239 2.60858 -1.02855e-21)
(-0.00795935 2.66484 3.54813e-20)
(-0.0172755 2.68434 0)
(-0.0213946 2.61489 -4.14227e-20)
(-0.0212982 2.60985 -9.1192e-21)
(0.0117575 1.97996 1.26942e-20)
(-0.00567574 2.39501 1.38007e-21)
(-0.012445 2.41734 -4.02443e-20)
(1.01065 0.0370489 1.23364e-18)
(1.00594 0.0161867 -1.52381e-18)
(1.00183 0.0441778 -1.23464e-18)
(0.978666 0.0220873 1.57527e-18)
(1.06348 0.00781718 0)
(1.04878 -0.0085589 0)
(1.09291 0.0339347 0)
(1.07331 0.0121682 0)
(1.07109 -8.72843e-05 0)
(1.13839 0.0811524 0)
(1.10978 0.0432903 0)
(1.11288 0.0312776 0)
(-0.0218599 2.43981 2.73873e-22)
(-0.0066846 2.01339 0)
(-0.0116695 2.22103 0)
(-0.0188153 2.60857 -3.84067e-21)
(-0.0165224 2.6171 -1.30777e-22)
(0.00949004 1.56552 -2.22656e-20)
(0.00289498 1.495 2.26561e-20)
(-0.00525532 1.38513 0)
(-0.00771213 1.39112 0)
(-0.00880885 1.38523 0)
(0.00472406 1.30482 0)
(0.0142514 1.23741 0)
(0.378136 1.48865 2.60402e-19)
(0.41875 1.49123 1.40464e-19)
(0.597989 2.45043 -2.41098e-19)
(0.400688 2.54538 7.11439e-19)
(0.351132 2.06461 7.32196e-20)
(1.021 -0.00817854 0)
(1.01547 -0.0097824 0)
(1.01489 -0.0155105 0)
(1.00744 -0.00114429 0)
(1.00494 -0.00093302 0)
(1.00776 -0.00474035 0)
(1.00925 -0.00368575 0)
(1.01418 -0.00444674 0)
(1.02095 0.0161635 1.18403e-18)
(1.01789 0.0156504 -1.5163e-18)
(1.02133 0.0181443 -1.19289e-18)
(1.01915 0.0168619 1.49046e-18)
(0.772131 1.31499 0)
(0.708067 1.36596 2.33927e-19)
(0.88589 1.21305 8.70025e-20)
(0.931332 1.15955 -1.1574e-19)
(1.15785 2.60614 2.90804e-19)
(0.789988 0.11657 6.04301e-19)
(1.1608 0.106423 0)
(1.20791 0.190832 -4.88976e-19)
(1.1936 0.15261 -2.07252e-20)
(1.00515 0.15229 0)
(0.13311 2.95944 5.54386e-19)
(0.110108 2.86538 -1.20009e-18)
(0.0196423 2.37516 8.06151e-19)
(0.0903407 -0.0698392 -3.56774e-19)
(0.338587 3.41794 -2.0699e-19)
(0.193407 3.3111 0)
(0.236461 3.35252 2.69572e-19)
(0.242824 3.03264 -1.83413e-18)
(0.337206 3.1916 0)
(0.00564598 3.12112 4.74697e-20)
(0.0161594 3.12972 -5.58433e-19)
(0.0141372 3.12579 8.21898e-19)
(0.0347594 3.14001 0)
(0.0331824 3.15036 0)
(1.21517 2.60458 0)
(0.544299 0.822418 -5.3623e-19)
(1.05631 0.982352 2.69039e-21)
(0.990972 1.06643 0)
(0.844507 0.968023 -1.15456e-19)
(1.0816 0.882405 2.84516e-20)
(0.353151 0.369088 -9.18083e-19)
(0.671974 0.312275 -2.02099e-20)
(0.617305 0.21944 4.26064e-19)
(0.56891 0.356515 3.14186e-20)
(0.476499 0.317745 -1.26426e-18)
(0.639651 0.322362 0)
(0.700418 0.415274 7.23652e-19)
(0.709152 0.418044 0)
(0.602768 0.348018 0)
(0.554299 0.264546 0)
(0.810137 0.614612 4.26973e-19)
(1.23124 0.284682 -5.13922e-19)
(1.22957 0.422633 0)
(1.23969 0.362621 0)
(0.725113 0.189398 6.32496e-19)
(0.856753 0.539706 -3.92436e-19)
(0.753671 0.510078 6.95899e-19)
(0.951757 0.433189 -7.64588e-19)
(1.01952 0.014798 8.13191e-19)
(1.01774 0.014271 -8.18206e-19)
(1.01592 0.0154756 0)
(1.0362 -0.00580722 0)
(1.02972 -0.00849931 -7.66625e-19)
(1.02777 -0.0120407 7.59034e-19)
(1.02496 0.0101026 0)
(1.02354 0.0137691 0)
(1.01141 0.0040964 0)
(1.01425 0.00906249 0)
(1.01514 0.00403968 0)
(1.01424 0.00280746 0)
(0.0628888 1.34246 0)
(0.0650567 1.29733 0)
(0.143455 1.36799 -3.71716e-21)
(0.271476 1.46933 8.28906e-20)
(0.164589 1.4405 1.72293e-19)
(0.196578 1.44749 -2.82262e-19)
(0.164609 1.39292 0)
(0.130602 1.5951 -8.29212e-20)
(0.114521 1.56898 0)
(0.348756 2.01677 -1.06447e-19)
(0.344732 2.34926 6.27508e-19)
(0.187546 1.45279 7.23031e-20)
(0.261425 1.38302 1.91916e-20)
(0.196515 1.3724 -1.55347e-20)
(0.272118 1.32589 -1.09695e-19)
(0.239894 1.57792 0)
(0.262387 1.61723 1.17715e-19)
(0.0295273 2.26487 -3.61697e-20)
(0.0426581 2.66861 0)
(0.0645621 2.402 1.49004e-19)
(0.0607648 2.42234 0)
(0.0689301 2.67143 -2.32032e-19)
(0.0488125 2.69881 0)
(0.0274029 1.41771 1.08876e-20)
(0.0337422 1.4701 0)
(0.0284355 1.38736 0)
(0.0240204 1.39 -1.22843e-20)
(0.000568246 2.65128 -1.69358e-20)
(0.0291817 2.69689 1.95927e-19)
(0.0106538 2.72118 1.38317e-21)
(0.00358124 1.8283 1.25919e-20)
(-0.00300959 1.68055 4.62822e-21)
(0.0126893 1.29308 0)
(0.0179725 1.21957 0)
(0.0456128 1.57819 -1.46881e-21)
(0.0285063 1.45277 -7.68824e-21)
(0.035837 1.51734 9.48699e-21)
(0.0382781 1.60212 0)
(-0.0252479 2.27005 6.49016e-20)
(-0.0261492 2.55379 -2.68043e-20)
(-0.0131173 2.44816 -1.45753e-23)
(-0.000397437 1.84454 -1.52622e-20)
(-0.0226857 2.499 -4.9276e-21)
(-0.0187999 2.44129 2.79952e-20)
(1.01923 0.0209929 -8.08226e-19)
(1.01526 0.0267496 8.13125e-19)
(1.01429 0.0161892 0)
(1.01229 0.0708809 1.14193e-18)
(0.989797 0.0595951 -1.28485e-18)
(0.947197 0.0443077 1.4391e-18)
(1.01361 0.109061 -1.52228e-19)
(1.04252 -0.00584981 0)
(1.05073 -0.00161957 7.31623e-19)
(1.03881 -0.00996214 -7.33149e-19)
(1.07058 0.0415585 -4.35696e-20)
(1.06418 0.0230585 3.75545e-19)
(1.06319 0.0551964 0)
(1.05324 0.048622 -1.34987e-19)
(1.03242 0.0417301 0)
(1.02574 0.038197 0)
(1.02782 0.0130954 0)
(1.0241 0.0158581 0)
(1.03994 0.031816 2.77948e-19)
(1.03883 0.026467 -6.14159e-19)
(1.05073 0.0333696 -2.9473e-19)
(1.04806 0.033391 -3.24486e-19)
(1.07042 0.0629361 6.33986e-19)
(1.09554 0.0511194 0)
(1.10368 0.094563 0)
(-0.0194858 2.27583 4.20049e-20)
(-0.0166595 2.0168 -2.92182e-22)
(-0.0129955 2.02346 0)
(-0.0240648 2.45014 -4.18021e-20)
(-0.0187794 2.40734 3.99779e-23)
(-0.0298027 2.48034 3.79544e-21)
(-0.0189129 2.62359 7.55668e-21)
(-0.0198243 2.56569 -1.199e-21)
(-0.0181332 2.5154 2.85047e-21)
(-0.0141331 2.61912 3.38348e-22)
(-0.0190509 2.62025 1.00753e-21)
(0.00194806 1.48128 -3.19311e-22)
(0.0106137 1.61464 -1.76848e-20)
(0.363764 1.43469 -1.08993e-19)
(0.364913 1.37219 4.08848e-20)
(0.650239 1.41595 -2.26367e-19)
(0.518264 1.48331 -1.38033e-19)
(0.574922 1.44994 0)
(0.593731 2.4273 2.08766e-19)
(0.6614 2.42074 3.39499e-19)
(0.41095 2.51777 8.60951e-20)
(0.402744 2.54389 -6.23961e-19)
(0.511263 2.4873 6.18528e-19)
(0.553278 2.46422 0)
(0.489161 2.52024 -5.6485e-19)
(0.2478 2.59313 1.16934e-18)
(0.354069 2.56644 -7.95938e-20)
(0.283948 2.65463 -1.61171e-18)
(0.946139 2.3809 7.3097e-19)
(0.837645 2.38539 0)
(1.01104 0.000463269 2.65448e-20)
(1.01528 -0.00545297 -2.15405e-20)
(1.01763 -0.00358456 -3.93463e-19)
(1.01498 -0.000929499 3.95534e-19)
(1.01241 0.00114218 0)
(0.639342 1.2875 0)
(0.66459 1.18447 0)
(0.775664 1.09646 0)
(0.657221 1.14803 0)
(1.18721 2.62022 5.91055e-20)
(1.07603 2.36703 0)
(0.838686 2.17857 3.85333e-21)
(0.826087 2.4436 0)
(0.923272 2.53528 -4.25226e-19)
(0.958896 2.49099 2.82957e-19)
(0.810711 0.174958 0)
(0.768564 0.148969 1.64162e-19)
(0.917888 0.146188 9.56401e-19)
(0.833134 0.148238 -3.57836e-19)
(0.796076 0.0842247 -1.10364e-18)
(1.07888 0.235206 -9.14985e-19)
(0.993841 0.293323 -1.6096e-20)
(0.92872 0.29515 8.78244e-19)
(1.00617 0.224446 7.34266e-19)
(0.951367 0.191321 -1.26919e-18)
(0.915983 0.193294 1.58616e-19)
(0.954985 0.257169 -3.37875e-19)
(0.930712 0.21893 0)
(0.992588 0.185986 6.26297e-19)
(1.04634 0.188178 0)
(1.04217 0.214909 0)
(1.105 0.118011 2.94853e-19)
(1.07026 0.176051 -1.44365e-20)
(1.07339 0.236357 -1.60717e-19)
(1.10191 0.202619 0)
(1.02284 0.0458751 6.27041e-19)
(1.03993 0.0586407 7.81948e-19)
(1.0338 0.0443585 -6.22009e-19)
(1.04277 0.0653377 -5.24018e-19)
(1.01891 0.0731219 -8.02937e-19)
(0.988104 0.159069 0)
(0.998705 0.105461 0)
(0.965266 0.0672573 -5.12848e-19)
(0.911413 0.0905367 2.01442e-19)
(1.03894 0.104557 7.24762e-19)
(1.06875 0.120909 -8.50724e-19)
(1.07543 0.154012 7.5998e-19)
(1.02881 0.144125 0)
(1.07461 0.109325 0)
(1.05476 0.0904424 -3.48066e-19)
(1.04417 0.0952056 -5.93117e-19)
(0.583253 1.07348 1.41534e-19)
(0.611093 1.39978 -4.30476e-20)
(1.15735 2.73574 -2.29374e-19)
(1.22351 3.07742 1.97573e-21)
(1.24946 2.71899 -1.33338e-19)
(1.27886 2.70259 -2.89432e-20)
(1.20702 2.34357 -1.05592e-20)
(1.21097 2.98152 -9.45519e-20)
(1.23065 2.9469 2.36521e-19)
(1.21421 3.23078 -1.43086e-19)
(1.37457 2.96259 1.9782e-19)
(1.36445 2.88086 0)
(0.553092 0.830267 -5.04598e-20)
(0.127813 1.24329 5.78336e-19)
(0.54053 0.414486 5.94398e-19)
(0.379626 0.163013 6.54026e-19)
(0.509494 0.354663 7.14342e-19)
(0.544546 0.456222 -1.15082e-18)
(0.546886 0.456552 9.4052e-19)
(0.487674 0.368855 -3.59969e-19)
(0.395093 0.300605 8.15803e-19)
(0.731686 0.256329 -3.63023e-19)
(0.692158 0.279704 0)
(0.66296 0.198108 8.25696e-21)
(0.7349 0.505324 3.80616e-19)
(0.706984 0.47369 -1.38763e-18)
(0.614828 0.455693 1.39583e-20)
(0.620784 0.444329 0)
(0.683276 0.720922 4.04931e-19)
(0.84503 0.772381 4.09334e-19)
(0.768144 0.85493 -4.78578e-19)
(0.890723 0.808716 -1.61695e-19)
(0.920612 0.852261 -3.99343e-20)
(0.928092 0.852019 4.08962e-20)
(0.855795 0.648287 -7.07562e-19)
(0.938031 0.703828 1.50216e-19)
(0.995492 0.718768 0)
(0.986552 0.69594 -2.04668e-19)
(1.02338 0.333193 2.20349e-19)
(1.14389 0.299814 3.00887e-19)
(1.06564 0.27235 3.74324e-19)
(1.00982 0.364943 -4.44116e-19)
(1.05963 0.430699 0)
(1.11811 0.415739 0)
(0.918525 0.366803 4.99207e-21)
(0.841553 0.298816 0)
(0.881593 0.294412 4.13892e-19)
(0.909328 0.302035 -5.62132e-21)
(0.945772 0.43582 2.13096e-18)
(0.904898 0.493246 5.50473e-19)
(0.907803 0.458622 -5.85681e-19)
(0.827903 0.443086 6.27258e-19)
(0.810706 0.43569 3.76659e-19)
(0.779919 0.417044 -3.70313e-19)
(1.02727 -0.000378502 6.55475e-19)
(1.02 -6.86251e-05 0)
(1.0185 0.000866354 4.27338e-19)
(1.0217 -0.00170295 -9.68042e-19)
(1.0223 0.00431074 4.70208e-19)
(1.02037 0.0112744 -9.84791e-19)
(1.02131 0.0106603 0)
(1.02061 0.0109065 -2.05207e-19)
(1.01597 0.00771899 5.14813e-19)
(1.01669 0.0104829 -2.56868e-19)
(1.01739 0.00983101 1.8918e-19)
(0.0279477 1.31826 0)
(0.0335405 1.36055 0)
(0.0438965 1.32032 0)
(0.0448197 1.27603 0)
(0.0705657 1.38305 -1.79067e-20)
(0.0777865 1.35317 1.25312e-20)
(0.110769 1.51785 -2.07022e-20)
(0.0935875 1.36458 1.12679e-21)
(0.0330662 1.45749 -1.26071e-20)
(0.0369835 1.45025 9.91205e-21)
(0.0620953 1.36763 -7.93755e-21)
(0.0542304 1.3695 2.18746e-20)
(0.0475253 1.34534 3.06932e-21)
(0.0384276 1.36883 -2.16439e-22)
(0.105895 2.37319 -1.64641e-19)
(0.0949211 2.41998 0)
(0.169428 2.04838 1.12387e-19)
(0.108599 1.70889 4.51758e-20)
(0.230594 2.044 -9.24265e-20)
(0.203407 2.43721 0)
(0.264318 2.38787 -6.10951e-19)
(0.303208 2.38575 4.32859e-19)
(0.229559 2.00429 -2.5708e-19)
(0.152953 2.16489 1.72122e-19)
(0.14237 2.27607 0)
(0.0165339 1.87651 -2.2621e-20)
(-0.00146328 2.39445 -6.95784e-20)
(0.00440175 2.14934 0)
(0.0101023 2.45735 -1.346e-20)
(0.0258086 2.3023 2.2786e-20)
(0.0166806 1.39903 -2.84929e-21)
(0.016918 1.38535 5.15522e-20)
(0.0176045 1.39004 -1.89298e-20)
(0.0210441 1.39033 -1.22159e-20)
(0.0267232 1.42157 0)
(0.0149677 1.37219 0)
(0.00878396 1.29165 -2.38556e-20)
(0.0127646 1.36272 6.11354e-21)
(0.0149334 1.3634 0)
(0.0115043 1.28303 -1.71625e-20)
(0.019962 1.21611 3.62053e-20)
(1.04053 0.0115051 0)
(1.04652 0.00778384 -6.86491e-20)
(1.03854 0.0214525 -4.95143e-19)
(1.04816 0.0203219 0)
(1.05205 0.0201783 0)
(1.03626 0.0116574 -6.70603e-21)
(1.03096 0.0114984 7.95454e-19)
(1.03173 0.0163945 9.64136e-19)
(1.02569 0.0202851 0)
(1.02277 0.0206824 0)
(1.0351 0.025215 4.93657e-19)
(1.02594 0.0264342 0)
(1.02414 0.0264549 0)
(-0.0142365 2.01691 0)
(0.00894474 1.64527 -3.45533e-21)
(0.00079681 1.7519 -2.35307e-20)
(0.00551878 1.37365 0)
(-0.000862465 1.54434 -7.03233e-21)
(0.000364753 1.45117 6.02835e-21)
(0.00156029 1.38416 0)
(0.391876 1.66511 0)
(0.36835 1.30147 -7.76898e-20)
(0.302947 1.34331 0)
(0.422008 1.30281 1.70874e-20)
(0.467641 1.46017 0)
(0.448831 1.40573 1.93781e-20)
(1.03654 2.68422 -1.55091e-20)
(0.967213 2.41045 -9.18906e-19)
(0.919032 2.19471 1.0428e-18)
(0.851323 2.37747 2.4318e-19)
(0.848252 2.49521 0)
(0.918189 2.49106 0)
(0.929456 2.3746 0)
(0.908259 2.36261 -9.47059e-19)
(0.689436 2.46182 -3.97721e-19)
(0.801666 2.45162 -9.8263e-20)
(0.812443 2.42541 7.47907e-20)
(0.69587 2.39462 0)
(0.800614 2.39018 0)
(0.75911 2.40296 -3.6973e-19)
(0.769256 2.48547 0)
(0.625192 1.09867 0)
(0.486004 0.919044 -5.09005e-19)
(0.561369 0.955271 -3.23414e-20)
(0.524719 1.05192 0)
(0.525307 0.998775 7.6391e-19)
(0.790836 0.87942 -1.34409e-19)
(0.799727 1.01669 0)
(0.77405 0.979446 1.94203e-19)
(0.659143 1.03533 0)
(0.662681 0.939647 0)
(1.16564 2.75832 -2.33772e-19)
(1.14334 2.82155 -9.91689e-20)
(0.932519 2.33957 1.03574e-19)
(0.90019 2.31893 -8.43495e-20)
(1.13088 2.73187 0)
(1.08434 2.70179 1.01526e-19)
(1.09102 2.48571 -3.19227e-19)
(0.985733 2.23661 -3.07438e-20)
(0.498849 1.34933 0)
(0.513485 1.07546 -1.24821e-19)
(0.572968 1.17122 0)
(0.857836 0.235986 0)
(0.779388 0.189904 0)
(0.715041 0.150666 0)
(0.850678 0.236988 -6.51465e-19)
(0.753209 0.226416 3.7959e-19)
(0.927775 0.0769095 -4.16017e-19)
(0.942635 0.12369 0)
(0.923039 0.136798 1.78496e-19)
(0.860102 0.11155 7.16444e-19)
(0.826973 0.0689877 -4.48386e-19)
(1.16035 3.35598 -7.19593e-19)
(1.20875 3.2753 0)
(1.15816 3.38444 -1.48544e-18)
(0.645768 3.5454 1.26153e-18)
(0.869759 3.11329 6.94136e-20)
(0.521094 0.832463 6.09081e-19)
(0.432189 0.82989 0)
(0.326285 0.451863 -1.52876e-19)
(0.457527 0.667087 8.70129e-19)
(0.542636 0.4183 -2.06466e-19)
(0.511386 0.486794 2.38688e-19)
(0.665519 0.516625 5.13508e-19)
(0.698611 0.546511 0)
(0.651532 0.59331 0)
(0.608876 0.536324 0)
(0.997909 0.605619 9.71041e-20)
(0.911412 0.542273 -5.35478e-19)
(0.937749 0.575383 4.05939e-19)
(0.96937 0.513707 -4.13893e-19)
(1.07784 0.486727 0)
(1.08549 0.57636 -1.02576e-19)
(0.850558 0.396013 -8.59693e-19)
(0.853293 0.384848 -1.06195e-18)
(0.794222 0.38432 6.70526e-19)
(0.795579 0.356648 -6.85136e-19)
(0.84444 0.318275 -5.36222e-19)
(0.793747 0.31664 6.57965e-19)
(1.02667 0.00578531 -5.00875e-19)
(1.02639 0.00600875 1.01956e-18)
(1.0293 -1.54804e-05 6.35383e-19)
(1.03349 0.000894843 -7.65241e-19)
(1.03358 0.00879425 0)
(1.03004 0.00947107 -1.24549e-18)
(0.0613338 1.64382 2.46011e-20)
(0.0442265 1.57852 0)
(0.084247 1.69411 1.48205e-19)
(0.0945596 1.67575 -1.30916e-19)
(0.087598 1.53215 3.88232e-20)
(0.0852089 1.51911 0)
(0.0126641 1.6757 0)
(-0.000892921 1.48177 4.55942e-22)
(0.00308426 1.4272 -4.09907e-22)
(-0.000865949 1.53983 6.58857e-21)
(0.00447244 1.87567 -4.85937e-22)
(-0.0059313 1.92988 3.98817e-21)
(0.498819 1.37061 -2.78641e-19)
(0.492139 1.37346 3.05841e-19)
(0.44864 1.29867 -3.54049e-20)
(0.437155 1.2935 8.07217e-21)
(0.63065 1.30338 0)
(0.546511 1.39098 9.72193e-20)
(0.56176 1.39838 -9.46674e-20)
(0.460139 1.28455 3.44128e-20)
(0.516121 1.23997 0)
(0.568519 1.20681 0)
(0.656275 2.4211 5.84372e-19)
(0.671016 2.46081 1.27369e-18)
(0.715998 2.47155 -8.7731e-19)
(0.612886 2.44614 -2.03659e-19)
(0.561075 2.53775 2.85922e-19)
(0.509805 2.51121 -7.62559e-19)
(0.97801 2.38044 -5.83497e-19)
(1.0138 2.39335 0)
(0.92535 2.17277 -6.74345e-19)
(1.05471 2.68118 0)
(1.05698 2.66797 0)
(0.608342 2.26759 -1.21118e-19)
(1.04154 3.15946 1.32821e-19)
(0.912412 3.02959 -3.62612e-20)
(0.276061 0.888147 0)
(0.310342 0.742034 -3.20841e-19)
(0.475136 0.699619 -3.23463e-19)
(0.38528 2.01353 0)
(0.465279 2.78277 -4.83203e-20)
(0.420344 2.54616 0)
(0.701674 0.669325 -8.57471e-19)
(0.784059 0.676871 1.16111e-18)
(0.804581 0.620044 -1.14842e-18)
(0.680327 0.63208 -1.10601e-19)
(0.735207 0.588306 -4.56342e-19)
(1.00431 2.76123 -1.01003e-19)
(1.04293 2.81907 -1.6627e-19)
(0.63768 2.13828 6.79215e-19)
(0.593859 1.70764 -4.84129e-19)
(0.69904 1.90157 -4.08186e-19)
(0.990188 2.44474 -1.1397e-19)
(0.995904 2.43715 2.99176e-19)
(0.657952 1.83738 2.82949e-20)
(0.450122 1.32863 1.4623e-19)
)
;

boundaryField
{
    wall-4
    {
        type            noSlip;
    }
    velocity-inlet-5
    {
        type            fixedValue;
        value           uniform (1 0 0);
    }
    velocity-inlet-6
    {
        type            fixedValue;
        value           uniform (0 3 0);
    }
    pressure-outlet-7
    {
        type            zeroGradient;
    }
    wall-8
    {
        type            noSlip;
    }
    frontAndBackPlanes
    {
        type            empty;
    }
}


// ************************************************************************* //
