/*--------------------------------*- C++ -*----------------------------------*\
  =========                 |
  \\      /  F ield         | OpenFOAM: The Open Source CFD Toolbox
   \\    /   O peration     | Website:  https://openfoam.org
    \\  /    A nd           | Version:  13
     \\/     M anipulation  |
\*---------------------------------------------------------------------------*/
FoamFile
{
    format      ascii;
    class       volScalarField;
    location    "23";
    object      p;
}
// * * * * * * * * * * * * * * * * * * * * * * * * * * * * * * * * * * * * * //

dimensions      [0 2 -2 0 0 0 0];

internalField   nonuniform List<scalar> 
918
(
0.236319
0.916624
0.0201471
0.235608
-0.00202105
0.883704
-0.825223
0.411514
0.21643
-0.423682
-0.302657
0.207293
0.744272
0.510145
-1.45345
-0.0462437
0.367096
-0.70604
0.215305
-0.00161874
0.478467
0.223052
0.226085
0.216667
0.277163
0.497618
0.624737
0.0137301
0.0037675
0.00451688
-0.00344938
-0.0189324
-0.0207099
0.767341
0.818431
0.841095
0.185262
0.00972072
-0.677457
-0.751753
-0.739828
-0.873378
0.40258
0.407098
-0.483457
0.412819
0.427018
0.203818
0.215738
0.216642
0.217827
0.216732
0.21814
0.131677
-0.429726
-0.466163
-0.413755
-0.418558
-0.19494
-0.349503
-0.383884
-0.271051
-0.222013
0.140559
0.204332
0.201196
0.211614
0.22112
0.856171
0.828078
0.85421
0.767928
0.784412
0.722234
0.694701
0.531105
0.552506
0.49491
0.48388
-1.89754
-2.87229
-0.850863
-0.592172
-0.000798402
-0.0609782
-0.0723599
0.355315
0.360474
0.364979
0.380301
0.76875
-0.696723
-0.842758
0.215466
0.214277
0.222748
0.223446
0.219442
0.218558
-0.00137686
-0.0166506
-0.00669352
0.00501905
-0.00347841
0.462494
0.45614
0.217226
0.21427
0.229043
0.251057
0.240442
-0.0169552
0.286439
0.306515
0.307566
0.481372
0.478592
0.486357
0.598273
0.560784
0.662067
0.685461
0.00945511
0.00463647
-0.0422367
-0.0257354
-0.0324724
0.181761
0.175055
0.199257
0.188472
0.190801
-0.0747376
-0.210699
0.0944148
0.117929
-0.584745
-0.651483
-0.761978
-0.774962
-0.884315
0.245672
0.393193
0.396474
-0.500244
-0.418569
-0.561769
-0.34393
-0.411973
0.194332
0.201148
0.196255
0.211472
0.206044
0.207998
0.220012
0.217086
0.218655
0.184351
0.304598
0.061251
0.0424697
-0.569095
-0.472315
-0.5547
-0.41542
-0.418888
-0.178783
-0.159906
-0.211053
-0.230913
-0.432508
-0.42008
-0.425019
-0.178907
-0.131445
0.133093
0.123854
0.151636
0.157734
0.196268
0.197128
0.199331
0.197982
0.645486
0.667913
0.675326
0.649055
-3.88594
-6.71398
-0.257965
-0.114958
0.00147539
0.00339633
0.00289732
0.0059105
0.000470954
-0.00268443
-0.200535
-0.174997
-0.101151
-0.126401
0.342169
0.344199
0.683235
0.674056
0.669007
0.617588
0.203654
0.205787
0.211215
0.207069
-0.0881387
-0.0350098
-0.0578337
0.426138
0.444181
0.440438
-0.0521253
-0.138097
0.0291679
0.0564218
0.327956
0.311073
0.327944
0.371063
0.407184
0.692941
0.711199
0.709491
0.71788
0.761924
0.778335
0.743629
0.162583
0.172392
0.167445
0.202732
0.200205
0.201397
0.196381
0.1981
0.195505
-0.364677
-0.752108
0.181543
0.201708
0.161661
0.169684
0.32128
0.395743
0.376916
0.386439
0.388626
-0.278601
-0.341629
-0.0192967
-0.0524469
0.0817065
0.113179
0.0967963
0.616602
0.577068
0.62699
0.600579
0.561935
0.588042
-0.70391
-2.23422
-1.33568
0.248335
0.0551037
0.145806
-0.223716
-0.265669
-0.247971
0.657511
0.735249
0.360799
0.517641
0.534962
0.447967
0.479985
0.533658
0.456608
0.492874
0.53036
0.512828
0.20596
0.184677
0.17704
0.470069
0.527745
-0.165241
-0.216758
-0.268192
-0.14687
-0.109963
-0.131952
0.70279
0.592343
0.666541
0.214038
0.214716
0.00982584
0.0109757
0.218779
0.218833
0.00294596
-0.00723015
0.127329
-1.16508
-0.176358
0.207073
0.197728
0.214348
-0.409425
0.0880406
-0.367144
-0.275194
-0.220457
0.204415
0.149722
0.116163
0.0083499
-0.0175573
-0.0208899
-0.512786
0.211683
0.209984
0.213863
0.214877
0.215536
0.00743734
0.00606821
0.00515468
-0.00862993
0.00287373
0.00469275
0.179774
0.195635
-0.471713
0.213998
0.216169
0.215967
0.208888
0.214734
0.212861
-0.0170698
-0.0116355
-0.0319496
-0.0657738
0.0498064
0.382518
0.48682
0.340188
0.110549
-0.134131
0.278404
0.346878
0.244954
0.410082
0.381193
0.400976
-0.116383
-0.26324
-0.107027
-0.16135
0.20513
0.203815
0.195904
0.193038
0.209338
0.207456
0.211907
0.208719
0.211753
0.213225
-0.359552
-0.398817
-0.401252
-0.452385
0.0464239
0.299238
-0.013134
0.0271632
-0.124334
-0.354623
-0.281791
-0.429506
-0.440585
-0.592599
-0.253324
-0.311225
-0.298783
-0.148953
-0.283911
-0.490369
-0.331632
-0.372147
0.198664
0.197249
0.204487
0.211253
0.157969
0.160539
0.131953
0.149034
0.135431
0.0816504
0.114606
0.0920255
0.00327175
0.0108498
0.00437867
-0.022429
-0.0616059
-0.00202783
0.0093365
0.0165787
-0.00225021
-0.00387379
-0.0291612
-0.0345324
-0.476698
-0.590881
0.660269
0.618702
-0.203947
0.200868
0.207266
0.204071
0.208964
0.211967
0.212746
0.210516
0.207116
0.196409
0.198334
0.194141
0.194722
-0.415544
-0.551036
-0.372202
-0.438369
-0.184575
0.31774
0.0623795
0.00346024
-0.000975075
0.211141
0.612299
0.417716
0.437647
0.462937
-0.663508
-0.260349
-0.59342
0.027652
-0.154032
0.380393
0.432622
0.455713
0.401616
0.350927
-0.438078
0.217091
-0.357496
-0.314341
-0.125329
-0.227994
0.423803
0.365106
0.373146
0.390378
0.411738
0.370413
0.348136
0.345926
0.383108
0.387839
0.183733
-0.0337297
-0.0792969
-0.115458
0.349303
0.223601
0.277965
0.196064
0.199969
0.202812
0.201353
0.184649
0.191591
0.187638
0.193001
0.195712
0.205114
0.205397
0.200839
0.20312
-0.395844
-0.395115
-0.348016
-0.437535
-0.429189
-0.479823
-0.38464
-0.211257
-0.22841
-0.0800308
0.036442
-0.250882
-0.383373
-0.352299
-0.321512
-0.126936
-0.110921
-0.251684
-0.125734
-0.132767
-0.169771
-0.0204741
-0.0343152
-0.525069
-0.571248
-0.504807
-0.487709
-0.278015
-0.219306
-0.183328
-0.299498
-0.476003
-0.24232
-0.1673
-0.442338
-0.52038
-0.519604
-0.390446
-0.0149983
-0.0225826
-0.0479295
-0.161207
-0.118994
-0.171622
0.19471
0.195631
0.195763
0.208081
0.219593
0.234732
0.200916
0.177353
0.170356
0.172839
0.148194
0.157178
0.153078
0.165509
0.184842
0.191055
0.191131
0.19305
0.17785
0.17837
0.167455
0.171031
0.148807
0.131979
0.121454
-0.00909184
0.000307871
-0.00477128
-0.0238727
0.00430475
-0.00463116
-0.137277
-0.0493622
-0.078915
-0.0694823
-0.15399
0.0110898
0.000371747
-0.388755
-0.313403
-0.501595
-0.528172
-0.598942
0.571632
0.676703
0.509928
0.292395
0.290355
0.517703
0.616794
0.261043
0.427373
0.457586
0.219479
0.493702
0.205815
0.205194
0.202726
0.202237
0.203684
-0.330334
-0.234725
-0.218399
-0.168477
-0.0549647
0.0597775
-0.0367603
-0.153756
-0.0155576
-0.00432604
0.312563
0.328898
0.272896
0.298406
0.298385
0.124399
0.19966
0.253798
0.209854
0.253571
0.275506
0.23638
0.266509
0.213862
0.172481
0.171539
0.119006
0.138969
0.116948
0.0997694
0.195793
0.174456
0.184112
0.176788
0.196263
0.223773
0.219411
0.243425
0.255873
0.181776
0.144735
0.153439
0.180026
0.143247
0.155712
0.16982
-0.118837
-0.215416
-0.127758
-0.422418
-0.33054
-0.346533
-0.39221
-0.354883
-0.0675194
-0.772496
-0.738941
-1.37722
0.150848
0.639523
0.380509
0.354128
0.410186
0.387806
0.390347
0.421083
0.427406
0.340225
0.35888
0.361893
0.309631
0.335124
0.366049
0.362112
0.193883
0.0751448
0.0649927
0.0281911
-0.0915077
-0.0614185
0.138864
0.062773
-0.00778665
-0.00255324
0.159594
0.0524705
0.115326
0.153086
0.0869347
0.0455255
0.240632
0.308335
0.29789
0.273058
0.188202
0.199409
0.225523
0.261593
0.287242
0.322023
0.192372
0.198071
0.199355
0.19713
0.194521
0.197252
0.197207
0.19975
0.200685
0.203427
0.202405
-0.469592
-0.49256
-0.40505
-0.439068
-0.34285
-0.327922
-0.253291
-0.289768
-0.42285
-0.3809
-0.371667
-0.386868
-0.401662
-0.41653
-0.179289
-0.162231
-0.188469
-0.234092
-0.0508398
0.0746945
0.136471
0.0292423
-0.0852734
-0.0538491
-0.0272148
-0.417948
-0.397688
-0.519453
-0.355052
-0.325116
-0.391308
-0.306523
-0.316153
-0.459681
-0.445573
-0.219762
-0.0582878
-0.0859367
-0.135568
-0.116778
-0.0773771
0.180331
0.175195
0.174601
0.169606
0.168831
0.180878
0.185183
0.187285
0.192273
0.193493
0.185211
0.189285
0.192592
-0.0726492
-0.00139926
-0.0188376
-0.0621691
-0.0218073
-0.00526823
-0.0250838
-0.199962
-0.274842
-0.270124
-0.31775
-0.438735
-0.383762
0.143294
0.131634
0.151346
0.365583
0.221752
0.134005
0.222649
0.326918
-0.0524339
0.139048
-0.0263958
0.544983
0.430391
0.578097
0.2085
-0.0975999
0.0499268
0.104798
-0.0938412
-0.019219
0.00434705
-0.106025
-0.073595
-0.0457805
0.0546156
-0.0711088
-0.101503
-0.348588
-0.16749
-0.0314484
-0.0520122
0.0770037
0.139175
-0.0887287
-0.165303
-0.202559
0.302525
0.322862
0.340028
0.310551
0.333808
0.258357
0.249638
0.268433
0.279068
0.272231
-1.10761
-0.8184
-1.7585
-1.06696
-0.622333
0.18117
0.136035
0.4341
0.321884
0.402631
0.383378
0.341194
0.302432
0.313097
0.350823
0.0520698
0.158977
0.133221
0.142411
0.0470841
-0.0197328
0.276088
0.270005
0.306314
0.330449
0.298765
0.331933
0.190635
0.190315
0.189224
0.186519
0.184817
0.186886
-0.266733
-0.339005
-0.240462
-0.254535
-0.28143
-0.325295
-0.110121
-0.117889
-0.0876479
-0.078117
-0.0550934
-0.108317
-0.176811
-0.230029
-0.297589
-0.267735
-0.329406
-0.393249
-0.416813
-0.312996
-0.225362
-0.231289
0.0730946
0.320744
0.150387
0.316402
0.151464
0.210073
0.15008
0.143126
0.178695
0.0441684
0.120058
-0.13231
-0.631463
-0.539286
0.443172
0.46357
0.245367
0.050362
-0.173023
0.0258574
0.22313
0.161518
0.201672
0.26937
0.26179
-0.341136
-0.265648
-0.0322396
0.194869
-0.108152
-0.116707
-0.120077
0.0426349
-0.0254979
)
;

boundaryField
{
    wall-4
    {
        type            zeroGradient;
    }
    velocity-inlet-5
    {
        type            zeroGradient;
    }
    velocity-inlet-6
    {
        type            zeroGradient;
    }
    pressure-outlet-7
    {
        type            fixedValue;
        value           uniform 0;
    }
    wall-8
    {
        type            zeroGradient;
    }
    frontAndBackPlanes
    {
        type            empty;
    }
}


// ************************************************************************* //
