/*--------------------------------*- C++ -*----------------------------------*\
  =========                 |
  \\      /  F ield         | OpenFOAM: The Open Source CFD Toolbox
   \\    /   O peration     | Website:  https://openfoam.org
    \\  /    A nd           | Version:  13
     \\/     M anipulation  |
\*---------------------------------------------------------------------------*/
FoamFile
{
    format      ascii;
    class       surfaceScalarField;
    location    "23";
    object      phi;
}
// * * * * * * * * * * * * * * * * * * * * * * * * * * * * * * * * * * * * * //

dimensions      [0 3 -1 0 0 0 0];

internalField   nonuniform List<scalar> 
1300
(
3.75095
5.62643
-5.82857
3.75095
-5.76759
5.62643
-4.52311
4.52311
-1.18144
1.18144
1.87654
1.87441
-2.92152
2.92152
-2.72412
2.72412
-2.59441
2.59441
-5.2464
5.2464
-5.06843
5.06843
4.68171
-4.68171
-4.62839
4.62839
-1.62474
1.62474
-3.91437
3.91437
3.17044
-3.17044
-4.31372
4.31372
-0.388257
0.388257
-0.553487
4.30444
3.19747
3.19747
-2.28191
2.28191
-4.85611
4.85611
6.21816
-6.21816
8.82001
-8.82001
-2.99144
-3.42079
1.34567
-8.40329
-4.42192
-4.42192
-8.4404
8.4404
-2.81397
2.81246
2.94264
-2.94264
-1.77117
1.77117
-4.45073
-0.0723735
-4.45073
4.52959
-0.00647985
4.52959
-1.31829
0.136846
-1.31829
3.99062
-3.99062
1.01333
0.168115
1.01333
3.06435
-3.06435
-1.87706
3.7536
1.8739
-1.87172
6.17616
-1.87923
3.75364
-5.86836
5.86836
-3.1579
0.236382
-3.1579
2.64299
0.27853
2.64299
-5.7275
5.7275
-2.365
-0.35912
-2.365
3.14296
-0.418833
3.14296
2.85045
-2.85045
-2.65766
0.0632519
-2.65766
2.53752
0.0568916
2.53752
0.353565
5.27287
-5.97999
8.79245
-5.27287
0.0264648
5.20843
0.0379713
5.20843
-5.1061
0.0376695
-5.1061
5.01094
0.0574949
5.01094
4.77712
-0.0954143
4.77712
-4.79389
0.112184
-4.79389
-3.29511
-3.62764
-4.674
0.0456032
-4.674
-1.63823
0.0134886
-1.63823
1.60623
0.0185099
1.60623
-3.51002
3.51002
-4.31002
0.395649
-4.31002
3.12494
0.0454992
3.12494
1.86849
1.88246
5.61945
-5.61945
2.449
-4.12965
-0.184065
-4.12965
-4.48328
-4.33674
4.48328
-0.169563
-0.664041
0.275783
-0.664041
3.15929
0.0381777
3.15929
2.45041
0.0871066
-2.45041
0.168504
3.29599
-3.29599
1.65794
0.623966
1.65794
-5.56982
5.56982
4.95088
0.0600573
-4.95088
0.0947713
6.15715
0.0610091
6.15715
-6.19961
-0.0185537
-6.19961
3.25948
-6.68027
-3.51379
4.52233
0.106061
-4.52233
0.100414
2.91272
0.0299123
2.91272
-2.92397
2.92397
-2.98194
0.0393028
-2.98194
-2.18356
0.412384
-2.18356
1.45537
0.315806
1.45537
-4.31018
-0.140557
-4.31018
-4.46212
0.152105
4.46212
0.0674622
0.983702
-0.983702
-1.45651
0.138226
-1.45651
-4.13821
-0.171962
4.13821
-0.147594
-3.88045
-0.110171
-3.88045
-3.0227
0.0407645
3.0227
0.0416436
3.11222
0.0470686
-3.11222
0.0478726
-1.87087
3.75333
-1.88009
3.75398
-5.46059
-0.407775
-5.46059
6.18468
-0.316313
6.18468
3.52671
0.387655
-3.52671
0.36881
2.4522
0.190794
2.4522
-6.14711
0.419613
-6.14711
5.24881
0.478685
5.24881
2.30794
0.144256
-2.30794
-0.0570629
3.52063
-0.377672
3.52063
2.88504
-0.0345895
2.88504
-2.84695
-0.00350076
-2.84695
2.80231
-2.80231
2.73065
0.0716611
-2.73065
0.0729847
-11.1326
11.1141
-0.0349568
-11.0977
5.17347
5.17347
4.20675
0.57037
4.20675
-5.00578
0.211885
-5.00578
3.2187
-6.73249
3.58156
-6.87667
3.59198
-11.9953
3.35908
-6.98672
4.79576
-4.79576
4.70108
0.0946785
-4.70108
0.0270872
-1.65856
0.0203247
-1.65856
-2.89271
-0.617314
-2.89271
4.16062
-0.650593
4.16062
-3.03073
3.03073
-3.07886
0.0481308
3.07886
0.0460876
3.87462
-0.353995
-3.87462
-0.255028
0.84575
0.167576
-0.84575
0.181709
3.51171
-0.215713
3.51171
-3.09726
-0.198732
-3.09726
-1.66374
0.00518494
1.66374
-0.00579815
-5.81619
0.246367
-5.81619
-11.1908
0.0930719
-11.1528
-6.10653
-6.10653
2.33387
11.1263
-2.87816
0.0312044
2.87816
0.0345683
2.97888
0.0518445
-2.97888
0.0549076
-2.86629
0.0639772
2.86629
0.0576884
-2.56819
0.384633
-2.56819
-1.03936
1.03936
-1.22656
0.187198
1.22656
0.228807
1.21732
-0.233613
1.21732
1.56202
0.0442183
-1.56202
0.105501
-3.78892
-0.0915281
-3.78892
6.36721
-0.182534
6.36721
-2.96591
-0.131355
2.96591
-0.0808648
-0.0333197
11.1474
-5.14015
0.034051
5.14015
-11.2084
11.2425
-3.248
0.679812
3.248
0.958748
5.29379
0.276028
-5.29379
0.288017
4.99197
0.25684
-4.99197
0.19621
-2.38799
-0.504715
-2.38799
-4.88369
-0.576897
4.88369
-0.723076
-11.4747
-0.20387
11.6786
-11.4172
6.02006
0.137094
-6.02006
11.3796
-0.935437
-0.0482653
0.935437
0.103926
1.53316
-0.315841
1.53316
3.69326
-0.181557
-3.69326
-0.0956559
-6.37026
0.223151
6.37026
-0.00304917
-1.94433
-0.443661
1.94433
-0.411177
-4.26658
4.30476
1.90958
-3.13027
-3.55
-7.467
1.85224
1.90109
4.30125
-7.51369
-4.48158
-7.41328
7.27139
-6.98338
-9.29849
9.20308
7.53159
-7.64176
-5.785
5.83108
6.48181
-6.44016
1.87864
1.87496
7.87316
-7.63678
-15.5938
15.186
5.90978
-6.2689
16.3953
-15.9757
-17.1297
17.3865
-5.76039
5.82364
-6.65808
6.65458
-6.85204
6.77118
-2.98797
-3.8887
10.1705
-10.1248
10.683
-10.867
-8.47489
8.87054
3.38269
0.922066
3.42976
-1.88239
3.76104
-1.87125
3.78083
3.61317
-6.60114
3.11932
-6.66932
5.81121
4.87174
-5.64165
-1.82535
-5.91509
5.945
-5.82232
5.88001
8.90733
-8.9797
-1.88539
3.76035
-1.86859
3.76967
-3.42538
-2.35961
3.37988
0.921362
6.0925
4.07795
-6.19856
-1.21471
-7.74638
7.56482
-8.02797
7.82923
-0.450051
5.82249
-5.37244
4.40606
-1.55397
7.37647
5.71742
5.9293
5.86786
-5.59183
1.11552
-6.48796
-6.39319
-2.55209
2.69031
2.53386
-2.36574
5.92142
1.61017
5.77383
-5.5175
-2.12426
-5.60903
3.8213
2.00978
3.86943
4.07676
2.40505
4.11753
3.03095
-3.03542
0.00446871
-3.05635
6.0873
0.724933
-5.41597
-4.4946
4.64795
3.22521
4.92648
-5.47728
-2.15951
-5.10847
-9.49598
-6.09781
-10.0729
10.0614
5.12464
9.74506
-11.963
11.9599
4.38939
1.52039
3.97056
-3.67687
-2.59203
-3.73393
13.1694
-2.52152
-10.6479
-10.4462
-6.6835
9.96749
6.42783
9.89079
7.49573
10.087
4.10194
9.06749
-10.5298
3.84627
-3.87159
-1.8888
-3.7986
3.73668
2.08695
3.79358
-4.18694
-2.47114
-4.15573
-4.21575
-2.6363
4.25034
2.40424
-4.30807
-3.7199
4.43942
2.33175
3.43129
-7.91287
3.55543
-7.44413
-7.38853
-2.73632
-7.36144
4.58269
2.04531
-6.62801
-2.01844
10.5131
-5.64138
8.68776
-6.10501
-4.76201
-6.36004
-6.82174
-1.65315
-6.66963
-8.83694
8.33222
-9.14507
8.49448
12.7317
-5.72397
-7.00769
-3.968
-2.47216
3.92013
-0.490366
-3.71177
3.71624
0.0492639
3.83009
4.75216
4.26179
-3.88534
-1.93698
-3.83044
3.83251
2.04749
3.89649
6.74704
2.16029
6.74056
-6.39599
-2.58372
-6.53654
9.10149
-8.68911
2.96649
-2.9613
5.23398
2.59525
-5.01827
-2.72811
6.07042
-3.0353
-3.03512
-12.2161
10.5852
1.63091
-4.83962
-0.433562
-0.0453047
-5.51051
-3.78798
5.39833
0.530977
11.1162
7.32817
-5.51445
5.76081
6.16415
6.22421
-0.168983
5.85722
-5.17741
5.32313
-2.3882
-2.93493
5.26898
-5.44094
-1.26757
-5.24515
3.97759
0.332891
1.82899
-1.55321
-2.05092
-0.50117
-1.94542
1.53417
0.999686
1.70175
0.989561
1.70075
-2.92491
0.528142
2.39677
-1.93535
-1.8376
-3.62439
-1.03606
4.66045
5.51622
2.0486
-5.42057
-0.188461
2.72921
-2.7107
-0.751277
-2.87312
2.13849
-2.88976
-3.5196
-1.91641
5.43601
-3.36948
-0.460952
3.31764
0.551793
-3.82329
-2.0918
3.78399
0.333537
-3.12362
6.19044
-3.06682
-5.0606
2.5294
3.5579
4.53919
-4.78956
2.44537
2.34419
-1.23166
3.58272
1.34376
3.77352
-6.94399
4.78448
5.69914
3.17139
-6.0868
0.978332
-5.96566
8.44518
-7.21114
-1.23404
4.0035
4.44168
7.18118
5.55048
-5.74742
12.9286
-1.01254
-6.1986
6.9782
-3.8068
4.78746
-8.59426
-10.3379
4.13935
-9.29069
11.5273
-2.23661
-3.58879
-8.37417
12.8795
-1.18836
-11.6911
8.5567
-4.95702
-3.63018
8.5872
-7.47854
6.22221
-1.69534
-4.52688
-10.3998
-5.57588
10.1767
1.78324
-9.65675
13.503
-0.589258
4.19372
-0.223163
3.81605
3.41712
-6.33038
2.91326
4.06142
-5.75676
1.39333
-7.72371
-5.90717
10.4485
-4.54129
-8.64349
-8.66962
0.0261348
1.40333
12.0997
-8.89906
5.84939
3.04967
3.30765
0.588843
-3.37931
-0.419296
0.337241
4.52202
-4.85926
4.13082
4.21792
3.40512
1.1169
3.82566
2.11935
-3.86022
-0.295507
-4.12289
1.4866
-1.71865
-3.65302
5.13962
-4.08057
0.427543
-2.7272
-3.55813
6.28532
-4.616
3.0429
3.14754
5.09039
-4.94581
1.38768
-2.44026
-2.50554
2.69288
-4.41154
1.96218
3.17744
4.29394
0.574042
5.59808
4.85038
-7.64339
0.199264
8.92833
-7.71361
2.77177
7.31522
-8.62116
-0.0484614
-7.4099
0.45876
-6.10014
-6.16925
5.10932
-6.76247
-3.48494
6.16339
0.577171
-6.23085
-0.438783
-5.98091
-2.85602
-6.42457
-3.05964
-6.08544
-8.80706
-1.62947
-7.17759
6.70275
-6.6461
-3.42677
7.36918
1.1253
-7.36767
7.31941
-7.43932
7.12348
0.0945796
3.62166
4.35637
1.88421
-2.39
4.27421
-5.06101
7.2213
-8.44876
3.38775
3.93659
-6.5203
-4.51217
5.03708
4.06441
5.35289
8.9709
-10.5733
1.60239
-10.8832
12.153
-1.26977
-16.6621
5.77894
-7.69123
2.70557
0.260915
2.7259
0.676919
2.41311
-3.09003
-2.28438
-2.29018
-2.28469
-3.34113
5.62582
1.12353
-3.33734
2.2138
-3.46274
4.58627
-0.0755794
-3.26176
5.23692
-2.82381
5.49784
-3.53832
1.95952
3.24661
5.54645
-2.29984
4.27595
-1.68069
1.79329
-4.09313
-1.54784
-3.01886
5.10581
-3.26647
3.69401
-0.24655
3.94056
-4.02108
0.98578
-0.61596
3.60196
3.77047
4.22136
-3.10446
2.90689
-4.58758
-1.18624
-4.01354
-0.836105
-0.322444
-3.74408
4.06652
6.08378
-6.40622
-5.29454
9.61119
-4.31665
7.74179
-5.42784
-2.31395
-4.28721
-4.4019
3.90257
1.95465
9.69644
0.205937
-5.63378
-4.97148
-4.01273
3.24191
2.08121
-2.04067
3.67158
2.08598
-0.256986
0.562397
1.13935
1.89158
-1.32918
0.23215
1.65943
-1.32106
2.01481
0.714401
-2.05903
0.113611
-1.35064
3.48913
1.04613
-2.04581
0.716632
1.03992
-3.42812
4.7138
-2.44043
-2.27337
5.75372
1.14448
-3.58491
4.10067
-3.76778
2.2862
-3.32226
-1.29871
-5.0665
-3.45633
-2.46371
4.67752
-3.1621
5.2107
1.15792
-5.02224
6.18016
-3.54244
1.62603
-3.03203
3.74643
-1.04383
-1.98821
2.75102
2.68499
-2.91081
0.0376943
-0.15979
2.29555
-2.45534
-0.594216
-2.52957
-4.57262
4.90616
-2.10663
4.552
2.16758
-1.91362
6.46562
1.8124
-3.72602
-3.24819
-3.70915
-1.38183
3.15735
-0.385458
-3.34847
-4.91233
3.20421
0.569303
-7.025
7.3627
-0.337703
-3.79979
-0.984694
4.98819
-5.72074
-0.0360211
-4.32741
3.0353
4.37905
4.94836
-11.3663
-0.324853
-6.24163
1.193
-7.43463
5.63468
-3.6172
7.75654
-10.4367
7.00993
-9.3114
6.52251
-0.912124
7.19715
-4.28389
3.45076
-9.02664
-7.2434
5.14486
-3.62447
4.9217
-4.37347
9.29517
-4.96273
6.46441
2.83076
-1.94162
-4.41842
-5.50805
3.56643
0.956366
4.77241
4.95726
-2.83792
4.66176
2.22092
-4.66119
-2.19061
-6.52279
1.8616
-3.37525
-1.9115
3.7731
3.17889
3.76773
1.26756
-3.34844
8.05266
-8.02652
-3.51137
-2.65788
6.10602
-2.53959
4.75613
-7.414
-1.34401
4.86994
-0.824803
-4.04514
0.854029
-4.33897
1.63353
-5.9725
5.12895
-5.56773
2.18216
-9.87339
-5.18552
-5.08159
-2.22867
-5.21066
-7.65408
5.42541
-1.87513
5.44427
-8.67063
7.84583
-3.48232
8.90773
-5.38834
-1.03623
5.79952
1.32396
10.2317
0.115848
-4.62802
-1.8249
3.95708
-2.13219
1.41702
-3.62823
0.328854
2.43225
3.32147
-6.40984
-0.110464
-4.73848
-3.91999
7.9844
5.6912
11.775
1.20169
9.19698
-1.21259
10.3987
4.1403
4.36911
-2.99404
4.59643
1.07249
4.46024
-0.858657
2.81818
1.86724
1.88073
0.829971
2.30187
1.4686
3.28765
0.197618
-2.09256
4.657
-8.66973
-0.976778
-8.09936
1.10372
5.74372
-4.63999
3.18105
-1.09984
1.04887
0.112552
-1.74479
1.63224
-2.82238
-2.00178
-0.342353
-1.63869
2.35532
1.85044
-2.01297
-0.80941
0.313515
-3.76984
3.00874
-2.97105
-0.286053
5.89411
-2.7012
0.245859
-1.07517
-2.28371
-2.78488
2.67127
6.17382
0.291799
3.107
5.19796
3.10616
0.268245
3.62387
-5.86048
-4.09983
-6.18534
-0.550659
4.43754
3.76185
8.33784
6.59261
4.05302
-3.36099
-11.3875
6.52682
-1.93039
5.25705
-1.21191
-4.76058
4.97703
2.24427
-5.5542
-0.0135315
-4.77411
-6.70451
-0.53886
8.38469
-9.69284
8.65661
5.80058
1.377
-4.38859
-0.692998
4.20139
0.167713
10.5664
-1.12824
-6.89216
8.02041
-4.61547
3.63869
0.881285
2.7903
2.51353
1.41369
-5.47848
-10.1185
-1.89989
-1.52823
-4.17325
0.4872
-2.33764
6.28021
-2.64152
3.96626
5.37889
6.42775
-2.18825
-4.21797
6.5049
-2.53863
3.88912
)
;

boundaryField
{
    wall-4
    {
        type            calculated;
        value           uniform 0;
    }
    velocity-inlet-5
    {
        type            calculated;
        value           uniform -3.75095;
    }
    velocity-inlet-6
    {
        type            calculated;
        value           uniform -5.62643;
    }
    pressure-outlet-7
    {
        type            calculated;
        value           nonuniform List<scalar> 8(5.82857 5.76759 6.41224 7.05763 6.92275 6.77326 6.80026 6.95106);
    }
    wall-8
    {
        type            calculated;
        value           uniform 0;
    }
    frontAndBackPlanes
    {
        type            empty;
    }
}


// ************************************************************************* //
