/*--------------------------------*- C++ -*----------------------------------*\
  =========                 |
  \\      /  F ield         | OpenFOAM: The Open Source CFD Toolbox
   \\    /   O peration     | Website:  https://openfoam.org
    \\  /    A nd           | Version:  13
     \\/     M anipulation  |
\*---------------------------------------------------------------------------*/
FoamFile
{
    format      ascii;
    class       volVectorField;
    location    "23";
    object      U;
}
// * * * * * * * * * * * * * * * * * * * * * * * * * * * * * * * * * * * * * //

dimensions      [0 1 -1 0 0 0 0];

internalField   nonuniform List<vector> 
918
(
(0.985158 -0.000521576 0)
(0.00500392 2.96626 0)
(-0.0131023 1.55308 0)
(0.979699 0.00215968 0)
(-0.00258862 1.53729 1.48612e-20)
(-0.00703573 2.94878 -1.87671e-18)
(0.851578 1.19378 7.26627e-19)
(0.396248 0.179363 -9.06551e-21)
(0.999906 -0.000297351 0)
(0.0616164 0.84448 0)
(-0.0561465 0.78372 0)
(0.74515 -0.0116458 0)
(0.0111387 2.93032 0)
(0.00189401 2.79502 0)
(-0.017667 3.16625 1.07905e-18)
(0.00589567 1.40915 5.03202e-20)
(0.507584 0.077624 5.69338e-19)
(0.192508 1.21202 6.35558e-19)
(0.96306 0.00508909 0)
(-0.00224367 1.23425 0)
(0.125211 0.233616 -4.74783e-19)
(1.00206 -0.0049863 0)
(1.00022 -0.00977769 0)
(0.975728 -0.00645443 0)
(0.654636 -0.0397282 0)
(0.0172416 2.63341 0)
(-0.0150727 2.91016 6.4886e-19)
(-0.0247575 1.56282 0)
(-0.0341456 1.70948 0)
(-0.0243201 1.55362 0)
(-0.00655779 1.88185 0)
(0.00655631 1.56184 -1.1751e-20)
(0.00230265 1.4229 0)
(-0.0206134 2.98759 -6.56667e-23)
(-0.0166995 3.0053 1.45869e-18)
(0.00210558 3.0002 0)
(0.870407 -0.00950619 0)
(0.397627 0.935676 -3.00194e-20)
(0.828187 1.21305 -1.01298e-18)
(0.975224 1.04635 9.52172e-19)
(0.696203 1.30967 -1.68554e-19)
(0.694943 1.2996 9.44382e-19)
(0.434661 0.272294 8.84491e-21)
(0.428686 0.165777 0)
(1.16066 0.560464 0)
(0.397784 0.280005 4.12646e-20)
(0.350565 0.177618 -4.28248e-20)
(0.919565 -0.00741808 0)
(1.00028 0.000122858 0)
(0.999908 0.00033898 0)
(1.00359 -0.00779836 0)
(1.00095 -0.0010057 0)
(1.00017 9.6199e-06 0)
(0.0776635 1.79199 -2.46733e-19)
(0.015697 0.97801 0)
(0.0997589 0.930169 0)
(0.0320094 0.906562 0)
(0.0210113 0.756967 0)
(-0.0933978 1.68198 0)
(-0.0542988 0.833165 0)
(-0.0217201 0.668637 0)
(-0.0576368 0.955529 0)
(-0.0496216 0.914608 0)
(0.83297 -0.00857922 0)
(0.854879 0.0158084 0)
(0.76681 0.00084251 0)
(0.842724 0.0185628 0)
(0.731814 -0.0160426 0)
(0.0146997 3.0004 6.8716e-19)
(0.011521 3.00795 0)
(0.00612677 3.00283 0)
(0.0135551 2.99735 7.66356e-24)
(0.00798499 2.95845 -1.02129e-18)
(0.0144924 2.98203 0)
(0.0108184 2.90361 0)
(0.0247774 2.93028 1.37621e-24)
(0.00423385 2.82533 0)
(0.0317543 2.91574 0)
(-0.00618834 2.74461 0)
(0.311633 3.56693 0)
(-0.132376 3.64928 0)
(0.141259 3.25711 -1.00421e-18)
(-0.0113463 2.98938 0)
(-0.0414436 1.84569 0)
(0.0319439 1.58549 -4.96414e-20)
(0.0097521 1.3871 7.9161e-20)
(0.570847 0.156507 -1.96153e-19)
(0.50981 0.0482128 -1.9053e-19)
(0.554775 0.176771 -5.90546e-19)
(0.500877 0.102653 -3.98151e-19)
(0.216384 0.90387 0)
(0.272964 1.35822 -6.59252e-19)
(0.393965 1.31396 1.0835e-18)
(0.987681 0.00858452 0)
(0.942152 0.00596434 0)
(1.00029 0.000578568 0)
(1.00286 0.00930026 0)
(1.00301 0.00846973 -1.11316e-18)
(0.991933 0.00967068 8.40582e-19)
(-0.0214885 1.38292 0)
(-0.0221038 1.19763 0)
(-0.034798 1.56786 0)
(-0.0226418 1.45364 0)
(-0.00218116 1.28725 0)
(0.184346 0.24286 1.46316e-19)
(0.231255 0.219438 0)
(0.993539 -0.00832015 0)
(0.954378 -0.00639768 0)
(0.810441 0.0264293 0)
(0.776528 0.0379701 0)
(0.707969 -0.0308681 0)
(0.980237 -0.00364423 0)
(0.716578 0.0538597 0)
(0.561871 -0.0191745 7.61967e-19)
(-0.035684 2.86565 3.33815e-19)
(0.0427989 2.90859 0)
(0.0564525 2.88342 0)
(-0.00520382 2.69738 0)
(-0.0129866 2.98524 5.96291e-19)
(-0.0182304 2.89541 0)
(-0.0154014 2.9881 -1.88676e-18)
(-0.0133584 2.92523 6.5184e-19)
(-0.0408858 1.79764 0)
(-0.0364451 1.80564 0)
(0.0159819 1.56914 1.11036e-21)
(0.0116793 1.5484 0)
(-0.00372472 1.41692 0)
(0.937178 -0.006642 0)
(0.855782 -0.00921867 0)
(0.864914 0.00820221 0)
(0.948624 -0.00762977 0)
(0.883188 -0.00875047 0)
(0.511511 1.13106 2.67307e-20)
(0.563034 1.18532 0)
(0.357233 0.874807 4.60385e-21)
(0.300306 0.736183 0)
(0.934915 1.08386 -2.75095e-19)
(1.04779 0.881729 5.63319e-19)
(0.389218 1.40457 0)
(0.549066 1.37743 0)
(0.550586 1.33653 0)
(0.0997158 0.159034 -1.31328e-19)
(0.478219 0.256081 0)
(0.461632 0.154409 1.14026e-19)
(1.01799 0.935899 0)
(1.085 0.780364 0)
(1.1104 0.722973 -4.93099e-19)
(1.14077 0.619808 0)
(1.19197 0.403818 5.78494e-20)
(0.95726 -0.00883564 0)
(0.962183 -0.0101552 0)
(0.9011 -0.0080722 0)
(0.984174 -0.0091484 0)
(0.974512 -0.00944239 0)
(0.936918 -0.00628321 0)
(1.00018 0.00234573 0)
(1.00085 0.00135042 0)
(0.999925 0.000859167 0)
(0.0399872 2.02137 1.56469e-19)
(0.128427 1.70465 0)
(0.0131745 2.11577 1.44111e-19)
(0.0474897 1.87072 -6.01247e-20)
(0.135128 1.20212 -5.26757e-19)
(0.0561625 1.06246 0)
(0.0978518 1.06469 0)
(0.00082569 0.840514 0)
(-0.00110171 0.693789 0)
(-0.0812041 1.95648 2.90702e-21)
(-0.0484155 1.83506 0)
(-0.0447839 1.81501 1.92408e-19)
(-0.0736673 1.51309 -3.89547e-19)
(0.0179225 0.78986 0)
(-0.00820267 0.778066 0)
(-0.0075185 0.648317 0)
(-0.0602469 1.08325 0)
(-0.0438352 1.02274 0)
(0.927514 0.0130966 0)
(0.849478 -0.00373301 0)
(0.916507 0.00216331 0)
(0.834163 -0.0112609 0)
(0.812863 0.00551345 0)
(0.903676 0.0162301 0)
(0.881104 0.0184204 0)
(0.787574 0.00412978 0)
(0.00573032 3.06471 -6.04396e-21)
(0.0164164 3.058 0)
(0.0146352 2.96913 0)
(0.0084993 2.87635 0)
(0.930035 3.98746 0)
(1.24596 3.31759 1.01483e-18)
(0.0712632 3.0816 0)
(-0.0268273 2.91041 0)
(-0.0516639 1.79498 0)
(-0.0573412 1.83368 0)
(-0.0453605 1.81285 0)
(-0.0220846 1.87214 3.60347e-21)
(-0.0497909 1.86116 0)
(-0.0312157 1.85334 0)
(0.0127114 1.38666 -3.98525e-20)
(0.0567732 1.59777 -1.64205e-19)
(0.0492591 1.58839 -8.06647e-20)
(0.0105378 1.37087 0)
(0.602612 0.124554 2.89144e-19)
(0.526603 0.0186016 -2.82089e-19)
(0.261694 1.53355 0)
(0.258611 0.673445 -2.10944e-19)
(0.169708 1.61865 -7.06842e-19)
(0.236933 1.15536 7.08869e-19)
(0.903162 0.00662287 0)
(0.967717 0.0107838 0)
(0.974811 0.0107702 0)
(0.923983 0.00664883 0)
(-0.0546214 1.20753 0)
(-0.0358397 1.31104 0)
(-0.0395041 1.1219 0)
(0.35025 0.276741 3.79102e-19)
(0.294342 0.257546 -4.61927e-19)
(0.301841 0.198064 0)
(1.1058 0.0860707 -3.17717e-21)
(1.09065 0.0400042 0)
(1.01811 0.0395852 0)
(0.918434 0.00405035 0)
(0.625637 0.0946334 0)
(0.657221 0.0686872 -1.22636e-18)
(0.542146 0.00384914 4.68319e-19)
(0.00966925 2.98153 4.21908e-19)
(-0.0328723 2.8669 4.66629e-20)
(0.00379262 3.0502 -1.3058e-20)
(0.0200075 3.04348 4.69559e-19)
(-0.0149995 2.99655 2.16745e-20)
(-0.0130023 2.94945 -8.77103e-23)
(-0.0172918 3.01198 -4.10836e-19)
(0.0148474 3.02391 2.97236e-19)
(0.00733761 3.03682 -4.64584e-19)
(0.927337 -0.00166479 0)
(0.936138 -0.00288133 0)
(0.842245 -0.00738625 0)
(0.957158 0.0113461 0)
(0.943896 0.0129064 0)
(0.883228 0.00660251 0)
(0.919531 0.0151159 0)
(0.927897 0.0145301 0)
(0.840249 0.00718115 0)
(0.719194 1.4148 3.26499e-19)
(0.754276 1.52562 0)
(0.220538 0.354795 2.60098e-20)
(0.185755 0.595281 2.1213e-19)
(0.268206 0.696809 -1.18546e-19)
(0.230594 0.577897 2.16872e-19)
(0.300098 0.711299 7.48895e-19)
(0.107914 0.187676 2.15854e-19)
(0.537952 0.209643 4.26751e-19)
(0.51091 0.239194 1.07127e-19)
(0.489542 0.13546 2.14768e-19)
(1.18125 0.460817 2.92951e-19)
(1.1983 0.256113 3.05424e-19)
(-0.011761 2.13717 1.09777e-20)
(-0.0102695 1.93116 0)
(0.969345 0.0305706 0)
(0.936677 0.0192031 0)
(0.875108 -0.00371535 0)
(0.0111829 3.07476 0)
(0.0199898 2.9441 8.06212e-19)
(0.0165094 2.95652 0)
(0.00606373 2.85074 -7.99893e-19)
(0.00606891 3.09127 1.91098e-19)
(0.00722418 3.08228 0)
(0.788069 1.83062 -2.39176e-19)
(1.25321 2.51378 6.58397e-19)
(0.770762 1.97172 -1.49348e-18)
(0.0210896 2.98412 -3.09386e-19)
(0.0369817 3.00648 0)
(-0.0324697 2.88202 0)
(0.0125213 1.68615 -8.18809e-21)
(0.05598 1.6488 4.30895e-19)
(0.0244861 1.43573 -1.82904e-20)
(0.277152 1.34149 6.84339e-19)
(0.211734 0.448531 -4.71728e-19)
(0.0621287 1.94515 4.65933e-19)
(0.133782 1.83987 -5.83166e-19)
(0.184148 1.44283 8.41482e-20)
(0.00248847 3.11907 -1.12385e-18)
(0.0135716 3.1189 1.21614e-18)
(-0.0086215 2.98129 5.16458e-19)
(-0.00362761 2.97786 -4.55982e-19)
(-0.0213205 2.88177 -5.26e-19)
(0.00871363 3.1002 -1.4015e-18)
(0.00235487 3.10496 1.37877e-18)
(0.238012 0.628294 0)
(0.191796 0.617253 -4.1255e-19)
(0.112983 0.207061 1.86141e-19)
(0.323832 0.831945 6.51178e-19)
(0.171753 0.230014 -9.96564e-19)
(1.19144 0.17246 -5.5323e-20)
(1.19746 0.308878 0)
(1.18025 0.120451 1.18978e-19)
(-0.0569723 2.0594 2.27103e-21)
(-0.051705 2.12741 0)
(-0.0427188 1.91591 0)
(0.333825 1.23125 -2.47451e-19)
(0.349799 1.04687 -5.28097e-19)
(0.187231 0.324239 9.09399e-19)
(1.00584 -0.010986 0)
(1.00761 -0.00762378 2.03134e-19)
(-0.0455247 1.76837 0)
(-0.0530041 1.77111 0)
(1.00224 0.00348217 1.79268e-21)
(1.00352 0.00923863 4.17919e-19)
(-0.0260238 1.88955 -4.64704e-21)
(-0.0174342 1.9001 0)
(0.0387947 3.1829 1.193e-19)
(0.400742 3.50199 0)
(1.1206 0.643835 6.33633e-20)
(1.01316 0.0128821 -2.00555e-21)
(1.02096 -0.0106948 0)
(1.00175 1.20931e-05 7.16454e-23)
(0.140858 1.33799 0)
(0.151168 2.56544 0)
(-0.164285 1.05556 0)
(-0.17646 2.67976 -2.49233e-19)
(-0.234273 2.47748 -1.3223e-19)
(1.00781 0.0201797 3.04911e-21)
(1.05237 -0.000567162 0)
(1.07712 0.0292518 0)
(-0.0666998 1.83079 0)
(-0.0356369 2.00367 0)
(-0.115837 1.64827 0)
(0.289986 1.46318 -4.34715e-19)
(1.0112 -0.00964514 0)
(1.00945 -0.015187 0)
(1.00249 0.00050211 2.59238e-19)
(1.00548 -0.00498116 -3.05409e-19)
(1.00123 -0.0010539 0)
(-0.0867754 1.80271 0)
(-0.0618 1.76505 0)
(-0.0655396 1.79068 0)
(-0.0989857 1.65753 0)
(-0.0587303 1.71463 0)
(-0.0710411 1.7021 0)
(1.03413 -0.00854558 0)
(1.02059 0.0150166 -1.17259e-21)
(0.780085 1.26015 5.14663e-19)
(1.0022 0.000308274 -2.57139e-19)
(1.00402 0.0052462 3.04775e-19)
(1.00121 0.00208119 0)
(1.01296 0.0101815 2.52185e-19)
(1.00809 0.00817312 -3.12756e-19)
(1.00875 0.0145866 0)
(-0.033518 1.99616 0)
(-0.0301625 1.94208 -2.1113e-20)
(-0.0229446 1.95199 1.84752e-20)
(1.19314 0.258945 -5.95187e-20)
(1.13131 0.0883716 0)
(0.0507699 3.07734 -5.24042e-19)
(0.0679368 2.85116 -4.17468e-20)
(0.146912 3.19626 8.30473e-19)
(0.141034 3.2256 -5.17993e-21)
(0.139064 3.24133 0)
(0.0215228 3.13853 1.14446e-19)
(0.0801325 3.16161 5.1089e-19)
(0.072521 3.18905 -2.20893e-19)
(0.0250904 3.12863 0)
(0.660849 0.323614 0)
(0.586765 0.37172 0)
(1.09344 0.672861 -2.44691e-19)
(1.09179 0.81027 3.80232e-19)
(1.14974 0.560846 0)
(1.18177 0.504324 0)
(1.01615 0.0130416 -4.66573e-19)
(1.01493 0.0140144 5.82933e-19)
(1.02509 -0.0105112 0)
(1.02331 -0.0121586 0)
(1.00692 0.00253794 0)
(1.01045 0.00340726 0)
(1.00461 0.00159627 0)
(1.00995 0.00617673 0)
(1.00797 0.00619984 0)
(1.00427 0.00437374 0)
(0.13199 1.33415 0)
(0.122465 1.24632 0)
(0.138962 1.39574 0)
(0.131996 1.38857 0)
(0.141347 2.58821 0)
(0.183072 2.64667 -2.1202e-19)
(0.108758 2.64093 0)
(0.087141 2.64158 8.14673e-22)
(0.017212 2.67651 2.05888e-19)
(-0.15286 1.08908 0)
(-0.17257 1.09102 0)
(-0.0852879 1.05953 0)
(-0.0196371 0.946312 0)
(-0.145599 2.34461 4.42909e-19)
(-0.247192 2.57315 -2.78045e-19)
(-0.20514 2.6946 -3.67834e-19)
(-0.215709 2.63859 0)
(-0.221861 2.46717 3.07035e-19)
(-0.169158 2.37299 2.48199e-19)
(-0.204849 2.33165 -3.7082e-19)
(-0.275739 2.52636 3.82466e-19)
(-0.25739 2.56832 4.65466e-19)
(1.01672 0.0308961 4.59891e-19)
(1.00982 0.0193862 -5.68708e-19)
(1.00864 0.0291812 -4.77631e-19)
(0.990969 0.012579 6.13471e-19)
(1.05292 0.00222281 0)
(1.04052 -0.0149805 0)
(1.07415 0.0358608 0)
(1.05812 0.0115073 0)
(1.05569 0.00536712 0)
(1.11528 0.0781882 0)
(1.08739 0.0487116 0)
(1.08943 0.0408442 0)
(-0.0598415 1.88811 -6.4072e-22)
(-0.0865261 1.86199 0)
(-0.0630536 1.86649 0)
(-0.0523908 2.06448 -1.43692e-20)
(-0.0374398 2.08743 1.99067e-21)
(-0.157431 1.82473 4.31742e-21)
(-0.106 1.79916 -4.37751e-21)
(-0.139148 1.70941 0)
(-0.105556 1.74728 0)
(-0.0907964 1.75584 0)
(-0.151184 1.59631 0)
(-0.107569 1.51175 0)
(0.378846 1.47755 8.2111e-19)
(0.40762 1.49294 3.22295e-19)
(0.595014 2.43345 -1.56336e-19)
(0.4068 2.52698 4.32824e-19)
(0.356341 2.08953 -4.76554e-20)
(1.02088 -0.00876462 0)
(1.01535 -0.0100823 0)
(1.01477 -0.0155248 0)
(1.0078 -0.00131906 0)
(1.00473 -0.00133532 0)
(1.00759 -0.00471778 0)
(1.00919 -0.00373284 0)
(1.01418 -0.00468831 0)
(1.02173 0.0156357 4.44131e-19)
(1.01747 0.0155547 -5.71205e-19)
(1.02296 0.0185031 -4.46335e-19)
(1.0188 0.018071 5.59209e-19)
(0.753429 1.31002 0)
(0.687008 1.36646 6.07296e-19)
(0.857026 1.20111 3.5212e-19)
(0.901027 1.1588 -4.6881e-19)
(1.15303 2.61758 -5.39085e-19)
(0.835253 0.104157 2.97602e-19)
(1.1318 0.102226 0)
(1.17541 0.18229 5.22983e-20)
(1.16088 0.157668 2.33592e-21)
(0.987001 0.123297 0)
(0.145778 2.96551 1.44131e-19)
(0.123289 2.87114 -6.79071e-19)
(0.0347543 2.35925 4.87406e-19)
(0.100641 0.0767201 -2.05841e-19)
(0.345238 3.42999 -4.3734e-19)
(0.198941 3.32066 0)
(0.240633 3.36509 5.69553e-19)
(0.253963 3.03932 -7.84383e-19)
(0.349153 3.19934 0)
(0.00804411 3.12058 2.67078e-20)
(0.0179783 3.1297 -3.39723e-19)
(0.0163733 3.12561 5.00032e-19)
(0.0379325 3.1398 0)
(0.0364384 3.15159 0)
(1.21763 2.61886 0)
(0.525758 0.851005 -2.43564e-19)
(1.02284 0.984093 -1.99314e-19)
(0.959852 1.05082 0)
(0.801967 0.948179 5.12337e-20)
(1.04471 0.863715 2.99396e-20)
(0.402227 0.439302 -5.4614e-19)
(0.699596 0.340469 -2.3933e-20)
(0.685153 0.277378 2.29933e-19)
(0.60069 0.401411 1.79863e-20)
(0.536978 0.378327 -7.37325e-19)
(0.670367 0.358247 0)
(0.697145 0.42848 3.77381e-19)
(0.696532 0.426174 0)
(0.630018 0.392404 0)
(0.618112 0.328157 0)
(0.773992 0.593059 1.36216e-19)
(1.19135 0.275777 3.48421e-20)
(1.18838 0.408351 0)
(1.19982 0.360485 0)
(0.768716 0.197181 3.40814e-19)
(0.823657 0.534045 -1.87895e-19)
(0.73525 0.502404 3.0794e-19)
(0.914816 0.420022 -2.90381e-19)
(1.01946 0.0144568 3.07346e-19)
(1.0178 0.0139795 -3.14321e-19)
(1.0157 0.015346 0)
(1.03498 -0.00623857 0)
(1.02924 -0.0095574 -2.83494e-19)
(1.0272 -0.012738 2.80631e-19)
(1.02527 0.00872281 0)
(1.02426 0.0126277 0)
(1.01136 0.0036602 0)
(1.01425 0.00871714 0)
(1.01506 0.00328544 0)
(1.01421 0.0022109 0)
(0.13004 1.23831 0)
(0.109169 1.08306 0)
(0.150901 1.38964 3.47633e-19)
(0.271959 1.45625 2.48274e-19)
(0.175565 1.43488 5.43883e-19)
(0.201941 1.43578 -8.81075e-19)
(0.163459 1.39393 0)
(0.106489 1.58951 2.53356e-19)
(0.0890568 1.56478 0)
(0.3469 2.04165 6.92706e-20)
(0.34846 2.36971 2.43121e-19)
(0.143871 1.45926 -2.21538e-19)
(0.263804 1.36375 1.90702e-19)
(0.179614 1.37529 -1.53034e-19)
(0.273828 1.31062 3.11574e-19)
(0.245295 1.57639 0)
(0.260696 1.62684 -2.04539e-19)
(0.0588945 2.34965 1.18398e-19)
(0.017697 2.68271 0)
(0.0740062 2.4096 -1.70844e-19)
(0.0515372 2.45716 0)
(0.0845102 2.64591 -2.08549e-21)
(0.044693 2.6939 0)
(-0.161689 1.45766 5.30278e-19)
(-0.053833 1.63009 0)
(0.0182561 1.30604 0)
(-0.111093 1.24516 -5.9772e-19)
(-0.147659 2.70477 -7.42069e-20)
(-0.0225023 2.74012 -3.07604e-19)
(-0.105894 2.73314 -1.80733e-21)
(-0.449948 2.16713 -1.68063e-19)
(-0.366451 2.10367 -1.81138e-19)
(-0.17286 1.18765 0)
(-0.132025 1.20913 0)
(0.168782 1.78546 -6.30738e-19)
(0.12783 1.47515 -7.05583e-19)
(0.0931875 1.66577 9.10011e-19)
(0.184045 1.78527 0)
(-0.157465 1.96885 4.35745e-20)
(-0.127009 2.04867 -2.33195e-20)
(-0.159315 2.10752 1.03567e-20)
(-0.437107 2.02932 2.03465e-19)
(-0.250343 2.28434 3.98239e-20)
(-0.265293 2.35301 -2.28445e-19)
(1.02114 0.022868 -3.03425e-19)
(1.01792 0.0271156 3.03619e-19)
(1.01385 0.0210703 0)
(1.00999 0.0492677 4.38855e-19)
(0.994962 0.0365984 -5.14007e-19)
(0.964065 0.0228191 5.95257e-19)
(1.01034 0.0851971 -5.6859e-20)
(1.04031 -0.00791772 0)
(1.04365 -0.00839971 2.535e-19)
(1.03503 -0.0154978 -2.54727e-19)
(1.06176 0.0407332 -1.40082e-20)
(1.05636 0.0209619 1.24583e-19)
(1.05886 0.0508707 0)
(1.05328 0.0419083 -4.6501e-20)
(1.03947 0.0303997 0)
(1.03544 0.0271459 0)
(1.02746 0.012104 0)
(1.02573 0.0151153 0)
(1.04776 0.0266445 9.70173e-20)
(1.04519 0.0182175 -2.19752e-19)
(1.05278 0.0245596 -9.76785e-20)
(1.05124 0.0260761 -1.13539e-19)
(1.06207 0.0586279 2.03433e-19)
(1.07932 0.052004 0)
(1.08526 0.0942927 0)
(-0.146484 1.9538 2.22648e-20)
(-0.107194 1.87041 -3.70706e-22)
(-0.118277 1.88931 0)
(-0.086974 1.95921 -2.22907e-20)
(-0.0647071 1.90278 9.6427e-22)
(-0.0749375 1.92901 2.68486e-21)
(-0.140853 2.33379 -2.50465e-19)
(-0.157365 2.17141 5.31573e-21)
(-0.202069 2.23772 -3.86639e-20)
(-0.0728072 2.19234 8.15727e-20)
(-0.0837667 2.21532 -9.22662e-20)
(-0.211887 1.7636 -1.22236e-21)
(-0.193413 1.83706 2.09462e-21)
(0.376076 1.39762 -4.07812e-19)
(0.372856 1.35579 -3.88218e-19)
(0.638275 1.41503 -5.85417e-19)
(0.51107 1.47901 -3.14297e-19)
(0.555674 1.45359 0)
(0.590336 2.40619 1.24493e-19)
(0.654123 2.39413 2.2664e-19)
(0.411269 2.50388 7.92981e-20)
(0.407152 2.55188 -1.78642e-19)
(0.519427 2.51007 2.69713e-19)
(0.548941 2.44677 0)
(0.489193 2.49402 -3.59773e-19)
(0.242039 2.5789 6.07893e-19)
(0.351944 2.5545 -8.23334e-20)
(0.283899 2.63565 -9.14421e-19)
(0.925097 2.37635 2.33051e-19)
(0.828757 2.36798 0)
(1.01032 0.000242795 1.02096e-20)
(1.01476 -0.00575178 -8.3415e-21)
(1.01809 -0.00389959 -1.50996e-19)
(1.01498 -0.000647403 1.51242e-19)
(1.01219 0.00105941 0)
(0.621163 1.26983 0)
(0.628824 1.16704 0)
(0.731395 1.07552 0)
(0.626539 1.1197 0)
(1.18303 2.634 5.61954e-20)
(1.06772 2.37027 0)
(0.840569 2.23496 -1.76671e-21)
(0.82234 2.47956 0)
(0.916051 2.56619 1.4436e-20)
(0.951852 2.52143 -9.63766e-21)
(0.843538 0.14585 0)
(0.813284 0.143304 8.57257e-20)
(0.927983 0.125245 4.40101e-19)
(0.865481 0.116119 -1.75459e-19)
(0.848327 0.0655633 -5.29866e-19)
(1.0402 0.216509 -2.57456e-19)
(0.957662 0.272317 -1.57776e-20)
(0.904138 0.272947 4.00831e-19)
(0.973165 0.199282 2.98304e-19)
(0.937651 0.159173 -5.55502e-19)
(0.911133 0.16997 7.19134e-20)
(0.938106 0.233932 -1.40285e-19)
(0.914755 0.193479 0)
(0.973079 0.157355 2.66335e-19)
(1.01641 0.164337 0)
(1.00994 0.191011 0)
(1.07782 0.110006 8.66669e-20)
(1.04038 0.157003 -1.30515e-20)
(1.03431 0.218815 -4.85483e-20)
(1.07037 0.191577 0)
(1.027 0.0304098 2.29253e-19)
(1.04496 0.0477768 2.73292e-19)
(1.04173 0.0319884 -2.26128e-19)
(1.04278 0.0531444 -1.8406e-19)
(1.02196 0.0548338 -3.08515e-19)
(0.974925 0.125518 0)
(0.989294 0.0784953 0)
(0.968654 0.0426113 -2.14521e-19)
(0.933457 0.0582318 8.90309e-20)
(1.03021 0.0852578 2.58837e-19)
(1.04624 0.110806 -2.64664e-19)
(1.05083 0.137598 2.41732e-19)
(1.017 0.124319 0)
(1.05573 0.0980283 0)
(1.04352 0.080648 -1.09996e-19)
(1.03962 0.0818513 -2.07987e-19)
(0.578676 1.0817 -9.3857e-20)
(0.619724 1.44014 1.94881e-19)
(1.15758 2.7584 9.83775e-20)
(1.22434 3.09624 -7.0281e-20)
(1.24765 2.73458 5.53018e-19)
(1.28025 2.71852 -3.3624e-19)
(1.20705 2.35445 -8.30886e-21)
(1.21056 2.99982 1.91714e-19)
(1.22862 2.96483 -2.10797e-19)
(1.21651 3.24991 -2.67453e-19)
(1.37903 2.98131 3.70337e-19)
(1.37198 2.89866 0)
(0.523595 0.861089 -1.35328e-20)
(0.159984 1.28244 3.79379e-19)
(0.527225 0.512833 3.58358e-19)
(0.364625 0.281822 3.93071e-19)
(0.550606 0.407157 4.13759e-19)
(0.5565 0.485555 -6.43186e-19)
(0.559497 0.490465 5.27279e-19)
(0.517562 0.442296 -2.15242e-19)
(0.460148 0.378482 4.93329e-19)
(0.777292 0.249421 -1.907e-19)
(0.730374 0.298277 0)
(0.726501 0.231522 1.08763e-20)
(0.724701 0.513112 1.93239e-19)
(0.692016 0.482976 -7.14735e-19)
(0.620339 0.477998 1.85224e-20)
(0.630999 0.460829 0)
(0.65717 0.722697 1.56339e-19)
(0.796446 0.750264 6.5459e-20)
(0.718309 0.832745 -8.42848e-20)
(0.839964 0.786894 -2.00694e-20)
(0.872922 0.831026 1.28992e-20)
(0.881468 0.831683 -1.32131e-20)
(0.814423 0.631342 -2.32891e-19)
(0.889002 0.683819 1.86598e-20)
(0.944245 0.698416 0)
(0.933865 0.676917 -1.88062e-20)
(0.983719 0.311292 6.50991e-20)
(1.10118 0.284622 1.02352e-20)
(1.02434 0.250653 1.05035e-19)
(0.966868 0.344243 -1.48988e-19)
(1.01554 0.404277 0)
(1.06254 0.3925 0)
(0.889102 0.353654 5.02483e-21)
(0.831451 0.28225 0)
(0.85177 0.274469 2.05504e-19)
(0.884579 0.278853 -5.774e-21)
(0.9065 0.423487 7.95506e-19)
(0.869573 0.48362 2.01331e-19)
(0.871512 0.449987 -2.57134e-19)
(0.800681 0.437099 2.75958e-19)
(0.786173 0.436601 1.8683e-19)
(0.752271 0.418553 -1.83433e-19)
(1.02676 -0.000927011 2.43395e-19)
(1.0199 -0.000123933 0)
(1.01834 0.000825171 1.61693e-19)
(1.02208 -0.00129488 -3.63969e-19)
(1.02193 0.00411931 1.76457e-19)
(1.0206 0.0105668 -3.70404e-19)
(1.02147 0.0100819 0)
(1.02067 0.0108085 -7.81819e-20)
(1.01594 0.00760166 1.95977e-19)
(1.01683 0.0102737 -9.87605e-20)
(1.01774 0.00948929 7.28175e-20)
(0.020015 1.04486 0)
(0.0973579 1.22468 0)
(0.0908507 1.09317 0)
(0.05893 0.967342 0)
(0.183059 1.36219 -7.52317e-19)
(0.172914 1.3363 2.4384e-19)
(0.171256 1.48558 1.58057e-19)
(0.145458 1.38454 -1.8845e-19)
(0.178024 1.51373 5.918e-19)
(0.196792 1.48076 -4.53078e-19)
(0.22798 1.35063 -2.63124e-20)
(0.238068 1.29805 5.20203e-19)
(0.187642 1.22294 7.52786e-20)
(0.180583 1.22307 7.52071e-20)
(0.104409 2.37436 1.88762e-19)
(0.0947272 2.41645 0)
(0.149967 2.06466 -3.50378e-20)
(0.116103 1.73167 -1.06765e-19)
(0.232004 2.057 2.54306e-20)
(0.206351 2.45642 0)
(0.269293 2.40888 -1.33957e-19)
(0.298754 2.41009 9.5528e-20)
(0.223162 2.01621 7.83725e-20)
(0.137153 2.18648 -1.18832e-21)
(0.13673 2.31668 0)
(0.097533 2.12471 6.246e-19)
(-0.103615 2.59804 6.30775e-19)
(-0.0450603 2.45899 0)
(0.0240101 2.57626 -3.07897e-20)
(0.0406669 2.4112 -2.83447e-19)
(-0.27535 1.33847 -6.3033e-20)
(-0.276144 1.3517 9.14797e-19)
(-0.301961 1.43466 -1.93492e-19)
(-0.364095 1.48133 -3.96151e-19)
(-0.235742 1.41778 0)
(-0.309579 1.40747 0)
(-0.179392 1.46423 -7.84721e-20)
(-0.277354 1.49374 2.55328e-20)
(-0.303626 1.41642 0)
(-0.199457 1.31133 -8.05736e-20)
(-0.128354 1.36806 1.37986e-19)
(1.04038 0.00281079 0)
(1.04169 0.000323032 -2.33953e-20)
(1.04514 0.0134974 -1.74742e-19)
(1.05086 0.0107116 0)
(1.05018 0.0080202 0)
(1.03816 0.00468218 -6.60449e-21)
(1.03325 0.00652473 2.87492e-19)
(1.03414 0.0114684 3.47638e-19)
(1.02748 0.0187905 0)
(1.02611 0.0199809 0)
(1.03999 0.0203126 1.75773e-19)
(1.03234 0.02351 0)
(1.02922 0.0226481 0)
(-0.310754 2.00663 0)
(-0.237469 1.85046 -5.8597e-21)
(-0.25277 1.95907 -1.33312e-20)
(-0.260769 1.57316 0)
(-0.306117 1.79842 -3.27401e-20)
(-0.244157 1.7303 -1.2274e-21)
(-0.235604 1.63952 0)
(0.394101 1.68004 0)
(0.371708 1.28682 6.37174e-19)
(0.302159 1.3406 0)
(0.422604 1.27632 -8.31538e-19)
(0.463301 1.44454 0)
(0.443307 1.39021 3.90034e-19)
(1.0265 2.70467 -4.35207e-21)
(0.947798 2.4118 -2.94255e-19)
(0.885192 2.16463 3.37579e-19)
(0.838918 2.36243 1.19394e-19)
(0.839262 2.51919 0)
(0.905775 2.51451 0)
(0.903217 2.37041 0)
(0.888677 2.34555 -4.48679e-19)
(0.691639 2.49444 -2.60826e-20)
(0.799422 2.48699 -1.57573e-20)
(0.807452 2.45893 1.20683e-20)
(0.686185 2.37361 0)
(0.793069 2.36914 0)
(0.751835 2.38017 -2.2834e-19)
(0.768355 2.50224 0)
(0.587448 1.08946 0)
(0.480697 0.939844 -7.82006e-21)
(0.528783 0.970058 -1.73625e-21)
(0.512765 1.06047 0)
(0.512421 1.01683 1.43478e-20)
(0.740572 0.858571 1.08389e-20)
(0.758951 1.00001 0)
(0.731316 0.955209 -5.7732e-20)
(0.608801 1.02213 0)
(0.614444 0.93695 0)
(1.16167 2.77847 5.28819e-20)
(1.1401 2.84278 1.22312e-19)
(0.934376 2.37147 -2.80735e-19)
(0.901739 2.34534 3.45604e-20)
(1.12478 2.74921 0)
(1.07555 2.72001 -4.13021e-20)
(1.0816 2.49455 -7.75927e-20)
(0.975362 2.23152 -3.03649e-20)
(0.487811 1.37172 0)
(0.497895 1.06951 8.27091e-20)
(0.540193 1.14936 0)
(0.856683 0.21872 0)
(0.819639 0.176805 0)
(0.779478 0.163795 0)
(0.849864 0.223704 -3.23176e-19)
(0.798448 0.221284 1.99401e-19)
(0.940637 0.0505872 -1.83007e-19)
(0.953049 0.0999282 0)
(0.925628 0.104912 8.23416e-20)
(0.888024 0.0808799 3.37196e-19)
(0.878337 0.0467235 -2.07116e-19)
(1.16692 3.3754 -9.8015e-19)
(1.21274 3.29485 0)
(1.16705 3.40201 -1.92972e-18)
(0.653695 3.56235 1.65663e-18)
(0.880768 3.12758 3.75429e-19)
(0.504324 0.886773 2.31805e-19)
(0.43234 0.875732 0)
(0.361049 0.54518 -8.61311e-20)
(0.453174 0.694427 3.94867e-19)
(0.534814 0.512517 -1.14324e-19)
(0.518616 0.538116 1.33139e-19)
(0.661883 0.528663 2.74392e-19)
(0.688864 0.545427 0)
(0.647978 0.617501 0)
(0.598765 0.549742 0)
(0.941828 0.585761 -4.89002e-20)
(0.873261 0.528467 -1.94701e-19)
(0.896481 0.561423 9.38748e-20)
(0.925465 0.501068 -1.4384e-19)
(1.02873 0.46276 0)
(1.03793 0.555907 -7.52111e-21)
(0.823225 0.391319 -4.14859e-19)
(0.826576 0.374927 -4.80888e-19)
(0.779285 0.389728 3.25228e-19)
(0.773564 0.357178 -3.66146e-19)
(0.825785 0.308546 -2.72296e-19)
(0.779632 0.313062 3.34951e-19)
(1.02589 0.0051871 -1.81636e-19)
(1.02571 0.00510481 3.68698e-19)
(1.03113 -0.000847701 2.30982e-19)
(1.03205 -0.000163209 -2.79094e-19)
(1.03423 0.00252189 0)
(1.03088 0.00389603 -4.4958e-19)
(0.155873 1.7393 -7.68366e-20)
(0.156002 1.68398 0)
(0.147702 1.74535 -5.26384e-19)
(0.138082 1.72449 4.81284e-19)
(0.163202 1.56189 -2.91535e-19)
(0.236849 1.58192 0)
(-0.468515 2.01464 0)
(-0.42069 1.72268 3.41068e-20)
(-0.390109 1.69403 -3.09141e-20)
(-0.327399 1.82262 -1.1099e-20)
(-0.328754 2.02851 3.72702e-20)
(-0.384499 2.04691 -3.30994e-20)
(0.48244 1.38422 4.06523e-19)
(0.476822 1.38709 -4.36489e-19)
(0.435255 1.2763 4.10885e-19)
(0.426351 1.29653 -2.48798e-20)
(0.612976 1.27886 0)
(0.530819 1.37014 5.32872e-19)
(0.552982 1.39677 -5.17352e-19)
(0.443513 1.26118 -3.95369e-19)
(0.488569 1.21885 0)
(0.5421 1.17869 0)
(0.661354 2.45441 3.82938e-20)
(0.669386 2.4724 5.46156e-19)
(0.71986 2.489 -3.75445e-19)
(0.628261 2.47418 -1.21201e-19)
(0.567608 2.57159 1.00878e-19)
(0.515982 2.54178 -3.03386e-19)
(0.961549 2.37398 -1.81946e-19)
(1.00596 2.39653 0)
(0.899881 2.14565 -2.51736e-19)
(1.04431 2.7001 0)
(1.04542 2.68736 0)
(0.62488 2.29571 2.38205e-19)
(1.0463 3.17661 4.79686e-19)
(0.917855 3.04602 -4.25846e-19)
(0.295344 0.967076 0)
(0.350277 0.840384 -1.5724e-19)
(0.496254 0.791927 -7.25135e-20)
(0.408244 2.04548 0)
(0.474642 2.79344 -2.61357e-19)
(0.434926 2.55863 0)
(0.673799 0.662232 -3.24442e-19)
(0.743733 0.654577 4.13031e-19)
(0.771459 0.606412 -4.03006e-19)
(0.67113 0.631692 -4.77947e-20)
(0.720771 0.587132 -1.94431e-19)
(1.00666 2.78407 -3.64666e-19)
(1.03987 2.83935 2.82873e-19)
(0.651477 2.19275 5.91666e-20)
(0.60635 1.73955 -7.27269e-20)
(0.704354 1.92743 1.03077e-19)
(0.991029 2.46698 -6.96836e-20)
(0.993745 2.46465 -1.57337e-19)
(0.671659 1.87916 -4.79136e-21)
(0.457806 1.35241 -7.58304e-20)
)
;

boundaryField
{
    wall-4
    {
        type            noSlip;
    }
    velocity-inlet-5
    {
        type            fixedValue;
        value           uniform (1 0 0);
    }
    velocity-inlet-6
    {
        type            fixedValue;
        value           uniform (0 3 0);
    }
    pressure-outlet-7
    {
        type            zeroGradient;
    }
    wall-8
    {
        type            noSlip;
    }
    frontAndBackPlanes
    {
        type            empty;
    }
}


// ************************************************************************* //
