/*--------------------------------*- C++ -*----------------------------------*\
  =========                 |
  \\      /  F ield         | OpenFOAM: The Open Source CFD Toolbox
   \\    /   O peration     | Website:  https://openfoam.org
    \\  /    A nd           | Version:  13
     \\/     M anipulation  |
\*---------------------------------------------------------------------------*/
FoamFile
{
    format      ascii;
    class       volScalarField;
    location    "4.885";
    object      T;
}
// * * * * * * * * * * * * * * * * * * * * * * * * * * * * * * * * * * * * * //

dimensions      [0 0 0 1 0 0 0];

internalField   nonuniform List<scalar> 
1000
(
3.3625e-46
4.04236e-46
5.53689e-46
8.14195e-46
1.23718e-45
1.90588e-45
2.95136e-45
4.57772e-45
7.10114e-45
1.10101e-44
1.7058e-44
2.64056e-44
4.0839e-44
6.31042e-44
9.74185e-44
1.50253e-43
2.31529e-43
3.56438e-43
5.48228e-43
8.42434e-43
1.29333e-42
1.98371e-42
3.03979e-42
4.6538e-42
7.11817e-42
1.08774e-41
1.66066e-41
2.53297e-41
3.85991e-41
5.87652e-41
8.93839e-41
1.35829e-40
2.06217e-40
3.12788e-40
4.73993e-40
7.17611e-40
1.08543e-39
1.64024e-39
2.47633e-39
3.73513e-39
5.62855e-39
8.47387e-39
1.27456e-38
1.91529e-38
2.87543e-38
4.31284e-38
6.46277e-38
9.67536e-38
1.44714e-37
2.16244e-37
3.22829e-37
4.81497e-37
7.17477e-37
1.06811e-36
1.5886e-36
2.36051e-36
3.5042e-36
5.19715e-36
7.70075e-36
1.13997e-35
1.68595e-35
2.49107e-35
3.67723e-35
5.42309e-35
7.9903e-35
1.17617e-34
1.72969e-34
2.54132e-34
3.73025e-34
5.47027e-34
8.01437e-34
1.17306e-33
1.71538e-33
2.50606e-33
3.65773e-33
5.33361e-33
7.76999e-33
1.13086e-32
1.64432e-32
2.38866e-32
3.46665e-32
5.02638e-32
7.28097e-32
1.05369e-31
1.52343e-31
2.20049e-31
3.17546e-31
4.57807e-31
6.59394e-31
9.48846e-31
1.36406e-30
1.95911e-30
2.81108e-30
4.02971e-30
5.77113e-30
8.25725e-30
1.18031e-29
1.68556e-29
2.40481e-29
3.42769e-29
4.881e-29
6.94389e-29
9.86922e-29
1.40136e-28
1.98793e-28
2.81733e-28
3.98898e-28
5.64249e-28
7.97379e-28
1.12576e-27
1.58785e-27
2.23747e-27
3.14987e-27
4.43008e-27
6.22466e-27
8.73784e-27
1.2254e-26
1.71686e-26
2.40312e-26
3.36048e-26
4.69473e-26
6.55245e-26
9.13651e-26
1.27274e-25
1.77127e-25
2.46271e-25
3.42076e-25
4.74698e-25
6.58103e-25
9.11494e-25
1.26124e-24
1.7435e-24
2.40785e-24
3.32215e-24
4.57923e-24
6.30591e-24
8.67531e-24
1.19235e-23
1.63721e-23
2.24589e-23
3.07789e-23
4.21404e-23
5.76404e-23
7.87655e-23
1.07529e-22
1.46656e-22
1.99826e-22
2.7201e-22
3.69913e-22
5.02569e-22
6.82137e-22
9.24972e-22
1.25304e-21
1.69583e-21
2.29288e-21
3.09713e-21
4.17944e-21
5.63451e-21
7.58882e-21
1.02111e-20
1.37262e-20
1.84335e-20
2.47311e-20
3.31482e-20
4.4387e-20
5.93787e-20
7.93569e-20
1.05954e-19
1.41329e-19
1.88331e-19
2.50721e-19
3.33456e-19
4.43064e-19
5.88128e-19
7.7993e-19
1.03328e-18
1.3676e-18
1.80833e-18
2.38877e-18
3.15246e-18
4.15626e-18
5.47436e-18
7.20348e-18
9.46953e-18
1.24363e-17
1.63168e-17
2.13872e-17
2.80059e-17
3.66373e-17
4.78822e-17
6.25176e-17
8.15469e-17
1.06265e-16
1.3834e-16
1.79922e-16
2.33775e-16
3.0345e-16
3.93508e-16
5.09796e-16
6.59806e-16
8.53123e-16
1.10201e-15
1.42211e-15
1.8334e-15
2.36134e-15
3.03834e-15
3.90562e-15
5.01556e-15
6.43465e-15
8.24719e-15
1.056e-14
1.35082e-14
1.72626e-14
2.20389e-14
2.81093e-14
3.58167e-14
4.55928e-14
5.79807e-14
7.36623e-14
9.34939e-14
1.18548e-13
1.5017e-13
1.90041e-13
2.40263e-13
3.03459e-13
3.82903e-13
4.82673e-13
6.07844e-13
7.64727e-13
9.6116e-13
1.20687e-12
1.5139e-12
1.8972e-12
2.3752e-12
2.97074e-12
3.71195e-12
4.63357e-12
5.77834e-12
7.19889e-12
8.95989e-12
1.11407e-11
1.38389e-11
1.71736e-11
2.1291e-11
2.63698e-11
3.26281e-11
4.03321e-11
4.98063e-11
6.14458e-11
7.57312e-11
9.32463e-11
1.147e-10
1.40951e-10
1.73041e-10
2.12229e-10
2.60036e-10
3.183e-10
3.89238e-10
4.75519e-10
5.80357e-10
7.07614e-10
8.61931e-10
1.04887e-09
1.27511e-09
1.54863e-09
1.87898e-09
2.27756e-09
2.75799e-09
3.3365e-09
4.03239e-09
4.86866e-09
5.87261e-09
7.07664e-09
8.51918e-09
1.02457e-08
1.23102e-08
1.47761e-08
1.77186e-08
2.12262e-08
2.54035e-08
3.0373e-08
3.62791e-08
4.32914e-08
5.16085e-08
6.14633e-08
7.31284e-08
8.69223e-08
1.03217e-07
1.22447e-07
1.45117e-07
1.71817e-07
2.0323e-07
2.40152e-07
2.83505e-07
3.34357e-07
3.93945e-07
4.637e-07
5.45274e-07
6.40573e-07
7.51794e-07
8.81465e-07
1.03249e-06
1.20822e-06
1.41248e-06
1.64966e-06
1.9248e-06
2.24363e-06
2.61273e-06
3.03959e-06
3.53276e-06
4.10194e-06
4.75819e-06
5.51408e-06
6.38384e-06
7.3836e-06
8.53165e-06
9.84864e-06
1.13579e-05
1.30857e-05
1.50618e-05
1.73195e-05
1.98963e-05
2.28343e-05
2.61809e-05
2.99888e-05
3.43174e-05
3.92329e-05
4.4809e-05
5.11283e-05
5.82825e-05
6.63736e-05
7.55151e-05
8.58329e-05
9.74665e-05
0.00011057
0.000125315
0.00014189
0.000160502
0.000181382
0.000204781
0.000230977
0.000260274
0.000293006
0.00032954
0.000370274
0.000415645
0.00046613
0.000522249
0.000584566
0.000653696
0.000730305
0.000815116
0.000908911
0.00101254
0.00112691
0.00125301
0.0013919
0.00154473
0.00171271
0.00189717
0.00209952
0.00232126
0.002564
0.00282947
0.00311948
0.003436
0.0037811
0.00415695
0.0045659
0.0050104
0.00549305
0.00601659
0.00658391
0.00719803
0.00786214
0.00857958
0.00935384
0.0101886
0.0110876
0.0120548
0.0130943
0.0142105
0.0154077
0.0166906
0.0180637
0.0195321
0.0211006
0.0227745
0.0245589
0.0264592
0.0284809
0.0306295
0.0329107
0.0353302
0.0378937
0.040607
0.043476
0.0465064
0.0497042
0.053075
0.0566247
0.0603588
0.064283
0.0684026
0.0727231
0.0772496
0.081987
0.0869402
0.0921135
0.0975114
0.103138
0.108996
0.11509
0.121422
0.127996
0.134812
0.141874
0.149181
0.156736
0.164539
0.172588
0.180884
0.189426
0.198211
0.207238
0.216503
0.226002
0.235733
0.24569
0.255868
0.26626
0.276862
0.287665
0.298663
0.309847
0.321208
0.332737
0.344426
0.356262
0.368237
0.380339
0.392556
0.404877
0.417289
0.42978
0.442337
0.454948
0.467598
0.480274
0.492964
0.505652
0.518326
0.530971
0.543574
0.55612
0.568597
0.58099
0.593286
0.605471
0.617533
0.629459
0.641235
0.65285
0.664291
0.675547
0.686607
0.697459
0.708092
0.718497
0.728663
0.738581
0.748242
0.757638
0.76676
0.775601
0.784153
0.792409
0.800363
0.808008
0.81534
0.822352
0.82904
0.835399
0.841426
0.847115
0.852465
0.857471
0.86213
0.86644
0.870399
0.874004
0.877254
0.880146
0.88268
0.884854
0.886668
0.88812
0.889209
0.889935
0.890299
0.890299
0.889935
0.889209
0.88812
0.886668
0.884854
0.88268
0.880146
0.877254
0.874004
0.870399
0.86644
0.86213
0.857471
0.852465
0.847115
0.841426
0.835399
0.82904
0.822352
0.81534
0.808008
0.800363
0.792409
0.784153
0.775601
0.76676
0.757638
0.748242
0.738581
0.728663
0.718497
0.708092
0.697459
0.686607
0.675547
0.664291
0.65285
0.641235
0.629459
0.617533
0.605471
0.593286
0.58099
0.568597
0.55612
0.543574
0.530971
0.518326
0.505652
0.492964
0.480274
0.467598
0.454948
0.442337
0.42978
0.417289
0.404877
0.392556
0.380339
0.368237
0.356262
0.344426
0.332737
0.321208
0.309847
0.298663
0.287665
0.276862
0.26626
0.255868
0.24569
0.235733
0.226002
0.216503
0.207238
0.198211
0.189426
0.180884
0.172588
0.164539
0.156736
0.149181
0.141874
0.134812
0.127996
0.121422
0.11509
0.108996
0.103138
0.0975114
0.0921135
0.0869402
0.081987
0.0772496
0.0727231
0.0684026
0.064283
0.0603588
0.0566247
0.053075
0.0497042
0.0465064
0.043476
0.040607
0.0378937
0.0353302
0.0329107
0.0306295
0.0284809
0.0264592
0.0245589
0.0227745
0.0211006
0.0195321
0.0180637
0.0166906
0.0154077
0.0142105
0.0130943
0.0120548
0.0110876
0.0101886
0.00935384
0.00857958
0.00786214
0.00719803
0.00658391
0.00601659
0.00549305
0.0050104
0.0045659
0.00415695
0.0037811
0.003436
0.00311948
0.00282947
0.002564
0.00232126
0.00209952
0.00189717
0.00171271
0.00154473
0.0013919
0.00125301
0.00112691
0.00101254
0.000908911
0.000815116
0.000730305
0.000653696
0.000584566
0.000522249
0.00046613
0.000415645
0.000370274
0.00032954
0.000293006
0.000260274
0.000230977
0.000204781
0.000181382
0.000160502
0.00014189
0.000125315
0.00011057
9.74665e-05
8.58329e-05
7.55151e-05
6.63736e-05
5.82825e-05
5.11283e-05
4.4809e-05
3.92329e-05
3.43174e-05
2.99888e-05
2.61809e-05
2.28343e-05
1.98963e-05
1.73195e-05
1.50618e-05
1.30857e-05
1.13579e-05
9.84864e-06
8.53165e-06
7.3836e-06
6.38384e-06
5.51408e-06
4.75819e-06
4.10194e-06
3.53276e-06
3.03959e-06
2.61273e-06
2.24363e-06
1.9248e-06
1.64966e-06
1.41248e-06
1.20822e-06
1.03249e-06
8.81465e-07
7.51794e-07
6.40573e-07
5.45274e-07
4.637e-07
3.93945e-07
3.34357e-07
2.83505e-07
2.40152e-07
2.0323e-07
1.71817e-07
1.45117e-07
1.22447e-07
1.03217e-07
8.69223e-08
7.31284e-08
6.14633e-08
5.16085e-08
4.32914e-08
3.62791e-08
3.0373e-08
2.54035e-08
2.12262e-08
1.77186e-08
1.47761e-08
1.23102e-08
1.02457e-08
8.51918e-09
7.07664e-09
5.87261e-09
4.86866e-09
4.03239e-09
3.3365e-09
2.75799e-09
2.27756e-09
1.87898e-09
1.54863e-09
1.27511e-09
1.04887e-09
8.61931e-10
7.07614e-10
5.80357e-10
4.75519e-10
3.89238e-10
3.183e-10
2.60036e-10
2.12229e-10
1.73041e-10
1.40951e-10
1.147e-10
9.32463e-11
7.57312e-11
6.14458e-11
4.98063e-11
4.03321e-11
3.26281e-11
2.63698e-11
2.1291e-11
1.71736e-11
1.38389e-11
1.11407e-11
8.95989e-12
7.19889e-12
5.77834e-12
4.63357e-12
3.71195e-12
2.97074e-12
2.3752e-12
1.8972e-12
1.5139e-12
1.20687e-12
9.6116e-13
7.64727e-13
6.07844e-13
4.82673e-13
3.82903e-13
3.03459e-13
2.40263e-13
1.90041e-13
1.5017e-13
1.18548e-13
9.34939e-14
7.36623e-14
5.79807e-14
4.55928e-14
3.58167e-14
2.81093e-14
2.20389e-14
1.72626e-14
1.35082e-14
1.056e-14
8.24719e-15
6.43465e-15
5.01556e-15
3.90562e-15
3.03834e-15
2.36134e-15
1.8334e-15
1.42211e-15
1.10201e-15
8.53123e-16
6.59806e-16
5.09796e-16
3.93508e-16
3.0345e-16
2.33775e-16
1.79922e-16
1.3834e-16
1.06265e-16
8.15469e-17
6.25176e-17
4.78822e-17
3.66373e-17
2.80059e-17
2.13872e-17
1.63168e-17
1.24363e-17
9.46953e-18
7.20348e-18
5.47436e-18
4.15626e-18
3.15246e-18
2.38877e-18
1.80833e-18
1.3676e-18
1.03328e-18
7.7993e-19
5.88128e-19
4.43064e-19
3.33456e-19
2.50721e-19
1.88331e-19
1.41329e-19
1.05954e-19
7.93569e-20
5.93787e-20
4.4387e-20
3.31482e-20
2.47311e-20
1.84335e-20
1.37262e-20
1.02111e-20
7.58882e-21
5.63451e-21
4.17944e-21
3.09713e-21
2.29288e-21
1.69583e-21
1.25304e-21
9.24972e-22
6.82137e-22
5.02569e-22
3.69913e-22
2.7201e-22
1.99826e-22
1.46656e-22
1.07529e-22
7.87655e-23
5.76404e-23
4.21404e-23
3.07789e-23
2.24589e-23
1.63721e-23
1.19235e-23
8.67531e-24
6.30591e-24
4.57923e-24
3.32215e-24
2.40785e-24
1.7435e-24
1.26124e-24
9.11494e-25
6.58103e-25
4.74698e-25
3.42076e-25
2.46271e-25
1.77127e-25
1.27274e-25
9.13651e-26
6.55245e-26
4.69473e-26
3.36048e-26
2.40312e-26
1.71686e-26
1.2254e-26
8.73784e-27
6.22466e-27
4.43008e-27
3.14987e-27
2.23747e-27
1.58785e-27
1.12576e-27
7.97379e-28
5.64249e-28
3.98898e-28
2.81733e-28
1.98793e-28
1.40136e-28
9.86922e-29
6.94389e-29
4.881e-29
3.42769e-29
2.40481e-29
1.68556e-29
1.18031e-29
8.25725e-30
5.77113e-30
4.02971e-30
2.81108e-30
1.95911e-30
1.36406e-30
9.48846e-31
6.59394e-31
4.57807e-31
3.17546e-31
2.20049e-31
1.52343e-31
1.05369e-31
7.28097e-32
5.02638e-32
3.46665e-32
2.38866e-32
1.64432e-32
1.13086e-32
7.76999e-33
5.33361e-33
3.65773e-33
2.50606e-33
1.71538e-33
1.17306e-33
8.01437e-34
5.47027e-34
3.73025e-34
2.54132e-34
1.72969e-34
1.17617e-34
7.9903e-35
5.42309e-35
3.67723e-35
2.49107e-35
1.68595e-35
1.13997e-35
7.70075e-36
5.19715e-36
3.5042e-36
2.36051e-36
1.5886e-36
1.06811e-36
7.17477e-37
4.81497e-37
3.22829e-37
2.16244e-37
1.44714e-37
9.67536e-38
6.46277e-38
4.31284e-38
2.87543e-38
1.91529e-38
1.27456e-38
8.47387e-39
5.62855e-39
3.73513e-39
2.47633e-39
1.64024e-39
1.08543e-39
7.17611e-40
4.73993e-40
3.12788e-40
2.06217e-40
1.35829e-40
8.93839e-41
5.87652e-41
3.85991e-41
2.53297e-41
1.66066e-41
1.08774e-41
7.11817e-42
4.6538e-42
3.03979e-42
1.98371e-42
1.29333e-42
8.42434e-43
5.48228e-43
3.56438e-43
2.31529e-43
1.50253e-43
9.74185e-44
6.31042e-44
4.0839e-44
2.64056e-44
1.7058e-44
1.10101e-44
7.10114e-45
4.57772e-45
2.95136e-45
1.90588e-45
1.23718e-45
8.14195e-46
5.53689e-46
4.04236e-46
3.3625e-46
)
;

boundaryField
{
    sides
    {
        type            zeroGradient;
    }
    empty
    {
        type            empty;
    }
}


// ************************************************************************* //
