/*--------------------------------*- C++ -*----------------------------------*\
  =========                 |
  \\      /  F ield         | OpenFOAM: The Open Source CFD Toolbox
   \\    /   O peration     | Website:  https://openfoam.org
    \\  /    A nd           | Version:  13
     \\/     M anipulation  |
\*---------------------------------------------------------------------------*/
FoamFile
{
    format      ascii;
    class       volScalarField;
    location    "0.355";
    object      T;
}
// * * * * * * * * * * * * * * * * * * * * * * * * * * * * * * * * * * * * * //

dimensions      [0 0 0 1 0 0 0];

internalField   nonuniform List<scalar> 
1000
(
0
0
2.66795e-322
3.38929e-321
3.91843e-320
4.49377e-319
5.13896e-318
5.86462e-317
6.6795e-316
7.59256e-315
8.6133e-314
9.75184e-313
1.10189e-311
1.24256e-310
1.39839e-309
1.5706e-308
1.76046e-307
1.9693e-306
2.19844e-305
2.44928e-304
2.72318e-303
3.02154e-302
3.34573e-301
3.69712e-300
4.07702e-299
4.4867e-298
4.92734e-297
5.40007e-296
5.90587e-295
6.4456e-294
7.01998e-293
7.62957e-292
8.2747e-291
8.95552e-290
9.67193e-289
1.04236e-287
1.12098e-286
1.20298e-285
1.28823e-284
1.37657e-283
1.46783e-282
1.56177e-281
1.65815e-280
1.75668e-279
1.85704e-278
1.95888e-277
2.06181e-276
2.16541e-275
2.26925e-274
2.37286e-273
2.47575e-272
2.57741e-271
2.67731e-270
2.77493e-269
2.86971e-268
2.96113e-267
3.04863e-266
3.13169e-265
3.2098e-264
3.28244e-263
3.34915e-262
3.40948e-261
3.46302e-260
3.5094e-259
3.54828e-258
3.57938e-257
3.60247e-256
3.61736e-255
3.62393e-254
3.62212e-253
3.6119e-252
3.59334e-251
3.56653e-250
3.53163e-249
3.48887e-248
3.43852e-247
3.3809e-246
3.31638e-245
3.24537e-244
3.16832e-243
3.08572e-242
2.99808e-241
2.90594e-240
2.80985e-239
2.71038e-238
2.60811e-237
2.50359e-236
2.39742e-235
2.29014e-234
2.1823e-233
2.07444e-232
1.96705e-231
1.8606e-230
1.75556e-229
1.65234e-228
1.5513e-227
1.4528e-226
1.35715e-225
1.26461e-224
1.1754e-223
1.08972e-222
1.00773e-221
9.29531e-221
8.55214e-220
7.84824e-219
7.18378e-218
6.55864e-217
5.97243e-216
5.42453e-215
4.91408e-214
4.44006e-213
4.00127e-212
3.59639e-211
3.22397e-210
2.88249e-209
2.57035e-208
2.28593e-207
2.02757e-206
1.7936e-205
1.58237e-204
1.39227e-203
1.2217e-202
1.06913e-201
9.33069e-201
8.12108e-200
7.04897e-199
6.10163e-198
5.26709e-197
4.53415e-196
3.8924e-195
3.33221e-194
2.84469e-193
2.42172e-192
2.05586e-191
1.74037e-190
1.46913e-189
1.23666e-188
1.03801e-187
8.68797e-187
7.25087e-186
6.03414e-185
5.00713e-184
4.14292e-183
3.41794e-182
2.81164e-181
2.30614e-180
1.88599e-179
1.53786e-178
1.2503e-177
1.0135e-176
8.19116e-176
6.60044e-175
5.30275e-174
4.24744e-173
3.39192e-172
2.70055e-171
2.14359e-170
1.69633e-169
1.3383e-168
1.05261e-167
8.25364e-167
6.45185e-166
5.02781e-165
3.90593e-164
3.02493e-163
2.33533e-162
1.79729e-161
1.37886e-160
1.05451e-159
8.03895e-159
6.10895e-158
4.62749e-157
3.49407e-156
2.62979e-155
1.9729e-154
1.47531e-153
1.09963e-152
8.1694e-152
6.04939e-151
4.46481e-150
3.28443e-149
2.40812e-148
1.75975e-147
1.28166e-146
9.30335e-146
6.73045e-145
4.85268e-144
3.48696e-143
2.49709e-142
1.78213e-141
1.26751e-140
8.98406e-140
6.34587e-139
4.46687e-138
3.13331e-137
2.1902e-136
1.5256e-135
1.05893e-134
7.32419e-134
5.04788e-133
3.46665e-132
2.37223e-131
1.61749e-130
1.09891e-129
7.43888e-129
5.01736e-128
3.37176e-127
2.2576e-126
1.50604e-125
1.00098e-124
6.62825e-124
4.37276e-123
2.87401e-122
1.88187e-121
1.22759e-120
7.97757e-120
5.16461e-119
3.33078e-118
2.13988e-117
1.36949e-116
8.73073e-116
5.54441e-115
3.50725e-114
2.20992e-113
1.38701e-112
8.67093e-112
5.3992e-111
3.3486e-110
2.06852e-109
1.27265e-108
7.79846e-108
4.75934e-107
2.89279e-106
1.7511e-105
1.05565e-104
6.33781e-104
3.78929e-103
2.25616e-102
1.33772e-101
7.89836e-101
4.64383e-100
2.71879e-99
1.58499e-98
9.20068e-98
5.31799e-97
3.06057e-96
1.75377e-95
1.00058e-94
5.6837e-94
3.21441e-93
1.8099e-92
1.01456e-91
5.66197e-91
3.14566e-90
1.7398e-89
9.57913e-89
5.25023e-88
2.8645e-87
1.5557e-86
8.41012e-86
4.5255e-85
2.42387e-84
1.29218e-83
6.85636e-83
3.62088e-82
1.90315e-81
9.95544e-81
5.18282e-80
2.68522e-79
1.38449e-78
7.10376e-78
3.62712e-77
1.8429e-76
9.31741e-76
4.68741e-75
2.3464e-74
1.16867e-73
5.79154e-73
2.85557e-72
1.40081e-71
6.83664e-71
3.31947e-70
1.60342e-69
7.70488e-69
3.68309e-68
1.75136e-67
8.28404e-67
3.89763e-66
1.82405e-65
8.49066e-65
3.93096e-64
1.81008e-63
8.28941e-63
3.77542e-62
1.71005e-61
7.70265e-61
3.45022e-60
1.53679e-59
6.80661e-59
2.99765e-58
1.31265e-57
5.71513e-57
2.47396e-56
1.06473e-55
4.5556e-55
1.93776e-54
8.19388e-54
3.44426e-53
1.43915e-52
5.9773e-52
2.46761e-51
1.01252e-50
4.12927e-50
1.67367e-49
6.74176e-49
2.6988e-48
1.07361e-47
4.24406e-47
1.6671e-46
6.50679e-46
2.52338e-45
9.72283e-45
3.72201e-44
1.41553e-43
5.34815e-43
2.00729e-42
7.48375e-42
2.7715e-41
1.01948e-40
3.72471e-40
1.35156e-39
4.8707e-39
1.74316e-38
6.19524e-38
2.18641e-37
7.66193e-37
2.66599e-36
9.21027e-36
3.15907e-35
1.07572e-34
3.63637e-34
1.22025e-33
4.06463e-33
1.34388e-32
4.41006e-32
1.43633e-31
4.64266e-31
1.48922e-30
4.74034e-30
1.49725e-29
4.69236e-29
1.45907e-28
4.50121e-28
1.3776e-27
4.18248e-27
1.25962e-26
3.76283e-26
1.1149e-25
3.27624e-25
9.54798e-25
2.75942e-24
7.90804e-24
2.24719e-23
6.33144e-23
1.76861e-22
4.89783e-22
1.34459e-21
3.65899e-21
9.86948e-21
2.63852e-20
6.99089e-20
1.83562e-19
4.77619e-19
1.23141e-18
3.14572e-18
7.96162e-18
1.99627e-17
4.95844e-17
1.21997e-16
2.97306e-16
7.17593e-16
1.71531e-15
4.06041e-15
9.51759e-15
2.20895e-14
5.07593e-14
1.15475e-13
2.60057e-13
5.79737e-13
1.27922e-12
2.79368e-12
6.03806e-12
1.29145e-11
2.73329e-11
5.72388e-11
1.18594e-10
2.43094e-10
4.92935e-10
9.88741e-10
1.96165e-09
3.84927e-09
7.47001e-09
1.43358e-08
2.72052e-08
5.10483e-08
9.4707e-08
1.73711e-07
3.14984e-07
5.64597e-07
1.00035e-06
1.75187e-06
3.03224e-06
5.18697e-06
8.76854e-06
1.46481e-05
2.41801e-05
3.94395e-05
6.35603e-05
0.000101205
0.000159207
0.000247429
0.000379887
0.000576184
0.0008633
0.00127775
0.00186814
0.00269802
0.00384906
0.00542423
0.00755092
0.0103836
0.0141055
0.0189297
0.0250971
0.0328742
0.0425466
0.0544105
0.0687617
0.0858814
0.10602
0.129381
0.156102
0.18624
0.219754
0.256502
0.29623
0.338575
0.383076
0.429183
0.476283
0.523717
0.570817
0.616924
0.661425
0.70377
0.743498
0.780246
0.81376
0.843898
0.870619
0.89398
0.914119
0.931238
0.94559
0.957453
0.967126
0.974903
0.98107
0.985894
0.989616
0.992449
0.994576
0.996151
0.997302
0.998132
0.998722
0.999137
0.999424
0.99962
0.999753
0.999841
0.999899
0.999936
0.999961
0.999976
0.999985
0.999991
0.999995
0.999997
0.999998
0.999999
0.999999
1
1
1
1
1
1
1
1
1
1
1
1
1
1
1
1
0.999999
0.999999
0.999998
0.999997
0.999995
0.999991
0.999985
0.999976
0.999961
0.999936
0.999899
0.999841
0.999753
0.99962
0.999424
0.999137
0.998722
0.998132
0.997302
0.996151
0.994576
0.992449
0.989616
0.985894
0.98107
0.974903
0.967126
0.957453
0.94559
0.931238
0.914119
0.89398
0.870619
0.843898
0.81376
0.780246
0.743498
0.70377
0.661425
0.616924
0.570817
0.523717
0.476283
0.429183
0.383076
0.338575
0.29623
0.256502
0.219754
0.18624
0.156102
0.129381
0.10602
0.0858814
0.0687617
0.0544105
0.0425466
0.0328742
0.0250971
0.0189297
0.0141055
0.0103836
0.00755092
0.00542423
0.00384906
0.00269802
0.00186814
0.00127775
0.0008633
0.000576184
0.000379887
0.000247429
0.000159207
0.000101205
6.35603e-05
3.94395e-05
2.41801e-05
1.46481e-05
8.76854e-06
5.18697e-06
3.03224e-06
1.75187e-06
1.00035e-06
5.64597e-07
3.14984e-07
1.73711e-07
9.4707e-08
5.10483e-08
2.72052e-08
1.43358e-08
7.47001e-09
3.84927e-09
1.96165e-09
9.88741e-10
4.92935e-10
2.43094e-10
1.18594e-10
5.72388e-11
2.73329e-11
1.29145e-11
6.03806e-12
2.79368e-12
1.27922e-12
5.79737e-13
2.60057e-13
1.15475e-13
5.07593e-14
2.20895e-14
9.51759e-15
4.06041e-15
1.71531e-15
7.17593e-16
2.97306e-16
1.21997e-16
4.95844e-17
1.99627e-17
7.96162e-18
3.14572e-18
1.23141e-18
4.77619e-19
1.83562e-19
6.99089e-20
2.63852e-20
9.86948e-21
3.65899e-21
1.34459e-21
4.89783e-22
1.76861e-22
6.33144e-23
2.24719e-23
7.90804e-24
2.75942e-24
9.54798e-25
3.27624e-25
1.1149e-25
3.76283e-26
1.25962e-26
4.18248e-27
1.3776e-27
4.50121e-28
1.45907e-28
4.69236e-29
1.49725e-29
4.74034e-30
1.48922e-30
4.64266e-31
1.43633e-31
4.41006e-32
1.34388e-32
4.06463e-33
1.22025e-33
3.63637e-34
1.07572e-34
3.15907e-35
9.21027e-36
2.66599e-36
7.66193e-37
2.18641e-37
6.19524e-38
1.74316e-38
4.8707e-39
1.35156e-39
3.72471e-40
1.01948e-40
2.7715e-41
7.48375e-42
2.00729e-42
5.34815e-43
1.41553e-43
3.72201e-44
9.72283e-45
2.52338e-45
6.50679e-46
1.6671e-46
4.24406e-47
1.07361e-47
2.6988e-48
6.74176e-49
1.67367e-49
4.12927e-50
1.01252e-50
2.46761e-51
5.9773e-52
1.43915e-52
3.44426e-53
8.19388e-54
1.93776e-54
4.5556e-55
1.06473e-55
2.47396e-56
5.71513e-57
1.31265e-57
2.99765e-58
6.80661e-59
1.53679e-59
3.45022e-60
7.70265e-61
1.71005e-61
3.77542e-62
8.28941e-63
1.81008e-63
3.93096e-64
8.49066e-65
1.82405e-65
3.89763e-66
8.28404e-67
1.75136e-67
3.68309e-68
7.70488e-69
1.60342e-69
3.31947e-70
6.83664e-71
1.40081e-71
2.85557e-72
5.79154e-73
1.16867e-73
2.3464e-74
4.68741e-75
9.31741e-76
1.8429e-76
3.62712e-77
7.10376e-78
1.38449e-78
2.68522e-79
5.18282e-80
9.95544e-81
1.90315e-81
3.62088e-82
6.85636e-83
1.29218e-83
2.42387e-84
4.5255e-85
8.41012e-86
1.5557e-86
2.8645e-87
5.25023e-88
9.57913e-89
1.7398e-89
3.14566e-90
5.66197e-91
1.01456e-91
1.8099e-92
3.21441e-93
5.6837e-94
1.00058e-94
1.75377e-95
3.06057e-96
5.31799e-97
9.20068e-98
1.58499e-98
2.71879e-99
4.64383e-100
7.89836e-101
1.33772e-101
2.25616e-102
3.78929e-103
6.33781e-104
1.05565e-104
1.7511e-105
2.89279e-106
4.75934e-107
7.79846e-108
1.27265e-108
2.06852e-109
3.3486e-110
5.3992e-111
8.67093e-112
1.38701e-112
2.20992e-113
3.50725e-114
5.54441e-115
8.73073e-116
1.36949e-116
2.13988e-117
3.33078e-118
5.16461e-119
7.97757e-120
1.22759e-120
1.88187e-121
2.87401e-122
4.37276e-123
6.62825e-124
1.00098e-124
1.50604e-125
2.2576e-126
3.37176e-127
5.01736e-128
7.43888e-129
1.09891e-129
1.61749e-130
2.37223e-131
3.46665e-132
5.04788e-133
7.32419e-134
1.05893e-134
1.5256e-135
2.1902e-136
3.13331e-137
4.46687e-138
6.34587e-139
8.98406e-140
1.26751e-140
1.78213e-141
2.49709e-142
3.48696e-143
4.85268e-144
6.73045e-145
9.30335e-146
1.28166e-146
1.75975e-147
2.40812e-148
3.28443e-149
4.46481e-150
6.04939e-151
8.1694e-152
1.09963e-152
1.47531e-153
1.9729e-154
2.62979e-155
3.49407e-156
4.62749e-157
6.10895e-158
8.03895e-159
1.05451e-159
1.37886e-160
1.79729e-161
2.33533e-162
3.02493e-163
3.90593e-164
5.02781e-165
6.45185e-166
8.25364e-167
1.05261e-167
1.3383e-168
1.69633e-169
2.14359e-170
2.70055e-171
3.39192e-172
4.24744e-173
5.30275e-174
6.60044e-175
8.19116e-176
1.0135e-176
1.2503e-177
1.53786e-178
1.88599e-179
2.30614e-180
2.81164e-181
3.41794e-182
4.14292e-183
5.00713e-184
6.03414e-185
7.25087e-186
8.68797e-187
1.03801e-187
1.23666e-188
1.46913e-189
1.74037e-190
2.05586e-191
2.42172e-192
2.84469e-193
3.33221e-194
3.8924e-195
4.53415e-196
5.26709e-197
6.10163e-198
7.04897e-199
8.12108e-200
9.33069e-201
1.06913e-201
1.2217e-202
1.39227e-203
1.58237e-204
1.7936e-205
2.02757e-206
2.28593e-207
2.57035e-208
2.88249e-209
3.22397e-210
3.59639e-211
4.00127e-212
4.44006e-213
4.91408e-214
5.42453e-215
5.97243e-216
6.55864e-217
7.18378e-218
7.84824e-219
8.55214e-220
9.29531e-221
1.00773e-221
1.08972e-222
1.1754e-223
1.26461e-224
1.35715e-225
1.4528e-226
1.5513e-227
1.65234e-228
1.75556e-229
1.8606e-230
1.96705e-231
2.07444e-232
2.1823e-233
2.29014e-234
2.39742e-235
2.50359e-236
2.60811e-237
2.71038e-238
2.80985e-239
2.90594e-240
2.99808e-241
3.08572e-242
3.16832e-243
3.24537e-244
3.31638e-245
3.3809e-246
3.43852e-247
3.48887e-248
3.53163e-249
3.56653e-250
3.59334e-251
3.6119e-252
3.62212e-253
3.62393e-254
3.61736e-255
3.60247e-256
3.57938e-257
3.54828e-258
3.5094e-259
3.46302e-260
3.40948e-261
3.34915e-262
3.28244e-263
3.2098e-264
3.13169e-265
3.04863e-266
2.96113e-267
2.86971e-268
2.77493e-269
2.67731e-270
2.57741e-271
2.47575e-272
2.37286e-273
2.26925e-274
2.16541e-275
2.06181e-276
1.95888e-277
1.85704e-278
1.75668e-279
1.65815e-280
1.56177e-281
1.46783e-282
1.37657e-283
1.28823e-284
1.20298e-285
1.12098e-286
1.04236e-287
9.67193e-289
8.95552e-290
8.2747e-291
7.62957e-292
7.01998e-293
6.4456e-294
5.90587e-295
5.40007e-296
4.92734e-297
4.4867e-298
4.07702e-299
3.69712e-300
3.34573e-301
3.02154e-302
2.72318e-303
2.44928e-304
2.19844e-305
1.9693e-306
1.76046e-307
1.5706e-308
1.39839e-309
1.24256e-310
1.10189e-311
9.75184e-313
8.6133e-314
7.59256e-315
6.6795e-316
5.86462e-317
5.13896e-318
4.49372e-319
3.91843e-320
3.38929e-321
2.66795e-322
0
0
)
;

boundaryField
{
    sides
    {
        type            zeroGradient;
    }
    empty
    {
        type            empty;
    }
}


// ************************************************************************* //
