/*--------------------------------*- C++ -*----------------------------------*\
  =========                 |
  \\      /  F ield         | OpenFOAM: The Open Source CFD Toolbox
   \\    /   O peration     | Website:  https://openfoam.org
    \\  /    A nd           | Version:  13
     \\/     M anipulation  |
\*---------------------------------------------------------------------------*/
FoamFile
{
    format      ascii;
    class       volScalarField;
    location    "2.6";
    object      T;
}
// * * * * * * * * * * * * * * * * * * * * * * * * * * * * * * * * * * * * * //

dimensions      [0 0 0 1 0 0 0];

internalField   nonuniform List<scalar> 
1000
(
4.52938e-82
7.42605e-82
1.50527e-81
3.22238e-81
6.97427e-81
1.51126e-80
3.27187e-80
7.07421e-80
1.52738e-79
3.293e-79
7.08945e-79
1.52407e-78
3.27169e-78
7.01313e-78
1.50114e-77
3.20851e-77
6.84787e-77
1.45941e-76
3.10576e-76
6.59975e-76
1.40041e-75
2.96722e-75
6.27785e-75
1.32629e-74
2.79789e-74
5.89371e-74
1.23968e-73
2.60373e-73
5.46066e-73
1.14355e-72
2.39127e-72
4.993e-72
1.04101e-71
2.16726e-71
4.5053e-71
9.3518e-71
1.93832e-70
4.01155e-70
8.29004e-70
1.71063e-69
3.52462e-69
7.25141e-69
1.48966e-68
3.05567e-68
6.2586e-68
1.27997e-67
2.61383e-67
5.32971e-67
1.08513e-66
2.20601e-66
4.478e-66
9.0763e-66
1.83689e-65
3.71195e-65
7.48979e-65
1.50898e-64
3.03558e-64
6.09741e-64
1.22291e-63
2.44898e-63
4.89688e-63
9.77679e-63
1.94901e-62
3.87949e-62
7.71036e-62
1.53008e-61
3.03176e-61
5.99808e-61
1.18486e-60
2.33702e-60
4.60248e-60
9.05019e-60
1.77689e-59
3.48334e-59
6.81815e-59
1.33251e-58
2.60021e-58
5.06615e-58
9.85552e-58
1.91431e-57
3.71257e-57
7.18898e-57
1.38992e-56
2.68312e-56
5.17152e-56
9.95232e-56
1.9123e-55
3.66873e-55
7.02748e-55
1.34403e-54
2.5665e-54
4.89326e-54
9.3149e-54
1.77044e-53
3.35973e-53
6.36574e-53
1.20424e-52
2.27457e-52
4.28947e-52
8.07655e-52
1.51833e-51
2.84987e-51
5.34072e-51
9.99288e-51
1.8668e-50
3.48191e-50
6.48416e-50
1.2056e-49
2.23802e-49
4.148e-49
7.67582e-49
1.41815e-48
2.61595e-48
4.81778e-48
8.85878e-48
1.62633e-47
2.98094e-47
5.45511e-47
9.96693e-47
1.81813e-46
3.31127e-46
6.021e-46
1.09307e-45
1.9812e-45
3.58521e-45
6.47742e-45
1.1684e-44
2.10418e-44
3.78332e-44
6.79149e-44
1.21718e-43
2.17794e-43
3.89075e-43
6.93934e-43
1.23566e-42
2.19674e-42
3.899e-42
6.90911e-42
1.22232e-41
2.15895e-41
3.8071e-41
6.70252e-41
1.17808e-40
2.06729e-40
3.62175e-40
6.33471e-40
1.10618e-39
1.92847e-39
3.3565e-39
5.83244e-39
1.01181e-38
1.75242e-38
3.03013e-38
5.23082e-38
9.01495e-38
1.5511e-37
2.66442e-37
4.56927e-37
7.823e-37
1.33716e-36
2.28177e-36
3.88725e-36
6.61141e-36
1.1226e-35
1.90298e-35
3.22048e-35
5.44109e-35
9.17759e-35
1.54542e-34
2.59802e-34
4.36027e-34
7.30564e-34
1.22202e-33
2.04066e-33
3.40202e-33
5.66208e-33
9.40777e-33
1.56052e-32
2.58417e-32
4.27213e-32
7.05078e-32
1.16171e-31
1.91086e-31
3.13782e-31
5.14391e-31
8.41832e-31
1.37538e-30
2.2433e-30
3.65273e-30
5.93761e-30
9.63539e-30
1.56096e-29
2.5245e-29
4.07588e-29
6.56946e-29
1.05706e-28
1.69797e-28
2.72282e-28
4.35882e-28
6.96591e-28
1.11134e-27
1.76999e-27
2.81419e-27
4.46676e-27
7.07763e-27
1.11954e-26
1.76785e-26
2.78681e-26
4.38554e-26
6.88958e-26
1.08048e-25
1.69157e-25
2.64373e-25
4.12473e-25
6.42429e-25
9.98861e-25
1.55037e-24
2.40223e-24
3.71572e-24
5.73746e-24
8.84392e-24
1.36087e-23
2.09043e-23
3.20554e-23
4.90697e-23
7.49843e-23
1.14386e-22
1.74188e-22
2.64794e-22
4.0183e-22
6.08721e-22
9.20529e-22
1.38963e-21
2.09412e-21
3.15025e-21
4.73073e-21
7.09173e-21
1.06125e-20
1.58533e-20
2.36407e-20
3.51917e-20
5.22946e-20
7.75732e-20
1.14869e-19
1.69797e-19
2.5055e-19
3.69057e-19
5.4266e-19
7.96519e-19
1.16708e-18
1.70701e-18
2.49233e-18
3.63252e-18
5.28497e-18
7.67554e-18
1.11278e-17
1.61041e-17
2.32647e-17
3.35496e-17
4.82956e-17
6.93996e-17
9.95488e-17
1.42542e-16
2.03741e-16
2.90698e-16
4.14032e-16
5.88642e-16
8.35403e-16
1.1835e-15
1.67365e-15
2.36258e-15
3.32916e-15
4.68281e-15
6.57512e-15
9.21562e-15
1.28935e-14
1.80068e-14
2.51032e-14
3.49335e-14
4.85265e-14
6.72879e-14
9.31359e-14
1.28682e-13
1.77476e-13
2.44334e-13
3.35774e-13
4.60607e-13
6.30717e-13
8.62099e-13
1.17625e-12
1.60199e-12
2.17791e-12
2.95555e-12
4.00363e-12
5.41362e-12
7.307e-12
9.84482e-12
1.32402e-11
1.77744e-11
2.38185e-11
3.18603e-11
4.25404e-11
5.66981e-11
7.54312e-11
1.00173e-10
1.32789e-10
1.75708e-10
2.32078e-10
3.05979e-10
4.02683e-10
5.28992e-10
6.93665e-10
9.07954e-10
1.18629e-09
1.54715e-09
2.01413e-09
2.61732e-09
3.39498e-09
4.39574e-09
5.68119e-09
7.32924e-09
9.43826e-09
1.21321e-08
1.55667e-08
1.99373e-08
2.54888e-08
3.2527e-08
4.14335e-08
5.26831e-08
6.68657e-08
8.47125e-08
1.07128e-07
1.3523e-07
1.70394e-07
2.14312e-07
2.69061e-07
3.37186e-07
4.21792e-07
5.26673e-07
6.56441e-07
8.16701e-07
1.01424e-06
1.25729e-06
1.55575e-06
1.92158e-06
2.36914e-06
2.91565e-06
3.58174e-06
4.39204e-06
5.37591e-06
6.56828e-06
8.01061e-06
9.75202e-06
1.18505e-05
1.43746e-05
1.74048e-05
2.10358e-05
2.53784e-05
3.05623e-05
3.67388e-05
4.40839e-05
5.28023e-05
6.3131e-05
7.53445e-05
8.97592e-05
0.00010674
0.000126704
0.000150134
0.000177576
0.000209659
0.000247095
0.000290694
0.000341375
0.000400176
0.000468269
0.000546971
0.000637762
0.000742301
0.00086244
0.00100024
0.00115801
0.00133828
0.00154388
0.00177792
0.00204383
0.00234536
0.00268664
0.00307217
0.00350686
0.00399604
0.00454549
0.00516146
0.00585067
0.00662038
0.00747833
0.00843281
0.00949266
0.0106673
0.0119665
0.013401
0.0149816
0.01672
0.0186282
0.0207189
0.0230051
0.0255002
0.0282182
0.0311733
0.0343801
0.0378532
0.0416076
0.0456583
0.0500203
0.0547086
0.0597378
0.0651224
0.0708764
0.0770135
0.0835465
0.0904876
0.0978483
0.105639
0.113868
0.122545
0.131676
0.141266
0.151318
0.161836
0.172819
0.184267
0.196174
0.208538
0.221349
0.234599
0.248277
0.262369
0.27686
0.291732
0.306966
0.322542
0.338435
0.354621
0.371075
0.387768
0.404671
0.421753
0.438985
0.456332
0.473764
0.491245
0.508743
0.526224
0.543654
0.561
0.57823
0.59531
0.61221
0.628898
0.645347
0.661528
0.677414
0.69298
0.708205
0.723065
0.737541
0.751616
0.765274
0.778501
0.791285
0.803616
0.815486
0.82689
0.837822
0.848281
0.858266
0.867777
0.876817
0.885389
0.893499
0.901151
0.908354
0.915115
0.921443
0.927346
0.932834
0.937917
0.942605
0.946908
0.950835
0.954396
0.957601
0.960458
0.962976
0.965161
0.967021
0.968562
0.969788
0.970705
0.971313
0.971617
0.971617
0.971313
0.970705
0.969788
0.968562
0.967021
0.965161
0.962976
0.960458
0.957601
0.954396
0.950835
0.946908
0.942605
0.937917
0.932834
0.927346
0.921443
0.915115
0.908354
0.901151
0.893499
0.885389
0.876817
0.867777
0.858266
0.848281
0.837822
0.82689
0.815486
0.803616
0.791285
0.778501
0.765274
0.751616
0.737541
0.723065
0.708205
0.69298
0.677414
0.661528
0.645347
0.628898
0.61221
0.59531
0.57823
0.561
0.543654
0.526224
0.508743
0.491245
0.473764
0.456332
0.438985
0.421753
0.404671
0.387768
0.371075
0.354621
0.338435
0.322542
0.306966
0.291732
0.27686
0.262369
0.248277
0.234599
0.221349
0.208538
0.196174
0.184267
0.172819
0.161836
0.151318
0.141266
0.131676
0.122545
0.113868
0.105639
0.0978483
0.0904876
0.0835465
0.0770135
0.0708764
0.0651224
0.0597378
0.0547086
0.0500203
0.0456583
0.0416076
0.0378532
0.0343801
0.0311733
0.0282182
0.0255002
0.0230051
0.0207189
0.0186282
0.01672
0.0149816
0.013401
0.0119665
0.0106673
0.00949266
0.00843281
0.00747833
0.00662038
0.00585067
0.00516146
0.00454549
0.00399604
0.00350686
0.00307217
0.00268664
0.00234536
0.00204383
0.00177792
0.00154388
0.00133828
0.00115801
0.00100024
0.00086244
0.000742301
0.000637762
0.000546971
0.000468269
0.000400176
0.000341375
0.000290694
0.000247095
0.000209659
0.000177576
0.000150134
0.000126704
0.00010674
8.97592e-05
7.53445e-05
6.3131e-05
5.28023e-05
4.40839e-05
3.67388e-05
3.05623e-05
2.53784e-05
2.10358e-05
1.74048e-05
1.43746e-05
1.18505e-05
9.75202e-06
8.01061e-06
6.56828e-06
5.37591e-06
4.39204e-06
3.58174e-06
2.91565e-06
2.36914e-06
1.92158e-06
1.55575e-06
1.25729e-06
1.01424e-06
8.16701e-07
6.56441e-07
5.26673e-07
4.21792e-07
3.37186e-07
2.69061e-07
2.14312e-07
1.70394e-07
1.3523e-07
1.07128e-07
8.47125e-08
6.68657e-08
5.26831e-08
4.14335e-08
3.2527e-08
2.54888e-08
1.99373e-08
1.55667e-08
1.21321e-08
9.43826e-09
7.32924e-09
5.68119e-09
4.39574e-09
3.39498e-09
2.61732e-09
2.01413e-09
1.54715e-09
1.18629e-09
9.07954e-10
6.93665e-10
5.28992e-10
4.02683e-10
3.05979e-10
2.32078e-10
1.75708e-10
1.32789e-10
1.00173e-10
7.54312e-11
5.66981e-11
4.25404e-11
3.18603e-11
2.38185e-11
1.77744e-11
1.32402e-11
9.84482e-12
7.307e-12
5.41362e-12
4.00363e-12
2.95555e-12
2.17791e-12
1.60199e-12
1.17625e-12
8.62099e-13
6.30717e-13
4.60607e-13
3.35774e-13
2.44334e-13
1.77476e-13
1.28682e-13
9.31359e-14
6.72879e-14
4.85265e-14
3.49335e-14
2.51032e-14
1.80068e-14
1.28935e-14
9.21562e-15
6.57512e-15
4.68281e-15
3.32916e-15
2.36258e-15
1.67365e-15
1.1835e-15
8.35403e-16
5.88642e-16
4.14032e-16
2.90698e-16
2.03741e-16
1.42542e-16
9.95488e-17
6.93996e-17
4.82956e-17
3.35496e-17
2.32647e-17
1.61041e-17
1.11278e-17
7.67554e-18
5.28497e-18
3.63252e-18
2.49233e-18
1.70701e-18
1.16708e-18
7.96519e-19
5.4266e-19
3.69057e-19
2.5055e-19
1.69797e-19
1.14869e-19
7.75732e-20
5.22946e-20
3.51917e-20
2.36407e-20
1.58533e-20
1.06125e-20
7.09173e-21
4.73073e-21
3.15025e-21
2.09412e-21
1.38963e-21
9.20529e-22
6.08721e-22
4.0183e-22
2.64794e-22
1.74188e-22
1.14386e-22
7.49843e-23
4.90697e-23
3.20554e-23
2.09043e-23
1.36087e-23
8.84392e-24
5.73746e-24
3.71572e-24
2.40223e-24
1.55037e-24
9.98861e-25
6.42429e-25
4.12473e-25
2.64373e-25
1.69157e-25
1.08048e-25
6.88958e-26
4.38554e-26
2.78681e-26
1.76785e-26
1.11954e-26
7.07763e-27
4.46676e-27
2.81419e-27
1.76999e-27
1.11134e-27
6.96591e-28
4.35882e-28
2.72282e-28
1.69797e-28
1.05706e-28
6.56946e-29
4.07588e-29
2.5245e-29
1.56096e-29
9.63539e-30
5.93761e-30
3.65273e-30
2.2433e-30
1.37538e-30
8.41832e-31
5.14391e-31
3.13782e-31
1.91086e-31
1.16171e-31
7.05078e-32
4.27213e-32
2.58417e-32
1.56052e-32
9.40777e-33
5.66208e-33
3.40202e-33
2.04066e-33
1.22202e-33
7.30564e-34
4.36027e-34
2.59802e-34
1.54542e-34
9.17759e-35
5.44109e-35
3.22048e-35
1.90298e-35
1.1226e-35
6.61141e-36
3.88725e-36
2.28177e-36
1.33716e-36
7.823e-37
4.56927e-37
2.66442e-37
1.5511e-37
9.01495e-38
5.23082e-38
3.03013e-38
1.75242e-38
1.01181e-38
5.83244e-39
3.3565e-39
1.92847e-39
1.10618e-39
6.33471e-40
3.62175e-40
2.06729e-40
1.17808e-40
6.70252e-41
3.8071e-41
2.15895e-41
1.22232e-41
6.90911e-42
3.899e-42
2.19674e-42
1.23566e-42
6.93934e-43
3.89075e-43
2.17794e-43
1.21718e-43
6.79149e-44
3.78332e-44
2.10418e-44
1.1684e-44
6.47742e-45
3.58521e-45
1.9812e-45
1.09307e-45
6.021e-46
3.31127e-46
1.81813e-46
9.96693e-47
5.45511e-47
2.98094e-47
1.62633e-47
8.85878e-48
4.81778e-48
2.61595e-48
1.41815e-48
7.67582e-49
4.148e-49
2.23802e-49
1.2056e-49
6.48416e-50
3.48191e-50
1.8668e-50
9.99288e-51
5.34072e-51
2.84987e-51
1.51833e-51
8.07655e-52
4.28947e-52
2.27457e-52
1.20424e-52
6.36574e-53
3.35973e-53
1.77044e-53
9.3149e-54
4.89326e-54
2.5665e-54
1.34403e-54
7.02748e-55
3.66873e-55
1.9123e-55
9.95232e-56
5.17152e-56
2.68312e-56
1.38992e-56
7.18898e-57
3.71257e-57
1.91431e-57
9.85552e-58
5.06615e-58
2.60021e-58
1.33251e-58
6.81815e-59
3.48334e-59
1.77689e-59
9.05019e-60
4.60248e-60
2.33702e-60
1.18486e-60
5.99808e-61
3.03176e-61
1.53008e-61
7.71036e-62
3.87949e-62
1.94901e-62
9.77679e-63
4.89688e-63
2.44898e-63
1.22291e-63
6.09741e-64
3.03558e-64
1.50898e-64
7.48979e-65
3.71195e-65
1.83689e-65
9.0763e-66
4.478e-66
2.20601e-66
1.08513e-66
5.32971e-67
2.61383e-67
1.27997e-67
6.2586e-68
3.05567e-68
1.48966e-68
7.25141e-69
3.52462e-69
1.71063e-69
8.29004e-70
4.01155e-70
1.93832e-70
9.3518e-71
4.5053e-71
2.16726e-71
1.04101e-71
4.993e-72
2.39127e-72
1.14355e-72
5.46066e-73
2.60373e-73
1.23968e-73
5.89371e-74
2.79789e-74
1.32629e-74
6.27785e-75
2.96722e-75
1.40041e-75
6.59975e-76
3.10576e-76
1.45941e-76
6.84787e-77
3.20851e-77
1.50114e-77
7.01313e-78
3.27169e-78
1.52407e-78
7.08945e-79
3.293e-79
1.52738e-79
7.07421e-80
3.27187e-80
1.51126e-80
6.97427e-81
3.22238e-81
1.50527e-81
7.42605e-82
4.52938e-82
)
;

boundaryField
{
    sides
    {
        type            zeroGradient;
    }
    empty
    {
        type            empty;
    }
}


// ************************************************************************* //
