/*--------------------------------*- C++ -*----------------------------------*\
  =========                 |
  \\      /  F ield         | OpenFOAM: The Open Source CFD Toolbox
   \\    /   O peration     | Website:  https://openfoam.org
    \\  /    A nd           | Version:  13
     \\/     M anipulation  |
\*---------------------------------------------------------------------------*/
FoamFile
{
    format      ascii;
    class       volScalarField;
    location    "55";
    object      p;
}
// * * * * * * * * * * * * * * * * * * * * * * * * * * * * * * * * * * * * * //

dimensions      [0 2 -2 0 0 0 0];

internalField   nonuniform List<scalar> 
918
(
0.556997
1.18967
0.000850948
0.556411
-0.00889907
1.15665
-0.506279
0.684277
0.537181
-0.106387
-0.0406496
0.535915
1.01748
0.783199
-1.12457
-0.00846125
0.652848
-0.384003
0.536267
-0.0510949
0.709714
0.543734
0.546761
0.537342
0.6029
0.757793
0.898649
0.0216338
0.0107615
0.00489507
-0.0145546
-0.0362348
-0.0305562
1.0403
1.09138
1.11408
0.505095
0.332426
-0.372229
-0.442445
-0.434473
-0.544103
0.679562
0.677754
-0.201951
0.687151
0.690677
0.524255
0.536548
0.537454
0.538494
0.537469
0.538853
0.405926
-0.109604
-0.141868
-0.0865407
-0.077703
0.0578961
-0.041248
-0.0437298
-0.0387531
-0.0387829
0.454591
0.530416
0.527363
0.541215
0.551471
1.12922
1.10115
1.12728
1.04098
1.05744
0.995474
0.968049
0.803813
0.825837
0.768608
0.75417
-1.55815
-2.51256
-0.533109
-0.281787
-0.0152977
-0.00575744
0.000924577
0.648947
0.649397
0.652775
0.657043
1.08092
-0.381888
-0.480215
0.536406
0.535212
0.543549
0.544248
0.540266
0.539357
-0.040804
-0.0367004
-0.0454606
-0.0475983
-0.0474231
0.698784
0.698546
0.537874
0.534882
0.558434
0.57949
0.571545
0.279904
0.609602
0.624087
0.588755
0.749293
0.743978
0.752625
0.872378
0.83594
0.935529
0.958825
0.0175845
-0.000487348
-0.0127196
-0.018464
-0.0161446
0.500952
0.493538
0.520649
0.508509
0.510998
0.248676
0.11464
0.41779
0.442984
-0.289749
-0.35341
-0.430112
-0.459106
-0.567536
0.611346
0.672175
0.669047
-0.215093
-0.142371
-0.274102
-0.0686526
-0.130629
0.514558
0.521543
0.516556
0.532069
0.526545
0.528504
0.540808
0.537881
0.53944
0.468317
0.592093
0.332133
0.297172
-0.246097
-0.159497
-0.246949
-0.0651769
-0.0606694
0.0717211
0.0970137
0.0449615
0.0332667
-0.0544536
-0.0463993
-0.0500083
-0.0373398
-0.0355398
0.447402
0.436286
0.467227
0.474738
0.519156
0.520504
0.524435
0.522644
0.918885
0.941355
0.948766
0.922425
-3.50553
-6.29325
0.0440088
0.180969
-0.00551071
-0.00977391
0.00529829
-0.0100535
-0.00254474
-0.0043443
-0.00230428
-0.00364438
0.000287117
0.00232431
0.642222
0.642959
1.00185
1.00698
0.979188
0.931325
0.524586
0.526669
0.532184
0.528058
-0.0355541
-0.0361065
-0.035862
0.692842
0.696986
0.695606
0.241852
0.152934
0.330478
0.359285
0.635677
0.624286
0.634233
0.650374
0.686148
0.966274
0.98442
0.982683
0.990907
1.03488
1.05124
1.01666
0.480523
0.490437
0.485422
0.523772
0.521533
0.522442
0.518207
0.519552
0.517475
-0.0363272
-0.417527
0.491576
0.509351
0.49265
0.49652
0.691165
0.76913
0.657861
0.664112
0.662305
-0.000195639
-0.0585048
0.252928
0.219437
0.38734
0.423553
0.402615
0.890191
0.850206
0.900397
0.873812
0.83491
0.861512
-0.369215
-1.87254
-0.989585
0.531549
0.345667
0.433262
0.0151534
-0.00183446
0.00269686
1.00034
1.07433
0.647972
0.821441
0.825208
0.72039
0.750403
0.80994
0.735079
0.770462
0.804664
0.783192
0.567872
0.504951
0.520318
0.838216
0.893855
0.12373
0.0637085
0.0196735
0.115606
0.172502
0.146762
1.03528
0.948062
1.01859
0.53464
0.535354
-0.00204084
-0.0163226
0.53957
0.539622
-0.014936
-0.00169457
0.415787
-0.833276
0.105828
0.528127
0.518122
0.535197
-0.089188
0.357828
-0.0411469
0.0527126
-0.00237566
0.532502
0.465597
0.425063
0.00336359
-0.0164095
-0.0425002
-0.216021
0.532311
0.530617
0.534664
0.535615
0.53629
-0.0150577
-0.0106008
-0.00782027
-0.0406663
-0.036152
-0.0457069
0.499272
0.518002
-0.168966
0.534805
0.536936
0.536755
0.529997
0.535635
0.533881
-0.00721066
-0.014406
-0.0153096
0.22342
0.352677
0.656154
0.744265
0.627874
0.403087
0.167157
0.559059
0.622374
0.527976
0.681587
0.668466
0.683623
0.171134
0.0208755
0.1799
0.121013
0.525985
0.524685
0.516377
0.513365
0.53006
0.528168
0.53273
0.529738
0.532689
0.534078
-0.0471601
-0.0714833
-0.0844251
-0.152952
0.312539
0.574461
0.25521
0.285718
0.145537
-0.0363081
-0.0368265
-0.0403517
-0.0470168
0.00638402
-0.0172671
0.0478103
0.0485419
0.0212243
-0.0051733
-0.00139338
-0.0121949
-0.00891804
0.525484
0.523995
0.530162
0.539382
0.475184
0.478958
0.444059
0.46464
0.449976
0.389085
0.424254
0.399433
-0.00501692
0.0061392
-0.00252278
-0.0133996
-0.00980418
-0.0280602
-0.0250254
-0.021127
-0.0167429
-0.0238311
-0.0376689
-0.038229
-0.17354
-0.28845
0.98864
0.912284
0.133281
0.521476
0.527918
0.524687
0.529575
0.532703
0.533513
0.531235
0.52779
0.518372
0.51993
0.516706
0.517534
-0.101332
-0.242142
-0.0698431
-0.1421
0.143529
0.627308
0.364619
0.301421
0.296315
0.52359
0.921624
0.707466
0.682514
0.694649
-0.342507
0.0489985
-0.277777
0.339096
0.164509
0.657116
0.704791
0.724729
0.673919
0.627435
-0.104844
0.554775
-0.0674742
-0.0168979
0.183128
0.0628673
0.679264
0.65334
0.656667
0.673913
0.690253
0.659699
0.644089
0.638947
0.670183
0.672821
0.490764
0.254431
0.205866
0.16742
0.643021
0.526462
0.580127
0.496184
0.521149
0.523776
0.522403
0.50408
0.511629
0.507181
0.513629
0.517084
0.525773
0.526219
0.52153
0.523665
-0.0517989
-0.0552398
-0.0285577
-0.137931
-0.130076
-0.192453
-0.0635557
0.0748883
0.0360051
0.235477
0.34109
0.0521902
-0.0591237
-0.0319597
0.00919485
0.179273
0.205496
0.077183
0.165489
0.154718
0.137751
0.239244
0.243536
-0.0217666
-0.0257281
-0.0279806
-0.0300752
0.0238529
0.0938887
0.103774
0.00128817
-0.00478672
-0.0338162
-0.0335381
-0.0185681
-0.0228469
-0.0194078
0.0145156
-0.0471172
-0.0149085
-0.000108966
0.0044967
0.00158105
-0.0038968
0.517686
0.520114
0.519684
0.526058
0.544331
0.55973
0.517567
0.497281
0.488118
0.491117
0.464142
0.474431
0.470118
0.483849
0.504973
0.514549
0.511772
0.514567
0.497115
0.498792
0.485282
0.489004
0.463872
0.444935
0.433089
-0.0369609
0.000882137
-0.00664431
-0.0335053
-0.00497248
-0.0169204
-0.00452552
0.0145439
-0.00164292
-0.00412571
-0.014242
-0.0200389
-0.0195216
-0.0748759
0.0109692
-0.183662
-0.220486
-0.292213
0.890353
1.01439
0.810942
0.58408
0.60282
0.846137
0.93101
0.545075
0.736075
0.759778
0.586394
0.852741
0.526301
0.525905
0.523507
0.522985
0.524202
-0.00735109
0.0979369
0.0982124
0.159804
0.275508
0.387731
0.317322
0.192492
0.323138
0.32589
0.619547
0.63188
0.587436
0.611656
0.611422
0.426746
0.502705
0.554889
0.512603
0.564949
0.585918
0.541309
0.573669
0.523849
0.478476
0.474402
0.425302
0.444902
0.421257
0.404214
0.516103
0.49338
0.503954
0.494177
0.513419
0.539202
0.534857
0.564128
0.576391
0.497714
0.453523
0.462807
0.493205
0.454136
0.469168
0.485478
0.230791
0.132202
0.214679
-0.0728017
0.000951412
-0.0126918
-0.0606875
-0.0110068
0.273852
-0.419351
-0.395445
-1.02423
0.500379
0.955879
0.623514
0.596349
0.68735
0.669366
0.674056
0.690579
0.694486
0.631952
0.645915
0.648823
0.611775
0.634211
0.653399
0.650617
0.524928
0.387823
0.385043
0.335492
0.20568
0.244264
0.443885
0.366593
0.291272
0.2921
0.45985
0.346908
0.415896
0.451273
0.382691
0.336895
0.540058
0.604988
0.597253
0.57183
0.486852
0.5003
0.52427
0.558861
0.584649
0.615287
0.513109
0.519004
0.520241
0.51773
0.514991
0.518023
0.518244
0.520784
0.521464
0.524441
0.523479
-0.0416373
-0.0295372
-0.0427584
-0.050897
-0.0182753
-0.0216048
0.0213123
0.00733833
-0.00859589
-0.00267149
-0.0284636
-0.0327944
-0.0279861
-0.0189689
0.100479
0.112956
0.0962626
0.0567838
0.249086
0.379222
0.453277
0.328604
0.221314
0.244648
0.265135
-0.00940049
0.0178017
0.00472259
0.0437524
0.0353662
-0.0289121
-0.0321744
-0.029926
-0.0231505
-0.0141759
-0.0300544
-0.0318548
-0.0235294
-0.0281253
-0.0292338
-0.0319702
0.499536
0.493032
0.494748
0.488581
0.487293
0.501621
0.505847
0.507835
0.513311
0.515633
0.505681
0.511499
0.515314
-0.00481105
-0.0276542
-0.0315647
-0.0200575
-0.0228358
-0.021112
-0.0230847
0.122203
0.0507469
0.0554708
0.00839037
-0.122617
-0.0649174
0.490316
0.489741
0.48029
0.71989
0.569274
0.489885
0.587172
0.692665
0.274372
0.471874
0.306331
0.887626
0.783447
0.929892
0.541375
0.243142
0.404042
0.449813
0.261384
0.335476
0.32674
0.21505
0.246243
0.28246
0.382207
0.264062
0.240304
-0.00220879
0.187797
0.300482
0.282277
0.407623
0.469033
0.264299
0.184652
0.139214
0.605081
0.624244
0.639003
0.611165
0.632385
0.577206
0.567262
0.584855
0.593947
0.588865
-0.752017
-0.458639
-1.40465
-0.724767
-0.271336
0.530648
0.499664
0.766613
0.647927
0.692663
0.678128
0.637283
0.605655
0.626311
0.651903
0.348127
0.459522
0.434678
0.439714
0.341372
0.27256
0.571025
0.566522
0.600049
0.623612
0.59468
0.624818
0.510926
0.51063
0.510125
0.506397
0.504669
0.507003
0.060168
0.0289506
0.065009
0.0455462
0.0223861
0.0107441
-0.000807595
-0.0103424
-0.0174326
-0.0178006
-0.00501964
-0.00108418
0.169395
0.108129
0.0277439
0.0579148
-0.00292699
-0.0720867
-0.0899396
0.0131088
0.109006
0.0993841
0.403975
0.654192
0.474154
0.641525
0.483354
0.539152
0.46909
0.460686
0.486513
0.378884
0.459167
0.240437
-0.266242
-0.175253
0.789093
0.802034
0.580434
0.402032
0.170991
0.352648
0.545015
0.47719
0.513812
0.582717
0.571286
0.0218007
0.0825002
0.360636
0.587926
0.237443
0.228455
0.222401
0.40344
0.323607
)
;

boundaryField
{
    wall-4
    {
        type            zeroGradient;
    }
    velocity-inlet-5
    {
        type            zeroGradient;
    }
    velocity-inlet-6
    {
        type            zeroGradient;
    }
    pressure-outlet-7
    {
        type            fixedValue;
        value           uniform 0;
    }
    wall-8
    {
        type            zeroGradient;
    }
    frontAndBackPlanes
    {
        type            empty;
    }
}


// ************************************************************************* //
