/*--------------------------------*- C++ -*----------------------------------*\
  =========                 |
  \\      /  F ield         | OpenFOAM: The Open Source CFD Toolbox
   \\    /   O peration     | Website:  https://openfoam.org
    \\  /    A nd           | Version:  13
     \\/     M anipulation  |
\*---------------------------------------------------------------------------*/
FoamFile
{
    format      ascii;
    class       surfaceScalarField;
    location    "55";
    object      phi;
}
// * * * * * * * * * * * * * * * * * * * * * * * * * * * * * * * * * * * * * //

dimensions      [0 3 -1 0 0 0 0];

internalField   nonuniform List<scalar> 
1300
(
3.75095
5.62643
-3.31025
3.75095
-7.74647
5.62643
-4.36032
4.36032
-0.570674
0.570674
1.8764
1.87456
-2.762
2.762
-2.2333
2.2333
-2.53871
2.53871
-5.24638
5.24638
-5.06826
5.06826
4.65792
-4.65792
-6.29314
6.29314
-0.983186
0.983186
-3.6687
3.6687
3.16966
-3.16966
-2.15331
2.15331
-0.0636939
0.0636939
-0.553486
4.30444
3.19747
3.19747
-2.00204
2.00204
-4.86744
4.86744
6.21795
-6.21795
5.30938
-5.30938
-1.99913
-2.43179
1.80623
-11.5485
-5.94024
-5.94024
-8.44039
8.44039
-2.81396
2.81247
2.94551
-2.94551
-1.7777
1.7777
-4.32181
-0.0385064
-4.32181
4.32962
0.0306993
4.32962
-0.63762
0.0669454
-0.63762
3.95932
-3.95932
0.471878
0.0987965
0.471878
3.06521
-3.06521
-1.8771
3.7535
1.87385
-1.87189
6.17632
-1.87907
3.75363
-6.00941
6.00941
-2.97794
0.215939
-2.97794
2.57928
0.182724
2.57928
-6.83057
6.83057
-2.27212
0.0388186
-2.27212
2.2007
0.0326016
2.2007
2.87788
-2.87788
-2.64812
0.109413
-2.64812
2.41693
0.12178
2.41693
0.35353
5.2729
-5.97996
8.79243
-5.2729
0.0265173
5.20833
0.0380484
5.20833
-5.10582
0.0375512
-5.10582
5.01326
0.0550073
5.01326
4.74541
-0.0874917
4.74541
-4.77468
0.116762
-4.77468
-3.39059
-4.03048
-6.44038
0.147235
-6.44038
-1.05884
0.0756588
-1.05884
0.885828
0.0973585
0.885828
-3.67514
3.67514
-4.07427
0.405564
-4.07427
3.12405
0.0456087
3.12405
1.86849
1.88246
5.61945
-5.61945
2.44979
-2.14537
-0.00793506
-2.14537
-2.19412
-3.11525
2.19412
-0.0408122
-0.294894
0.2312
-0.294894
3.15939
0.0380746
3.15939
2.24787
0.169061
-2.24787
0.24583
3.26385
-3.26385
1.33832
0.663719
1.33832
-5.56571
5.56571
4.95543
0.0578238
-4.95543
0.0879946
6.15613
0.0618139
6.15613
-6.19952
-0.018424
-6.19952
2.55473
-4.98651
-2.59962
6.11632
0.176829
-6.11632
0.17608
2.91698
0.0285246
2.91698
-2.91998
2.91998
-2.98427
0.0387578
-2.98427
-2.17675
0.399054
-2.17675
1.47888
0.298819
1.47888
-4.22151
-0.100298
-4.22151
-4.21812
0.143853
4.21812
0.111499
1.12566
-1.12566
-0.73244
0.0948201
-0.73244
-4.08413
-0.137381
4.08413
-0.124816
-3.84967
-0.109651
-3.84967
-3.02426
0.0399918
3.02426
0.0409546
3.1128
0.0465897
-3.1128
0.0475907
-1.87082
3.75328
-1.88013
3.75398
-5.62927
-0.380139
-5.62927
6.31855
-0.309147
6.31855
3.33735
0.331354
-3.33735
0.359405
2.44026
0.139024
2.44026
-6.79558
-0.0349901
-6.79558
6.8131
0.0174725
6.8131
2.33989
0.100366
-2.33989
0.0677749
2.18103
0.0196682
2.18103
2.89678
-0.0188951
2.89678
-2.87296
-0.00491905
-2.87296
2.79687
-2.79687
2.72663
0.0702395
-2.72663
0.0785079
-11.1329
11.1145
-0.0350731
-11.0979
5.17326
5.17326
4.17351
0.5719
4.17351
-4.99198
0.217302
-4.99198
2.69091
-5.29053
3.04276
-6.43334
4.65695
-16.2055
4.31739
-8.34787
6.67733
-6.67733
6.56675
0.110583
-6.56675
0.126366
-1.16694
0.108099
-1.16694
-3.07124
-0.603899
-3.07124
4.31993
-0.644787
4.31993
-3.02836
3.02836
-3.07759
0.0492248
3.07759
0.0464634
2.15487
0.0261562
-2.15487
0.00949636
0.38347
0.0884076
-0.38347
0.0885767
3.47123
-0.207372
3.47123
-3.06912
-0.19473
-3.06912
-1.25804
0.0910938
1.25804
0.0802808
-5.81421
0.248502
-5.81421
-11.1909
0.0929902
-11.1528
-6.10653
-6.10653
2.33385
11.1263
-2.89173
0.018773
2.89173
0.0252484
2.97535
0.0530103
-2.97535
0.055372
-2.86105
0.0641853
2.86105
0.0589268
-2.55185
0.375103
-2.55185
-1.07493
1.07493
-1.24289
0.167962
1.24289
0.235985
1.39418
-0.268523
1.39418
0.806649
0.0791781
-0.806649
0.0742095
-3.75515
-0.0945215
-3.75515
6.55104
-0.232486
6.55104
-2.95704
-0.112081
2.95704
-0.0602686
-0.0333715
11.1479
-5.13989
0.0340734
5.13989
-11.2097
11.2438
-3.22305
0.671202
3.22305
0.950457
5.28547
0.280244
-5.28547
0.293482
6.76206
0.0510432
-6.76206
0.0847309
-2.57901
-0.492234
-2.57901
-5.0468
-0.582464
5.0468
-0.726872
-11.4746
-0.203685
11.6782
-11.4196
6.0179
0.138237
-6.0179
11.382
-1.02997
-0.0956869
1.02997
0.0449575
1.7197
-0.325517
1.7197
3.66022
-0.188991
-3.66022
-0.094928
-6.70223
-0.0933571
6.70223
-0.151189
-2.13536
-0.443646
2.13536
-0.415664
-4.26708
4.30515
1.90925
-2.41315
-2.57337
-5.5284
1.85189
1.90139
4.30168
-10.1627
-6.04275
-9.98665
7.26265
-6.96916
-9.2505
9.163
7.82892
-7.93857
-5.78501
5.83148
6.48264
-6.44169
1.87876
1.87474
7.95359
-7.73765
-15.6387
15.2586
7.49833
-7.45951
15.7837
-15.8187
-17.8604
17.9115
-5.69701
5.80642
-6.73589
6.73098
-6.96736
6.90709
-2.8454
-3.58794
13.1223
-12.975
8.54075
-8.54869
-8.57695
8.98252
3.38255
0.9226
3.42914
-1.88219
3.76095
-1.87143
3.78068
2.69687
-5.54228
2.59366
-5.16703
4.32226
4.21849
-4.28145
-1.24695
-5.92336
5.95188
-5.81615
5.87508
9.09774
-9.13625
-1.88515
3.75989
-1.86883
3.77023
-3.42504
-2.35998
3.37943
0.922248
8.08292
5.03934
-8.25975
-1.7269
-8.00833
7.81934
-8.21593
8.0212
-0.434866
5.81852
-5.38365
4.43257
-1.5619
7.38041
5.70075
5.91805
5.86646
-5.58622
1.1027
-6.48635
-6.39836
-2.37021
2.46503
2.25751
-2.15871
6.09705
1.73187
5.97223
-5.72771
-2.21086
-5.82223
3.82081
2.01067
3.87003
4.07797
2.40467
4.11796
3.03061
-3.03585
0.0052401
-3.05654
6.08714
0.724043
-5.41652
-4.49427
4.96266
2.99092
5.14539
-5.51074
-2.22691
-5.15134
-9.556
-6.08274
-10.1385
10.1003
5.15827
9.79118
-11.9733
11.8221
4.78822
2.71011
4.82083
-4.91978
-2.53973
-4.85201
11.6343
-2.61029
-9.02403
-10.3271
-7.53329
10.3097
5.47406
10.9681
6.94333
11.0529
4.42248
7.21184
-9.89654
2.36325
-3.86117
-1.83584
-3.78266
3.66553
2.14089
3.78731
-4.2161
-2.5198
-4.19733
-4.29311
-2.67425
4.312
2.41897
-4.4127
-3.80323
4.52478
2.38231
4.02113
-10.0639
4.32674
-7.91468
-9.20075
-3.77427
-9.07438
3.49325
2.60903
-6.10228
-2.04903
8.46301
-4.24451
7.21605
-5.17202
-3.37666
-5.16253
-6.84438
-1.73257
-6.70052
-8.89199
8.39975
-9.19082
8.54604
12.5687
-5.67802
-6.89063
-3.96835
-2.47334
3.92076
-0.491621
-3.71062
3.71586
0.050326
3.83101
4.75361
4.26199
-3.8852
-1.93096
-3.82982
3.82706
2.04802
3.89125
6.8088
2.28894
6.8395
-6.57773
-2.55851
-6.67803
9.05058
-8.65153
2.86115
-2.77005
5.37978
2.64142
-5.17241
-2.83593
6.21315
-3.2141
-2.99904
-12.2003
10.5364
1.66389
-4.81989
-0.387318
-0.323624
-5.49077
-3.75973
5.37401
0.544044
11.0805
7.32073
-5.51306
5.76156
6.16519
6.22301
-0.175349
5.81544
-5.14424
5.26848
-2.54232
-2.72616
5.43696
-5.57435
-1.24107
-5.48662
4.24556
0.397888
1.56993
-1.33873
-1.84361
-0.5266
-1.7694
1.3415
0.916011
1.4299
0.927212
1.53782
-2.94487
0.553946
2.39093
-2.01766
-1.60476
-3.76158
-1.11935
4.88094
5.70753
2.11181
-5.61261
-0.209623
2.59024
-2.49288
-0.75233
-3.00925
2.22186
-2.97419
-3.67196
-2.01468
5.68664
-3.37007
-0.459752
3.31706
0.55297
-3.82675
-2.09661
3.78799
0.329975
-3.12703
6.19052
-3.06349
-5.05799
2.52794
3.5592
4.53861
-4.78959
2.44722
2.34237
-1.23039
4.24087
0.904521
4.37989
-6.8795
4.6526
5.77989
3.20262
-6.11125
0.959911
-5.91959
8.52909
-7.35085
-1.17824
4.13405
4.39504
7.09525
5.4734
-5.68818
12.7834
-1.18378
-6.16707
7.10338
-3.90075
4.83857
-8.73933
-10.312
4.14491
-9.16847
10.9414
-1.77289
-3.62562
-8.34766
12.7941
-1.21103
-11.5831
8.58015
-4.22499
-4.30811
8.5331
-6.83528
6.84784
-1.98118
-4.86666
-10.1168
-5.70189
10.2102
1.61191
-9.87219
12.2354
-2.66035
4.10501
0.71582
4.12467
3.27522
-5.44787
2.17266
3.56006
-5.54124
2.08323
-7.53111
-6.72771
12.0571
-5.32938
-10.502
-9.5202
-0.981786
2.53299
9.70245
-9.47632
7.43113
2.04519
3.30371
0.587535
-3.37395
-0.408711
0.233285
4.53628
-4.76957
4.02059
4.18966
3.30462
1.23166
3.84413
2.10776
-3.86937
-0.327953
-4.16107
1.48682
-1.7421
-3.68952
5.17634
-4.06578
0.376259
-2.74509
-3.50066
6.24576
-4.58093
3.03671
3.15381
5.08473
-4.91223
1.41156
-2.39408
-2.51814
2.65422
-4.39632
1.98746
3.18889
4.36977
0.566542
5.86402
6.19307
-8.47305
0.558371
11.2324
-9.50551
2.46783
8.58504
-9.89896
0.378756
-8.69562
0.995758
-5.24027
-5.10652
5.17541
-6.90799
-3.56392
6.18272
0.656783
-6.29422
-0.406309
-6.04297
-2.84901
-6.48662
-3.04926
-6.14156
-8.73744
-1.65429
-7.08315
6.74546
-6.69165
-3.44681
7.41852
1.12751
-7.41543
7.31974
-7.4952
7.16968
0.0952094
3.62065
4.3572
1.88386
-2.39027
4.27413
-5.10375
7.39269
-8.69262
3.58888
4.17636
-6.73487
-4.51626
5.02833
4.02225
5.32715
8.90211
-10.378
1.47586
-10.678
12.015
-1.337
-16.4461
5.76807
-7.54397
2.48747
0.373675
2.59557
0.562152
2.49995
-3.06211
-2.2079
-2.12762
-2.41949
-3.46389
5.88338
1.11618
-3.50739
2.39121
-3.56703
4.68321
-0.179295
-3.32809
5.28851
-2.78855
5.66218
-3.74633
1.91585
3.4246
5.74758
-2.32298
4.39112
-1.74971
1.90869
-4.23168
-1.5552
-2.96218
5.10308
-3.28357
3.65983
-0.333507
3.99334
-4.07381
0.859704
-0.769184
3.42047
3.6663
4.30464
-3.07298
2.92608
-4.67579
-1.3056
-4.10924
-0.92036
-0.270613
-3.72471
3.99533
6.00064
-6.27125
-5.23996
9.53842
-4.29847
7.70094
-5.3869
-2.31404
-4.25879
-4.39273
3.88369
1.93175
9.63269
0.210163
-5.59706
-4.93408
-3.98362
3.12994
2.13854
-1.80866
3.47255
2.13229
-0.562361
0.466499
0.963405
1.7925
-1.326
0.286744
1.50576
-1.05198
1.8188
0.771437
-1.89798
0.128576
-1.31352
3.53538
1.07741
-1.99342
0.667417
0.9954
-3.53772
4.99429
-2.63942
-2.35487
5.98969
1.14511
-3.78453
4.34151
-3.94362
2.37077
-3.49012
-1.41376
-5.35738
-3.62551
-2.53436
4.92557
-3.34902
5.46083
1.2536
-5.2512
6.50481
-3.70008
1.68541
-3.07733
3.84877
-0.983131
-2.0942
2.88477
2.80187
-3.02907
0.0198185
-0.144306
2.39297
-2.53727
-0.58122
-2.59888
-4.57293
4.9029
-2.10587
4.55309
2.16826
-1.91622
6.46931
1.8096
-3.72582
-3.24839
-3.70814
-1.38344
3.15517
-0.593931
-4.25807
-5.46059
4.15771
0.222182
-6.97726
7.7919
-0.814638
-3.98633
-0.666263
4.80031
-6.02489
0.483649
-3.94166
3.85024
4.75476
4.97694
-11.3741
-0.209005
-6.21578
1.13228
-7.34806
5.52732
-3.55575
7.70066
-10.3552
6.90839
-9.22768
6.52242
-0.825646
6.24857
-4.07592
2.77546
-8.47735
-6.86545
5.46583
-2.75573
6.18165
-3.11702
9.29868
-5.77737
5.25651
4.04217
-1.00438
-4.15814
-5.24919
4.24481
0.00731436
4.13199
4.97868
-2.87092
4.65072
2.26539
-4.65947
-2.13093
-6.495
1.83553
-3.34118
-1.91936
3.75488
3.16537
3.75291
1.23674
-3.34419
7.17921
-8.161
-1.84983
-3.25669
5.23642
-0.991609
3.38052
-6.63721
-1.85976
4.82466
-0.783697
-4.04097
0.853355
-4.41727
1.67291
-6.09018
5.23508
-5.64139
2.22185
-9.76581
-5.19358
-5.14862
-2.25926
-5.23594
-7.58335
5.32408
-1.81528
5.50446
-8.5271
7.7434
-3.48791
8.81199
-5.43544
-1.05117
5.85111
1.31858
10.1306
0.207627
-4.72389
-1.90642
3.88125
-1.97483
1.22352
-3.51709
0.364164
2.48481
3.50488
-6.73037
-0.00450494
-4.7284
-3.92042
7.94266
5.61801
11.6186
1.24068
9.12588
-1.18322
10.3666
4.14393
4.37992
-3.01215
4.48802
0.983172
4.57205
-0.907482
2.82333
1.68809
1.76375
0.729131
2.30721
1.35909
3.16692
0.10481
-2.02281
4.62538
-8.609
-0.971681
-8.0371
1.1259
5.71335
-4.58745
3.00017
-0.861629
1.02534
-0.0398612
-1.36852
1.40838
-2.76602
-1.93088
-0.425119
-1.66968
2.3371
1.86569
-1.91198
-0.854039
0.355184
-3.9807
3.13494
-3.11512
-0.313248
6.19156
-2.81161
0.274333
-1.1262
-2.32455
-2.85115
2.72257
6.17621
0.293092
3.11272
5.19599
3.09938
0.228463
3.9038
-5.67668
-3.62731
-5.88569
-0.358366
4.44195
1.74585
7.95661
5.78802
4.79641
-1.8408
-10.0018
6.55365
-2.06563
5.21665
-1.17568
-4.9145
5.02535
2.36734
-5.68213
0.0407412
-4.87375
-6.93939
-0.513972
8.25738
-9.6166
8.56542
5.71641
1.36674
-4.41033
-0.73829
4.24237
0.137545
10.5041
-1.12775
-6.75258
7.88033
-4.58561
3.61393
0.773941
2.69861
2.18232
1.32069
-5.43189
-10.0193
-2.0079
-1.52982
-4.36277
0.518168
-2.38386
6.23157
-2.61764
3.91753
5.26268
6.28802
-2.13909
-4.13216
6.43756
-2.52003
3.76799
)
;

boundaryField
{
    wall-4
    {
        type            calculated;
        value           uniform 0;
    }
    velocity-inlet-5
    {
        type            calculated;
        value           uniform -3.75095;
    }
    velocity-inlet-6
    {
        type            calculated;
        value           uniform -5.62643;
    }
    pressure-outlet-7
    {
        type            calculated;
        value           nonuniform List<scalar> 8(3.31025 7.74647 4.43092 9.7423 7.42106 5.15435 5.73367 8.97434);
    }
    wall-8
    {
        type            calculated;
        value           uniform 0;
    }
    frontAndBackPlanes
    {
        type            empty;
    }
}


// ************************************************************************* //
