/*--------------------------------*- C++ -*----------------------------------*\
  =========                 |
  \\      /  F ield         | OpenFOAM: The Open Source CFD Toolbox
   \\    /   O peration     | Website:  https://openfoam.org
    \\  /    A nd           | Version:  13
     \\/     M anipulation  |
\*---------------------------------------------------------------------------*/
FoamFile
{
    format      ascii;
    class       volVectorField;
    location    "55";
    object      U;
}
// * * * * * * * * * * * * * * * * * * * * * * * * * * * * * * * * * * * * * //

dimensions      [0 1 -1 0 0 0 0];

internalField   nonuniform List<vector> 
918
(
(0.985162 -0.000505237 0)
(0.00501234 2.96625 0)
(0.00807121 0.882571 0)
(0.979703 0.00214686 0)
(-0.0127812 2.06481 3.25717e-20)
(-0.00704596 2.94879 -2.47615e-18)
(0.814226 1.15595 4.45469e-19)
(0.180144 0.0931259 -1.52161e-20)
(0.999909 -0.000278864 0)
(0.060055 0.758973 0)
(0.0102325 0.557657 0)
(0.73516 -0.0187015 0)
(0.0111271 2.93032 0)
(0.00295302 2.79485 0)
(-0.0176176 3.15087 7.79998e-19)
(-0.0180852 1.9125 6.68987e-21)
(0.281313 0.0379953 1.01988e-18)
(0.185134 1.13925 3.19404e-19)
(0.962742 0.00501964 0)
(0.00872305 0.505987 0)
(0.00731482 0.123638 -7.14149e-19)
(1.00198 -0.00497716 0)
(1.00022 -0.00978738 0)
(0.975733 -0.00643923 0)
(0.592471 -0.00622972 0)
(0.0151673 2.64094 0)
(-0.0148015 2.90997 9.11548e-19)
(0.0119676 0.937372 0)
(-0.0116172 1.18101 0)
(0.0127589 0.918208 0)
(-0.0134044 2.59771 0)
(-0.00125919 2.11384 -2.60138e-20)
(-0.00850067 1.8959 0)
(-0.0206028 2.9876 -8.90258e-23)
(-0.0166862 3.0053 1.92439e-18)
(0.0021041 3.00018 0)
(0.871147 -0.00961433 0)
(0.403819 0.935282 1.79462e-19)
(0.799579 1.17035 -5.07917e-19)
(0.95007 1.01695 5.49286e-19)
(0.668587 1.26142 -1.03411e-19)
(0.669856 1.23493 5.95106e-19)
(0.216113 0.153783 1.48446e-20)
(0.193306 0.0678263 0)
(1.15074 0.55887 0)
(0.187757 0.143828 6.7653e-20)
(0.1543 0.0906875 -7.01996e-20)
(0.919861 -0.00745332 0)
(1.00027 0.000157615 0)
(0.999909 0.00033631 0)
(1.00363 -0.00776376 0)
(1.00096 -0.000921911 0)
(1.00017 3.45598e-05 0)
(0.0740713 1.82218 -7.7615e-19)
(0.0271565 0.963692 0)
(0.0943949 0.827883 0)
(0.0114508 0.918855 0)
(0.0353867 0.691187 0)
(0.00710868 2.00647 0)
(0.00125143 0.818559 0)
(0.0115088 0.57447 0)
(-0.00228732 0.813432 0)
(0.00888769 0.54181 0)
(0.840716 -0.0158181 0)
(0.841977 0.0312751 0)
(0.767595 -0.00760532 0)
(0.807696 0.0415257 0)
(0.704765 -0.0186588 0)
(0.0146893 3.0004 9.17994e-19)
(0.0115046 3.00805 0)
(0.00611332 3.00277 0)
(0.0135545 2.99737 1.04183e-23)
(0.00796412 2.95846 -1.36437e-18)
(0.014488 2.98198 0)
(0.0108479 2.9036 0)
(0.0247394 2.93045 2.08825e-24)
(0.00458324 2.82493 0)
(0.0308962 2.91628 0)
(-0.00521421 2.74599 0)
(0.306317 3.54513 0)
(-0.131592 3.62613 0)
(0.138475 3.24095 -7.25864e-19)
(-0.0132353 2.97816 0)
(-0.0175785 1.97911 0)
(-0.00639119 2.1633 -6.59823e-21)
(-0.0124562 1.91767 -5.5501e-22)
(0.370943 0.145274 -3.53928e-19)
(0.30606 0.0241628 -3.43265e-19)
(0.334134 0.15466 -1.06046e-18)
(0.250072 0.0452272 -6.9245e-19)
(0.227592 0.976974 0)
(0.268289 1.28534 -3.69419e-19)
(0.361673 1.21859 6.15546e-19)
(0.987448 0.00856524 0)
(0.941884 0.00583251 0)
(1.0003 0.000579808 0)
(1.00286 0.00930789 0)
(1.00302 0.00846809 -2.74392e-18)
(0.99191 0.00969675 2.07212e-18)
(-0.0028169 0.804483 0)
(0.00938408 0.520314 0)
(-0.0385218 1.007 0)
(-0.0203393 0.840576 0)
(0.00324216 0.501579 0)
(0.0199905 0.131557 2.20519e-19)
(0.0944808 0.103062 0)
(0.993548 -0.00837478 0)
(0.954449 -0.00652625 0)
(0.751274 0.0463622 0)
(0.686179 0.0449266 0)
(0.663824 -0.0219481 0)
(0.968095 -0.00785604 0)
(0.59719 0.0694282 0)
(0.443927 -0.0138905 1.53942e-18)
(-0.0369014 2.86304 6.73911e-19)
(0.0413313 2.91017 0)
(0.0537473 2.88571 0)
(-0.00393641 2.70016 0)
(-0.0133708 2.98502 8.63525e-19)
(-0.0179167 2.89492 0)
(-0.0154756 2.98805 -2.67687e-18)
(-0.0132853 2.92516 9.16424e-19)
(-0.018543 1.34595 0)
(0.00364947 1.37434 0)
(-0.00630138 2.12844 4.18519e-22)
(-0.00544021 2.09301 0)
(-0.0198816 1.90144 0)
(0.93841 -0.00746338 0)
(0.857157 -0.00993042 0)
(0.863317 0.00586137 0)
(0.949472 -0.00787796 0)
(0.883931 -0.0081701 0)
(0.515454 1.12842 -2.26703e-19)
(0.564592 1.17947 0)
(0.368391 0.88027 3.35696e-20)
(0.310824 0.739091 0)
(0.911435 1.0541 -1.5137e-19)
(1.02821 0.864615 3.05802e-19)
(0.355109 1.34459 0)
(0.521898 1.31594 0)
(0.545313 1.25399 0)
(0.12001 0.18522 -3.01901e-19)
(0.242474 0.147535 0)
(0.215915 0.0732031 1.94507e-19)
(0.999213 0.918892 0)
(1.07209 0.773439 0)
(1.0972 0.714971 -2.40704e-19)
(1.13017 0.618303 0)
(1.18092 0.402738 5.65896e-20)
(0.957684 -0.00874525 0)
(0.962472 -0.0100579 0)
(0.901677 -0.00797432 0)
(0.984194 -0.00915598 0)
(0.974691 -0.00934988 0)
(0.937111 -0.0063687 0)
(1.00019 0.00233852 0)
(1.0009 0.00140971 0)
(0.99991 0.000854217 0)
(0.0352429 2.07287 4.30036e-19)
(0.119341 1.76527 0)
(0.0176242 2.18713 6.61789e-19)
(0.046765 1.87587 -5.5296e-19)
(0.100705 1.14844 -2.61645e-19)
(0.0431076 1.03752 0)
(0.139905 0.982109 0)
(0.00571813 0.878326 0)
(0.0170211 0.639101 0)
(-0.00135142 2.23891 -8.87604e-22)
(0.0163287 2.01131 0)
(-0.00205476 2.24028 -3.40731e-20)
(0.00872485 2.01482 5.5026e-20)
(0.00264155 0.854039 0)
(0.00160506 0.8334 0)
(0.0114633 0.599793 0)
(-0.00652296 0.81315 0)
(0.00482726 0.529327 0)
(0.937572 0.00958782 0)
(0.849012 -0.0148889 0)
(0.926986 0.000252626 0)
(0.841874 -0.0129491 0)
(0.812083 -0.000780274 0)
(0.899858 0.0212205 0)
(0.874486 0.0260873 0)
(0.788763 -0.003672 0)
(0.00569361 3.06483 -8.56329e-21)
(0.0165821 3.05769 0)
(0.0146188 2.96904 0)
(0.00867419 2.87627 0)
(0.922166 3.95892 0)
(1.23591 3.2922 9.2891e-19)
(0.0693491 3.07047 0)
(-0.0292416 2.90293 0)
(-0.00547374 1.3948 0)
(-0.0228489 1.69049 0)
(-0.00998984 1.52809 0)
(-0.0259638 2.55739 -1.102e-20)
(-0.0090581 2.24254 0)
(-0.0147998 2.39264 0)
(0.000865084 1.94147 7.9389e-22)
(-0.00331734 2.23492 -2.51791e-21)
(-0.00481385 2.19768 4.22131e-22)
(-0.0067024 1.92794 0)
(0.418113 0.127281 5.39103e-19)
(0.353985 0.0132673 -5.29064e-19)
(0.259319 1.58452 0)
(0.275698 0.750425 -3.15136e-19)
(0.176973 1.67115 -1.0496e-18)
(0.226199 1.215 1.05196e-18)
(0.902083 0.00640594 0)
(0.96743 0.011102 0)
(0.974563 0.0107991 0)
(0.923343 0.00642659 0)
(-0.000403329 0.808664 0)
(-0.00280933 0.805501 0)
(-0.00147489 0.523608 0)
(0.162207 0.133784 6.25165e-19)
(0.13548 0.121976 -7.37338e-19)
(0.127069 0.0929634 0)
(1.0949 0.0851159 2.73125e-20)
(1.07709 0.038802 0)
(1.01044 0.0394663 0)
(0.905095 -0.00600761 0)
(0.465431 0.106928 0)
(0.521943 0.0878839 -2.45953e-18)
(0.397231 0.00844677 9.19585e-19)
(0.00877017 2.98094 7.24441e-19)
(-0.0327643 2.8653 4.62694e-20)
(0.00361883 3.0503 -1.81297e-20)
(0.0201617 3.04331 6.44191e-19)
(-0.0149761 2.99656 3.00952e-20)
(-0.0129545 2.94944 -1.21044e-22)
(-0.017286 3.01194 -5.56637e-19)
(0.0149089 3.02371 4.03491e-19)
(0.00742435 3.03694 -6.39276e-19)
(0.933592 -0.00135181 0)
(0.939197 -0.00330849 0)
(0.845515 -0.00946646 0)
(0.956587 0.0118589 0)
(0.942769 0.013167 0)
(0.88164 0.00592777 0)
(0.91717 0.0171419 0)
(0.926038 0.0149764 0)
(0.838543 0.00258937 0)
(0.718007 1.40582 4.22054e-20)
(0.751277 1.51455 0)
(0.183894 0.318793 7.07685e-20)
(0.226224 0.667619 5.70521e-19)
(0.262365 0.721431 -3.32747e-19)
(0.264731 0.526516 6.61624e-19)
(0.343834 0.807886 1.58853e-18)
(0.13904 0.229118 3.74619e-19)
(0.299373 0.157147 7.34024e-19)
(0.270044 0.154959 1.90933e-19)
(0.229682 0.0596831 3.62824e-19)
(1.17017 0.460756 5.68732e-20)
(1.18679 0.254718 5.23193e-20)
(0.009708 2.23502 2.55694e-19)
(0.0409245 1.94289 0)
(0.968955 0.0290224 0)
(0.942061 0.0137006 0)
(0.867495 -0.0180649 0)
(0.0114313 3.07446 0)
(0.019846 2.94419 1.1804e-18)
(0.0164085 2.95641 0)
(0.00632617 2.85049 -1.171e-18)
(0.00631766 3.09165 2.86607e-19)
(0.00697496 3.0821 0)
(0.784135 1.81632 -1.59964e-19)
(1.24373 2.49258 4.07398e-19)
(0.76613 1.95574 -1.23457e-18)
(0.0197475 2.98125 -6.23486e-19)
(0.0350489 2.99977 0)
(-0.0346536 2.87709 0)
(-0.00406156 2.21933 -1.31378e-20)
(-0.00309931 2.24051 1.45518e-21)
(0.00280382 1.97605 -7.32686e-21)
(0.277578 1.39284 1.02437e-18)
(0.235767 0.54278 -7.02539e-19)
(0.0635029 1.99758 7.64855e-19)
(0.135452 1.88426 -9.11879e-19)
(0.180296 1.50732 9.425e-20)
(0.00496912 3.11877 -1.595e-18)
(0.0108984 3.11937 1.74397e-18)
(-0.00922337 2.98066 7.95501e-19)
(-0.00452186 2.9773 -7.50936e-19)
(-0.0213245 2.88054 -8.10209e-19)
(0.0084366 3.09963 -2.13007e-18)
(0.00167698 3.1051 2.14411e-18)
(0.280639 0.69431 0)
(0.247542 0.683747 -1.18359e-18)
(0.0961066 0.225692 5.25577e-19)
(0.355909 0.934115 1.11037e-18)
(0.194108 0.274419 -1.71193e-18)
(1.1799 0.173512 6.45837e-20)
(1.18731 0.309171 0)
(1.16823 0.121634 -8.73017e-21)
(0.000956019 2.25151 -1.52924e-21)
(0.00429869 2.24392 0)
(0.0251434 1.97798 0)
(0.340067 1.30185 -3.68141e-19)
(0.373212 1.14563 -7.99088e-19)
(0.208502 0.375011 1.42411e-18)
(1.00588 -0.0108399 0)
(1.00767 -0.00764055 5.06243e-19)
(-0.0163907 1.32583 0)
(-0.0310872 1.32243 0)
(1.00222 0.00350829 1.80797e-21)
(1.00366 0.00945942 1.03353e-18)
(-0.0168044 2.54089 1.39692e-20)
(-0.0218034 2.58374 0)
(0.0342808 3.17733 4.12476e-19)
(0.392255 3.48603 0)
(1.16928 0.658901 -6.02621e-20)
(1.01287 0.0131187 -2.14046e-21)
(1.0213 -0.0103296 0)
(1.0017 0.000119989 7.55348e-23)
(0.10315 1.36126 0)
(0.143919 2.57478 0)
(0.0246466 1.30409 0)
(-0.00130886 2.62497 3.22378e-20)
(-0.0223473 2.58106 8.17965e-21)
(0.999572 0.0292699 2.44914e-21)
(1.06266 0.00435315 0)
(1.09658 0.024454 0)
(-0.0247499 1.73367 0)
(-0.0174918 2.58205 0)
(-0.00198952 1.30767 0)
(0.305714 1.47569 -1.70554e-19)
(1.01129 -0.0096289 0)
(1.0094 -0.014921 0)
(1.00236 0.000739714 6.46864e-19)
(1.00547 -0.00481044 -7.60383e-19)
(1.00118 -0.000976688 0)
(-0.0110174 1.46009 0)
(-0.00441376 1.37271 0)
(-0.00264824 1.41801 0)
(-0.00611242 1.296 0)
(-0.0117701 1.28383 0)
(-0.00305316 1.26507 0)
(1.03489 -0.00616595 0)
(1.01996 0.0156292 -8.61248e-22)
(0.820049 1.26877 2.57994e-19)
(1.00224 0.000302864 -6.44673e-19)
(1.00406 0.00525293 7.54466e-19)
(1.00118 0.00206944 0)
(1.01275 0.010337 6.4132e-19)
(1.008 0.0083039 -7.77054e-19)
(1.00856 0.0146917 0)
(-0.0218665 2.6103 0)
(-0.0233138 2.59056 -1.66803e-20)
(-0.0211826 2.60428 1.18658e-20)
(1.23415 0.264881 5.87941e-19)
(1.16043 0.0860549 0)
(0.0407596 3.07788 -9.20352e-19)
(0.0645688 2.85571 -6.69984e-20)
(0.139119 3.19213 1.41033e-18)
(0.134236 3.22014 -2.0021e-19)
(0.133521 3.23142 0)
(0.0188928 3.13743 2.37678e-19)
(0.0745283 3.15986 9.07693e-19)
(0.0671716 3.1853 -4.47997e-19)
(0.0219431 3.12959 0)
(0.606605 0.276939 0)
(0.52973 0.310185 0)
(1.13992 0.695304 1.39378e-19)
(1.13488 0.816558 -1.25838e-19)
(1.19689 0.581517 0)
(1.22561 0.516447 0)
(1.01608 0.0133487 -1.19545e-18)
(1.01499 0.0142711 1.50057e-18)
(1.02532 -0.00985174 0)
(1.02338 -0.0118831 0)
(1.00642 0.00259719 0)
(1.01042 0.00371933 0)
(1.00459 0.00185128 0)
(1.0098 0.00622323 0)
(1.00783 0.00596084 0)
(1.00451 0.00469556 0)
(0.0923116 1.35893 0)
(0.0871069 1.32705 0)
(0.124261 1.39663 0)
(0.139501 1.40349 0)
(0.145277 2.59973 0)
(0.185496 2.66904 -4.2513e-19)
(0.10089 2.65549 0)
(0.0846225 2.65787 1.99454e-19)
(0.0378208 2.67984 -1.53211e-19)
(0.0176382 1.31887 0)
(0.021393 1.24496 0)
(0.0209643 1.32819 0)
(0.0347239 1.26851 0)
(0.00164699 1.98336 -1.35149e-21)
(-0.0211783 2.60897 -1.31796e-20)
(-0.00974454 2.6665 1.87517e-20)
(-0.0193611 2.68455 0)
(-0.0237639 2.61455 -1.61802e-20)
(-0.0238572 2.60932 6.05355e-21)
(0.0105702 1.98194 3.58217e-21)
(-0.00831189 2.39734 1.76829e-20)
(-0.0144518 2.41926 -2.12662e-20)
(1.00992 0.0378148 1.2204e-18)
(1.00519 0.0160348 -1.50883e-18)
(1.00124 0.045318 -1.22445e-18)
(0.976824 0.0240448 1.55931e-18)
(1.06389 0.00815715 0)
(1.04911 -0.00838659 0)
(1.09378 0.0344531 0)
(1.07389 0.0125821 0)
(1.07166 0.000330617 0)
(1.13965 0.0822551 0)
(1.111 0.0439483 0)
(1.1145 0.0318762 0)
(-0.0216026 2.43102 8.48316e-22)
(-0.0108179 2.00696 0)
(-0.0110197 2.21273 0)
(-0.0193266 2.60285 -8.37368e-21)
(-0.0169673 2.61279 1.0102e-22)
(0.00413471 1.5696 -3.04523e-20)
(-0.00304186 1.49869 3.10102e-20)
(-0.0126264 1.38803 0)
(-0.0159235 1.39503 0)
(-0.0200602 1.39 0)
(-0.00249662 1.30823 0)
(0.00829003 1.23565 0)
(0.384714 1.49249 2.78107e-19)
(0.427631 1.49285 1.45784e-19)
(0.598092 2.44876 -2.39934e-19)
(0.399821 2.54565 7.06389e-19)
(0.351769 2.06002 7.05698e-20)
(1.02103 -0.00814736 0)
(1.01549 -0.0097641 0)
(1.01491 -0.0155079 0)
(1.0074 -0.00110887 0)
(1.00493 -0.000924421 0)
(1.00778 -0.00470931 0)
(1.00926 -0.00364353 0)
(1.0142 -0.00441233 0)
(1.02071 0.0162445 1.17085e-18)
(1.01778 0.0155962 -1.49838e-18)
(1.02105 0.0182344 -1.17984e-18)
(1.01878 0.0167136 1.47591e-18)
(0.783153 1.31986 0)
(0.720737 1.36885 2.4553e-19)
(0.893977 1.22085 9.5479e-20)
(0.939927 1.16532 -1.27045e-19)
(1.15592 2.6023 2.74939e-19)
(0.778266 0.119513 5.99492e-19)
(1.16247 0.107571 0)
(1.21035 0.192393 -4.72803e-19)
(1.19708 0.15415 -2.00725e-20)
(1.00572 0.154914 0)
(0.130923 2.95914 5.36625e-19)
(0.107623 2.86518 -1.16841e-18)
(0.0168873 2.37539 7.82889e-19)
(0.0916972 -0.109651 -3.41089e-19)
(0.337346 3.41578 -2.14445e-19)
(0.192212 3.30963 0)
(0.235827 3.35062 2.79282e-19)
(0.241442 3.03182 -1.78931e-18)
(0.335067 3.19037 0)
(0.00708381 3.12075 4.64595e-20)
(0.0175005 3.12949 -5.45457e-19)
(0.0156311 3.12561 8.02826e-19)
(0.03493 3.13951 0)
(0.0329944 3.15042 0)
(1.21233 2.60035 0)
(0.542538 0.813036 -5.28641e-19)
(1.06203 0.989992 -4.82083e-21)
(0.996282 1.07533 0)
(0.850014 0.972221 -1.108e-19)
(1.08591 0.891441 2.82275e-20)
(0.333861 0.353651 -8.8008e-19)
(0.668337 0.316434 -1.83292e-20)
(0.599192 0.220026 4.14883e-19)
(0.55568 0.346021 3.06148e-20)
(0.453229 0.297064 -1.2305e-18)
(0.631858 0.322069 0)
(0.702087 0.420107 7.06449e-19)
(0.710089 0.421328 0)
(0.591871 0.342048 0)
(0.536803 0.252833 0)
(0.814289 0.619084 4.16406e-19)
(1.23512 0.287214 -4.95709e-19)
(1.2348 0.425741 0)
(1.24296 0.365986 0)
(0.70958 0.19281 6.21033e-19)
(0.863213 0.547555 -3.82983e-19)
(0.761579 0.51739 6.79669e-19)
(0.95771 0.438584 -7.46099e-19)
(1.01938 0.0148766 8.03505e-19)
(1.01767 0.0143053 -8.08574e-19)
(1.01592 0.0154308 0)
(1.03635 -0.00570209 0)
(1.02981 -0.00843774 -7.57334e-19)
(1.02784 -0.0120147 7.49812e-19)
(1.0249 0.0103047 0)
(1.02345 0.0140075 0)
(1.01142 0.00412266 0)
(1.01423 0.00910383 0)
(1.01514 0.00410235 0)
(1.01425 0.00285727 0)
(0.0619522 1.34301 0)
(0.0668952 1.29638 0)
(0.142908 1.37656 1.09168e-20)
(0.27683 1.47282 9.06098e-20)
(0.168661 1.44383 1.90335e-19)
(0.201417 1.44963 -3.10398e-19)
(0.165603 1.40207 0)
(0.133883 1.59892 -7.07038e-20)
(0.116669 1.57463 0)
(0.349338 2.0113 -1.02605e-19)
(0.344117 2.34519 6.15081e-19)
(0.191042 1.45911 6.16305e-20)
(0.263295 1.39167 2.43603e-20)
(0.199677 1.38068 -1.97486e-20)
(0.276169 1.33605 -9.98343e-20)
(0.242818 1.58147 0)
(0.266109 1.61978 1.0976e-19)
(0.0302711 2.2648 -2.99237e-20)
(0.0427867 2.66952 0)
(0.0656448 2.40172 1.35493e-19)
(0.0620375 2.42253 0)
(0.0688816 2.67151 -2.21006e-19)
(0.0483976 2.69945 0)
(0.0264382 1.4231 2.6403e-20)
(0.033361 1.47457 0)
(0.0287705 1.39109 0)
(0.023715 1.39489 -2.97917e-20)
(-0.000713932 2.65286 -1.72202e-20)
(0.0287165 2.69845 1.72487e-19)
(0.00933385 2.72278 1.21934e-21)
(0.00176856 1.83254 2.26973e-21)
(-0.00399844 1.68458 -9.85467e-22)
(0.01461 1.29759 0)
(0.0178421 1.22137 0)
(0.0461154 1.58265 -2.28274e-20)
(0.029145 1.45686 -2.81391e-20)
(0.0359373 1.52149 3.55477e-20)
(0.038867 1.60676 0)
(-0.0283832 2.26874 8.36453e-20)
(-0.0294701 2.54899 -3.46494e-20)
(-0.0162802 2.4459 2.42079e-21)
(-0.004407 1.84929 -2.75035e-21)
(-0.0254911 2.49912 -1.38539e-22)
(-0.0209937 2.4427 9.03476e-21)
(1.01891 0.0211093 -8.00773e-19)
(1.01474 0.0271354 8.03899e-19)
(1.01383 0.0165677 0)
(1.01184 0.0718939 1.12711e-18)
(0.989753 0.0600717 -1.27038e-18)
(0.946982 0.0483767 1.42011e-18)
(1.01447 0.111416 -1.50258e-19)
(1.04272 -0.00571133 0)
(1.05103 -0.00139072 7.2233e-19)
(1.03901 -0.00985039 -7.23816e-19)
(1.07125 0.0423489 -4.29676e-20)
(1.06454 0.0236965 3.70489e-19)
(1.06319 0.0561099 0)
(1.0535 0.0498191 -1.33248e-19)
(1.03254 0.0428758 0)
(1.0254 0.0391287 0)
(1.02782 0.0133449 0)
(1.02395 0.0160304 0)
(1.03973 0.032224 2.74481e-19)
(1.03905 0.0273001 -6.0681e-19)
(1.05104 0.0341252 -2.90842e-19)
(1.04818 0.034096 -3.20436e-19)
(1.07122 0.0647672 6.24917e-19)
(1.09631 0.0522925 0)
(1.10503 0.0961588 0)
(-0.0237054 2.27375 4.79008e-20)
(-0.0213086 2.01552 3.12287e-22)
(-0.0179202 2.02201 0)
(-0.0253771 2.44389 -4.76885e-20)
(-0.0194409 2.39976 -1.11506e-21)
(-0.0299272 2.47216 4.82117e-21)
(-0.0208119 2.62178 -5.81806e-21)
(-0.0224313 2.5632 -3.85791e-22)
(-0.0214738 2.5147 -1.09205e-21)
(-0.0153642 2.61567 7.13849e-21)
(-0.020778 2.6176 -7.13122e-21)
(-0.00401849 1.4889 -3.35641e-22)
(0.00503661 1.61788 -2.68329e-20)
(0.369071 1.44348 -1.17631e-19)
(0.369691 1.38094 3.28668e-20)
(0.660738 1.41923 -2.37601e-19)
(0.527539 1.48554 -1.43162e-19)
(0.586552 1.45129 0)
(0.593829 2.42558 2.06764e-19)
(0.661822 2.42012 3.37509e-19)
(0.411592 2.51596 8.72624e-20)
(0.403099 2.5406 -6.0961e-19)
(0.511259 2.48238 6.11496e-19)
(0.55365 2.46256 0)
(0.48894 2.52006 -5.59428e-19)
(0.248585 2.59293 1.14686e-18)
(0.354931 2.56518 -7.82247e-20)
(0.284369 2.6546 -1.5886e-18)
(0.947713 2.37734 7.26381e-19)
(0.838285 2.38286 0)
(1.01105 0.000486317 2.6244e-20)
(1.01532 -0.00541828 -2.12923e-20)
(1.01765 -0.00353991 -3.88899e-19)
(1.01501 -0.000893274 3.90936e-19)
(1.01243 0.00119514 0)
(0.646732 1.2869 0)
(0.669761 1.18265 0)
(0.782262 1.09938 0)
(0.662213 1.1454 0)
(1.18572 2.616 5.97866e-20)
(1.07412 2.36315 0)
(0.836088 2.17044 3.81081e-21)
(0.825245 2.43588 0)
(0.922728 2.52859 -4.20516e-19)
(0.958079 2.48461 2.79761e-19)
(0.804507 0.177813 0)
(0.754849 0.153212 1.62616e-19)
(0.913593 0.149525 9.46719e-19)
(0.828117 0.151696 -3.55227e-19)
(0.787044 0.0869159 -1.09329e-18)
(1.08083 0.237986 -8.95133e-19)
(0.998302 0.298345 -1.65076e-20)
(0.929243 0.301261 8.63885e-19)
(1.00788 0.229947 7.22344e-19)
(0.950195 0.195 -1.25349e-18)
(0.913831 0.1994 1.56691e-19)
(0.953556 0.26297 -3.32816e-19)
(0.92899 0.225246 0)
(0.994066 0.191393 6.17962e-19)
(1.04697 0.191717 0)
(1.04438 0.219401 0)
(1.10643 0.119545 2.9037e-19)
(1.07093 0.178694 -1.47784e-20)
(1.0748 0.238342 -1.57942e-19)
(1.10133 0.204702 0)
(1.02309 0.0470128 6.19319e-19)
(1.03979 0.0596732 7.71888e-19)
(1.0339 0.0453576 -6.14068e-19)
(1.04285 0.0666875 -5.17301e-19)
(1.01974 0.0745749 -7.92916e-19)
(0.987373 0.161199 0)
(0.996595 0.106178 0)
(0.964608 0.0689899 -5.04926e-19)
(0.909007 0.0947921 1.98849e-19)
(1.03945 0.106321 7.15095e-19)
(1.06902 0.122872 -8.37432e-19)
(1.07475 0.155696 7.47563e-19)
(1.02979 0.146602 0)
(1.0746 0.110937 0)
(1.05473 0.0917009 -3.42882e-19)
(1.04357 0.0963602 -5.84727e-19)
(0.580568 1.06253 1.38973e-19)
(0.607172 1.39022 -4.04145e-20)
(1.15561 2.73188 -2.25002e-19)
(1.22153 3.07392 1.19385e-21)
(1.24762 2.71487 -1.20364e-19)
(1.27653 2.69834 -3.41466e-20)
(1.2043 2.33887 -1.08303e-20)
(1.20913 2.97783 -9.08598e-20)
(1.22908 2.9432 2.30671e-19)
(1.21185 3.22704 -1.44438e-19)
(1.37188 2.95832 1.99633e-19)
(1.36103 2.87651 0)
(0.556121 0.820859 -5.00068e-20)
(0.119206 1.23482 5.70949e-19)
(0.546736 0.388251 5.72254e-19)
(0.385657 0.135375 6.26078e-19)
(0.491887 0.336038 6.95914e-19)
(0.541348 0.445473 -1.12067e-18)
(0.543759 0.443382 9.1636e-19)
(0.475382 0.345599 -3.48543e-19)
(0.368945 0.276102 7.91576e-19)
(0.72448 0.263244 -3.5793e-19)
(0.685657 0.286514 0)
(0.64564 0.205925 7.6898e-21)
(0.737224 0.506589 3.718e-19)
(0.71058 0.477202 -1.35403e-18)
(0.615466 0.45147 1.2769e-20)
(0.618749 0.441799 0)
(0.684839 0.719975 3.98057e-19)
(0.845844 0.776617 3.98593e-19)
(0.770802 0.859017 -4.66338e-19)
(0.893701 0.815008 -1.56783e-19)
(0.92577 0.859292 -3.80408e-20)
(0.932916 0.859588 3.89518e-20)
(0.857678 0.655017 -6.89916e-19)
(0.939366 0.709423 1.45626e-19)
(1.00005 0.725727 0)
(0.990709 0.702139 -1.97445e-19)
(1.02765 0.337921 2.1455e-19)
(1.14609 0.302698 2.91225e-19)
(1.06819 0.275187 3.66044e-19)
(1.01565 0.370324 -4.34177e-19)
(1.06344 0.434374 0)
(1.11936 0.417409 0)
(0.922344 0.372359 3.17162e-21)
(0.841889 0.305987 0)
(0.884269 0.304182 4.07224e-19)
(0.911421 0.30867 -6.80689e-21)
(0.951096 0.441445 2.07881e-18)
(0.909942 0.497969 5.36313e-19)
(0.91528 0.464297 -5.7122e-19)
(0.835021 0.448873 6.12143e-19)
(0.817459 0.441793 3.67522e-19)
(0.786126 0.424157 -3.61441e-19)
(1.02734 -0.000304834 6.47772e-19)
(1.02 8.55176e-06 0)
(1.01852 0.000933646 4.22355e-19)
(1.02169 -0.00162395 -9.56735e-19)
(1.02234 0.00441304 4.64787e-19)
(1.02034 0.0113972 -9.73331e-19)
(1.02126 0.0107708 0)
(1.02053 0.0109988 -2.02856e-19)
(1.01595 0.00777909 5.0891e-19)
(1.01664 0.0105536 -2.53924e-19)
(1.01734 0.00990148 1.87012e-19)
(0.0282768 1.31886 0)
(0.0344877 1.36396 0)
(0.0430999 1.31995 0)
(0.0480536 1.27523 0)
(0.0704108 1.38763 -4.69683e-20)
(0.0770772 1.35694 2.1168e-20)
(0.113494 1.52912 -1.2797e-20)
(0.0954533 1.374 -6.85156e-21)
(0.033847 1.46164 8.93752e-21)
(0.0378412 1.45467 -6.72023e-21)
(0.0622946 1.37226 -8.44036e-21)
(0.0544418 1.3735 4.07631e-20)
(0.0483369 1.34884 5.90491e-21)
(0.0390621 1.37201 2.55742e-21)
(0.107104 2.37174 -1.4955e-19)
(0.0959455 2.41908 0)
(0.170921 2.04661 1.06982e-19)
(0.111462 1.71014 3.85516e-20)
(0.233189 2.04152 -8.89189e-20)
(0.202515 2.43319 0)
(0.264086 2.38317 -6.01471e-19)
(0.304088 2.38081 4.25479e-19)
(0.230662 2.00248 -2.46447e-19)
(0.155012 2.16184 1.67949e-19)
(0.142406 2.27034 0)
(0.0171098 1.87832 1.4989e-21)
(-0.00147152 2.3959 -4.16074e-20)
(0.00464892 2.1511 0)
(0.0103721 2.45821 -1.35328e-20)
(0.0269245 2.30236 1.08971e-20)
(0.0158522 1.40489 -5.54487e-21)
(0.0141609 1.38965 9.37508e-20)
(0.0135711 1.39484 -3.1083e-20)
(0.0203629 1.39562 -2.59278e-20)
(0.0250691 1.42689 0)
(0.00937602 1.37637 0)
(0.000632059 1.2915 -3.45063e-20)
(0.00824815 1.3679 9.59874e-21)
(0.00934271 1.36794 0)
(0.00750759 1.28506 -2.53519e-20)
(0.015436 1.21111 5.20176e-20)
(1.04064 0.0118023 0)
(1.04678 0.00806641 -6.77738e-20)
(1.03856 0.0218858 -4.89034e-19)
(1.04823 0.0207121 0)
(1.0522 0.0205796 0)
(1.03627 0.0119819 -6.7692e-21)
(1.03096 0.0118152 7.86e-19)
(1.0317 0.0167269 9.52964e-19)
(1.02554 0.0206062 0)
(1.02244 0.0209743 0)
(1.03505 0.0255778 4.87905e-19)
(1.02567 0.0269222 0)
(1.02375 0.0270009 0)
(-0.0182601 2.02132 0)
(0.00124545 1.64779 -4.16056e-21)
(-0.0045524 1.75654 -2.75855e-20)
(0.00269099 1.37963 0)
(-0.00671607 1.54697 -1.34456e-20)
(-0.00651807 1.45681 8.92733e-21)
(-1.2841e-05 1.39265 0)
(0.392354 1.6555 0)
(0.373679 1.30925 -6.55916e-20)
(0.304308 1.34599 0)
(0.427962 1.30896 1.08339e-21)
(0.475229 1.46476 0)
(0.456351 1.41226 2.70597e-20)
(1.0368 2.67864 -1.53599e-20)
(0.968435 2.4062 -9.13035e-19)
(0.921235 2.19352 1.02688e-18)
(0.852197 2.37467 2.4187e-19)
(0.8483 2.48911 0)
(0.918228 2.48502 0)
(0.931037 2.371 0)
(0.90989 2.36007 -9.4325e-19)
(0.688743 2.4543 -3.92809e-19)
(0.801345 2.44385 -9.73381e-20)
(0.811836 2.4178 7.40083e-20)
(0.696062 2.3932 0)
(0.80097 2.38825 0)
(0.759284 2.40171 -3.68186e-19)
(0.768679 2.47945 0)
(0.627832 1.09419 0)
(0.481672 0.906755 -5.05412e-19)
(0.562411 0.946578 -3.20417e-20)
(0.521102 1.04056 0)
(0.521235 0.985344 7.5776e-19)
(0.791832 0.88198 -1.30733e-19)
(0.804735 1.01842 0)
(0.779556 0.985022 1.87008e-19)
(0.662281 1.0321 0)
(0.663652 0.935579 0)
(1.16446 2.75456 -2.28916e-19)
(1.14194 2.81787 -9.63085e-20)
(0.930483 2.33392 9.90957e-20)
(0.898398 2.31341 -8.29444e-20)
(1.12995 2.72766 0)
(1.08374 2.69725 9.97989e-20)
(1.09001 2.48127 -3.13871e-19)
(0.984738 2.23358 -3.05124e-20)
(0.496082 1.33931 0)
(0.510831 1.0668 -1.22525e-19)
(0.576667 1.16908 0)
(0.855489 0.243831 0)
(0.77117 0.193371 0)
(0.697791 0.155744 0)
(0.848427 0.244982 -6.4097e-19)
(0.742542 0.235444 3.73423e-19)
(0.925411 0.0822631 -4.10522e-19)
(0.936686 0.127843 0)
(0.919658 0.138042 1.76925e-19)
(0.855457 0.11518 7.08996e-19)
(0.820681 0.074682 -4.44034e-19)
(1.15749 3.35218 -7.21739e-19)
(1.2062 3.27159 0)
(1.15523 3.38089 -1.49217e-18)
(0.643522 3.54211 1.26675e-18)
(0.866217 3.11058 7.48972e-20)
(0.519884 0.814805 6.02567e-19)
(0.426666 0.811644 0)
(0.317732 0.422875 -1.49774e-19)
(0.463864 0.657867 8.57949e-19)
(0.549583 0.390542 -2.00348e-19)
(0.512255 0.475301 2.33419e-19)
(0.669244 0.51641 5.01479e-19)
(0.705036 0.550554 0)
(0.655514 0.585442 0)
(0.617281 0.532653 0)
(1.00134 0.611926 9.1303e-20)
(0.914928 0.548013 -5.2197e-19)
(0.940524 0.580858 3.941e-19)
(0.973074 0.519267 -4.03501e-19)
(1.08068 0.491186 0)
(1.08898 0.581016 -9.89253e-20)
(0.856832 0.402188 -8.3935e-19)
(0.857936 0.390941 -1.03907e-18)
(0.795943 0.387525 6.5442e-19)
(0.801206 0.361844 -6.67127e-19)
(0.846274 0.324573 -5.25088e-19)
(0.795173 0.324477 6.43023e-19)
(1.02666 0.00594055 -4.94204e-19)
(1.02637 0.00616102 1.00523e-18)
(1.02939 0.000115191 6.27776e-19)
(1.03358 0.00101941 -7.5609e-19)
(1.03372 0.00906225 0)
(1.03004 0.00974452 -1.23072e-18)
(0.0627477 1.64343 2.04369e-20)
(0.0458103 1.58247 0)
(0.0862328 1.69439 1.20775e-19)
(0.0966147 1.6765 -1.05862e-19)
(0.088791 1.5391 2.39911e-20)
(0.0875043 1.52962 0)
(0.00998545 1.68031 0)
(-0.00366784 1.48482 4.51871e-21)
(-0.00330633 1.43139 -4.06312e-21)
(-0.0071763 1.54354 5.14742e-21)
(0.0012211 1.88205 6.70209e-21)
(-0.0107835 1.93506 1.12152e-22)
(0.499251 1.36446 -2.72841e-19)
(0.492799 1.36673 2.99698e-19)
(0.455013 1.30325 -2.84667e-20)
(0.439241 1.29119 7.67346e-21)
(0.638609 1.30524 0)
(0.554626 1.39492 1.0621e-19)
(0.570039 1.4 -1.03425e-19)
(0.468258 1.291 2.76782e-20)
(0.52273 1.24271 0)
(0.574716 1.20547 0)
(0.655932 2.41404 5.7706e-19)
(0.670734 2.45512 1.25907e-18)
(0.715362 2.46584 -8.67307e-19)
(0.61165 2.44041 -2.01702e-19)
(0.561397 2.53066 2.82749e-19)
(0.510116 2.5051 -7.53939e-19)
(0.978502 2.37716 -5.74546e-19)
(1.01331 2.38946 0)
(0.926096 2.17125 -6.6202e-19)
(1.05451 2.67639 0)
(1.05679 2.66304 0)
(0.603134 2.26294 -1.19288e-19)
(1.03865 3.15649 1.34753e-19)
(0.909662 3.02692 -3.92467e-20)
(0.270491 0.868525 0)
(0.300542 0.716973 -3.16466e-19)
(0.467742 0.675002 -3.17657e-19)
(0.382412 2.00808 0)
(0.463631 2.78085 -5.21358e-20)
(0.418191 2.54376 0)
(0.705412 0.670898 -8.41988e-19)
(0.786774 0.680677 1.13519e-18)
(0.809264 0.624518 -1.12214e-18)
(0.685298 0.634102 -1.08411e-19)
(0.740134 0.590859 -4.4595e-19)
(1.00196 2.75704 -1.02478e-19)
(1.0418 2.81658 -1.60933e-19)
(0.634719 2.13068 6.80623e-19)
(0.588229 1.69842 -4.85381e-19)
(0.695919 1.89492 -4.02691e-19)
(0.988087 2.44056 -1.1315e-19)
(0.994527 2.43355 2.93166e-19)
(0.653764 1.83047 2.79451e-20)
(0.444405 1.3185 1.43235e-19)
)
;

boundaryField
{
    wall-4
    {
        type            noSlip;
    }
    velocity-inlet-5
    {
        type            fixedValue;
        value           uniform (1 0 0);
    }
    velocity-inlet-6
    {
        type            fixedValue;
        value           uniform (0 3 0);
    }
    pressure-outlet-7
    {
        type            zeroGradient;
    }
    wall-8
    {
        type            noSlip;
    }
    frontAndBackPlanes
    {
        type            empty;
    }
}


// ************************************************************************* //
