/*--------------------------------*- C++ -*----------------------------------*\
  =========                 |
  \\      /  F ield         | OpenFOAM: The Open Source CFD Toolbox
   \\    /   O peration     | Website:  https://openfoam.org
    \\  /    A nd           | Version:  13
     \\/     M anipulation  |
\*---------------------------------------------------------------------------*/
FoamFile
{
    format      ascii;
    class       volScalarField;
    location    "2.485";
    object      T;
}
// * * * * * * * * * * * * * * * * * * * * * * * * * * * * * * * * * * * * * //

dimensions      [0 0 0 1 0 0 0];

internalField   nonuniform List<scalar> 
1000
(
2.10671e-85
3.56358e-85
7.47477e-85
1.65112e-84
3.68229e-84
8.21817e-84
1.83224e-83
4.07932e-83
9.06902e-83
2.01323e-82
4.46256e-82
9.87719e-82
2.18293e-81
4.81728e-81
1.0615e-80
2.33557e-80
5.13121e-80
1.12564e-79
2.46566e-79
5.39287e-79
1.17776e-78
2.5683e-78
5.59223e-78
1.21583e-77
2.63943e-77
5.72132e-77
1.23831e-76
2.67614e-76
5.77478e-76
1.24425e-75
2.67685e-75
5.75023e-75
1.23336e-74
2.64142e-74
5.64842e-74
1.20603e-73
2.57117e-73
5.47321e-73
1.16331e-72
2.46879e-72
5.23134e-72
1.10683e-71
2.3382e-71
4.93198e-71
1.03871e-70
2.18426e-70
4.58615e-70
9.61445e-70
2.01249e-69
4.20606e-69
8.77704e-69
1.82874e-68
3.80439e-68
7.90219e-68
1.63885e-67
3.39358e-67
7.01624e-67
1.44836e-66
2.98522e-66
6.14329e-66
1.26226e-65
2.58954e-65
5.30418e-65
1.08477e-64
2.21502e-64
4.51584e-64
9.19221e-64
1.86819e-63
3.7909e-63
7.68035e-63
1.55359e-62
3.1377e-62
6.32705e-62
1.27382e-61
2.56052e-61
5.13881e-61
1.0297e-60
2.06003e-60
4.11478e-60
8.206e-60
1.63391e-59
3.24813e-59
6.44688e-59
1.27754e-58
2.52759e-58
4.99283e-58
9.84677e-58
1.93886e-57
3.81158e-57
7.48114e-57
1.466e-56
2.86817e-56
5.60245e-56
1.09258e-55
2.1273e-55
4.13529e-55
8.02569e-55
1.5551e-54
3.00838e-54
5.81038e-54
1.1204e-53
2.15695e-53
4.14573e-53
7.95532e-53
1.52408e-52
2.9151e-52
5.56662e-52
1.06126e-51
2.01996e-51
3.83845e-51
7.28215e-51
1.37928e-50
2.60816e-50
4.92384e-50
9.28029e-50
1.74625e-49
3.28047e-49
6.15252e-49
1.152e-48
2.15347e-48
4.01891e-48
7.48789e-48
1.39281e-47
2.58647e-47
4.79517e-47
8.87524e-47
1.63997e-46
3.02531e-46
5.57162e-46
1.0244e-45
1.88034e-45
3.44572e-45
6.30372e-45
1.1513e-44
2.09921e-44
3.82116e-44
6.94396e-44
1.25977e-43
2.28164e-43
4.12547e-43
7.44679e-43
1.34194e-42
2.41417e-42
4.33581e-42
7.77391e-42
1.39147e-41
2.48643e-41
4.43551e-41
7.89906e-41
1.40433e-40
2.49247e-40
4.41622e-40
7.81149e-40
1.37936e-39
2.43155e-39
4.27906e-39
7.51748e-39
1.31842e-38
2.30832e-38
4.03454e-38
7.03962e-38
1.2262e-37
2.13219e-37
3.70123e-37
6.41389e-37
1.10956e-36
1.91615e-36
3.30341e-36
5.68522e-36
9.76747e-36
1.6752e-35
2.86815e-35
4.90213e-35
8.36404e-35
1.42461e-34
2.42226e-34
4.11143e-34
6.96643e-34
1.17835e-33
1.98966e-33
3.35375e-33
5.64318e-33
9.47893e-33
1.58941e-32
2.66045e-32
4.44544e-32
7.41504e-32
1.23467e-31
2.05224e-31
3.40521e-31
5.64021e-31
9.32575e-31
1.53925e-30
2.53612e-30
4.17123e-30
6.84847e-30
1.12242e-29
1.83634e-29
2.99903e-29
4.88923e-29
7.95667e-29
1.29257e-28
2.09606e-28
3.39301e-28
5.4827e-28
8.84366e-28
1.42396e-27
2.2887e-27
3.67204e-27
5.881e-27
9.402e-27
1.50042e-26
2.39018e-26
3.80077e-26
6.03303e-26
9.55919e-26
1.51192e-25
2.38702e-25
3.76188e-25
5.91798e-25
9.29311e-25
1.45669e-24
2.27925e-24
3.55986e-24
5.54999e-24
8.63709e-24
1.34171e-23
2.08048e-23
3.22022e-23
4.97531e-23
7.67307e-23
1.18122e-22
1.81512e-22
2.78414e-22
4.26274e-22
6.51473e-22
9.93837e-22
1.51336e-21
2.30028e-21
3.49002e-21
5.28545e-21
7.98994e-21
1.20563e-20
1.81589e-20
2.73005e-20
4.09692e-20
6.13691e-20
9.17585e-20
1.36945e-19
2.0401e-19
3.0336e-19
4.50265e-19
6.67083e-19
9.86491e-19
1.45615e-18
2.14547e-18
3.15527e-18
4.63182e-18
6.78679e-18
9.92605e-18
1.44906e-17
2.11152e-17
3.07114e-17
4.45862e-17
6.46098e-17
9.34528e-17
1.34922e-16
1.94431e-16
2.79669e-16
4.01528e-16
5.75416e-16
8.23079e-16
1.17515e-15
1.6747e-15
2.38217e-15
3.38221e-15
4.79313e-15
6.77999e-15
9.57256e-15
1.34902e-14
1.89756e-14
2.66418e-14
3.73354e-14
5.22234e-14
7.29118e-14
1.01606e-13
1.41327e-13
1.96209e-13
2.71894e-13
3.76068e-13
5.19181e-13
7.15412e-13
9.83964e-13
1.35079e-12
1.85088e-12
2.53136e-12
3.45553e-12
4.70822e-12
6.403e-12
8.69146e-12
1.17756e-11
1.59242e-11
2.14938e-11
2.89568e-11
3.89377e-11
5.22601e-11
7.00086e-11
9.3608e-11
1.24927e-10
1.66409e-10
2.21248e-10
2.93603e-10
3.88886e-10
5.14118e-10
6.78394e-10
8.93471e-10
1.17451e-09
1.54104e-09
2.01812e-09
2.63791e-09
3.44152e-09
4.48144e-09
5.82457e-09
7.55592e-09
9.78336e-09
1.26435e-08
1.63088e-08
2.09968e-08
2.69814e-08
3.46059e-08
4.43011e-08
5.6605e-08
7.21891e-08
9.18895e-08
1.16745e-07
1.48042e-07
1.87374e-07
2.36706e-07
2.98461e-07
3.75614e-07
4.71817e-07
5.91536e-07
7.4023e-07
9.24547e-07
1.15257e-06
1.43412e-06
1.78106e-06
2.20775e-06
2.73149e-06
3.37308e-06
4.15749e-06
5.11463e-06
6.28023e-06
7.69689e-06
9.4153e-06
1.14956e-05
1.40091e-05
1.70399e-05
2.06873e-05
2.5068e-05
3.03192e-05
3.66013e-05
4.41018e-05
5.30393e-05
6.36681e-05
7.62832e-05
9.1226e-05
0.000108891
0.000129733
0.000154274
0.000183113
0.000216936
0.000256526
0.000302774
0.000356692
0.000419426
0.000492275
0.000576699
0.000674345
0.000787057
0.000916901
0.00106618
0.00123747
0.00143362
0.00165779
0.00191347
0.00220451
0.00253514
0.00290999
0.00333413
0.00381309
0.00435287
0.00495997
0.00564144
0.00640484
0.00725833
0.00821062
0.00927104
0.0104495
0.0117565
0.0132032
0.0148012
0.016563
0.0185013
0.0206297
0.0229621
0.0255128
0.0282967
0.0313292
0.0346257
0.038202
0.0420741
0.0462581
0.0507701
0.0556259
0.0608413
0.0664317
0.0724121
0.0787966
0.0855991
0.0928323
0.100508
0.108637
0.117229
0.126291
0.135831
0.145853
0.156361
0.167356
0.178838
0.190803
0.203247
0.216164
0.229544
0.243376
0.257647
0.27234
0.287439
0.302922
0.318768
0.334953
0.35145
0.368233
0.38527
0.402533
0.419987
0.4376
0.455338
0.473166
0.491047
0.508946
0.526827
0.544653
0.56239
0.580002
0.597455
0.614715
0.631749
0.648528
0.665022
0.681201
0.697041
0.712517
0.727607
0.74229
0.756548
0.770365
0.783727
0.796623
0.809043
0.820979
0.832427
0.843382
0.853844
0.863812
0.873289
0.882279
0.890786
0.898818
0.906381
0.913484
0.920137
0.92635
0.932135
0.937501
0.942461
0.947025
0.951207
0.955016
0.958464
0.961561
0.964318
0.966743
0.968846
0.970633
0.972112
0.973288
0.974166
0.974749
0.97504
0.97504
0.974749
0.974166
0.973288
0.972112
0.970633
0.968846
0.966743
0.964318
0.961561
0.958464
0.955016
0.951207
0.947025
0.942461
0.937501
0.932135
0.92635
0.920137
0.913484
0.906381
0.898818
0.890786
0.882279
0.873289
0.863812
0.853844
0.843382
0.832427
0.820979
0.809043
0.796623
0.783727
0.770365
0.756548
0.74229
0.727607
0.712517
0.697041
0.681201
0.665022
0.648528
0.631749
0.614715
0.597455
0.580002
0.56239
0.544653
0.526827
0.508946
0.491047
0.473166
0.455338
0.4376
0.419987
0.402533
0.38527
0.368233
0.35145
0.334953
0.318768
0.302922
0.287439
0.27234
0.257647
0.243376
0.229544
0.216164
0.203247
0.190803
0.178838
0.167356
0.156361
0.145853
0.135831
0.126291
0.117229
0.108637
0.100508
0.0928323
0.0855991
0.0787966
0.0724121
0.0664317
0.0608413
0.0556259
0.0507701
0.0462581
0.0420741
0.038202
0.0346257
0.0313292
0.0282967
0.0255128
0.0229621
0.0206297
0.0185013
0.016563
0.0148012
0.0132032
0.0117565
0.0104495
0.00927104
0.00821062
0.00725833
0.00640484
0.00564144
0.00495997
0.00435287
0.00381309
0.00333413
0.00290999
0.00253514
0.00220451
0.00191347
0.00165779
0.00143362
0.00123747
0.00106618
0.000916901
0.000787057
0.000674345
0.000576699
0.000492275
0.000419426
0.000356692
0.000302774
0.000256526
0.000216936
0.000183113
0.000154274
0.000129733
0.000108891
9.1226e-05
7.62832e-05
6.36681e-05
5.30393e-05
4.41018e-05
3.66013e-05
3.03192e-05
2.5068e-05
2.06873e-05
1.70399e-05
1.40091e-05
1.14956e-05
9.4153e-06
7.69689e-06
6.28023e-06
5.11463e-06
4.15749e-06
3.37308e-06
2.73149e-06
2.20775e-06
1.78106e-06
1.43412e-06
1.15257e-06
9.24547e-07
7.4023e-07
5.91536e-07
4.71817e-07
3.75614e-07
2.98461e-07
2.36706e-07
1.87374e-07
1.48042e-07
1.16745e-07
9.18895e-08
7.21891e-08
5.6605e-08
4.43011e-08
3.46059e-08
2.69814e-08
2.09968e-08
1.63088e-08
1.26435e-08
9.78336e-09
7.55592e-09
5.82457e-09
4.48144e-09
3.44152e-09
2.63791e-09
2.01812e-09
1.54104e-09
1.17451e-09
8.93471e-10
6.78394e-10
5.14118e-10
3.88886e-10
2.93603e-10
2.21248e-10
1.66409e-10
1.24927e-10
9.3608e-11
7.00086e-11
5.22601e-11
3.89377e-11
2.89568e-11
2.14938e-11
1.59242e-11
1.17756e-11
8.69146e-12
6.403e-12
4.70822e-12
3.45553e-12
2.53136e-12
1.85088e-12
1.35079e-12
9.83964e-13
7.15412e-13
5.19181e-13
3.76068e-13
2.71894e-13
1.96209e-13
1.41327e-13
1.01606e-13
7.29118e-14
5.22234e-14
3.73354e-14
2.66418e-14
1.89756e-14
1.34902e-14
9.57256e-15
6.77999e-15
4.79313e-15
3.38221e-15
2.38217e-15
1.6747e-15
1.17515e-15
8.23079e-16
5.75416e-16
4.01528e-16
2.79669e-16
1.94431e-16
1.34922e-16
9.34528e-17
6.46098e-17
4.45862e-17
3.07114e-17
2.11152e-17
1.44906e-17
9.92605e-18
6.78679e-18
4.63182e-18
3.15527e-18
2.14547e-18
1.45615e-18
9.86491e-19
6.67083e-19
4.50265e-19
3.0336e-19
2.0401e-19
1.36945e-19
9.17585e-20
6.13691e-20
4.09692e-20
2.73005e-20
1.81589e-20
1.20563e-20
7.98994e-21
5.28545e-21
3.49002e-21
2.30028e-21
1.51336e-21
9.93837e-22
6.51473e-22
4.26274e-22
2.78414e-22
1.81512e-22
1.18122e-22
7.67307e-23
4.97531e-23
3.22022e-23
2.08048e-23
1.34171e-23
8.63709e-24
5.54999e-24
3.55986e-24
2.27925e-24
1.45669e-24
9.29311e-25
5.91798e-25
3.76188e-25
2.38702e-25
1.51192e-25
9.55919e-26
6.03303e-26
3.80077e-26
2.39018e-26
1.50042e-26
9.402e-27
5.881e-27
3.67204e-27
2.2887e-27
1.42396e-27
8.84366e-28
5.4827e-28
3.39301e-28
2.09606e-28
1.29257e-28
7.95667e-29
4.88923e-29
2.99903e-29
1.83634e-29
1.12242e-29
6.84847e-30
4.17123e-30
2.53612e-30
1.53925e-30
9.32575e-31
5.64021e-31
3.40521e-31
2.05224e-31
1.23467e-31
7.41504e-32
4.44544e-32
2.66045e-32
1.58941e-32
9.47893e-33
5.64318e-33
3.35375e-33
1.98966e-33
1.17835e-33
6.96643e-34
4.11143e-34
2.42226e-34
1.42461e-34
8.36404e-35
4.90213e-35
2.86815e-35
1.6752e-35
9.76747e-36
5.68522e-36
3.30341e-36
1.91615e-36
1.10956e-36
6.41389e-37
3.70123e-37
2.13219e-37
1.2262e-37
7.03962e-38
4.03454e-38
2.30832e-38
1.31842e-38
7.51748e-39
4.27906e-39
2.43155e-39
1.37936e-39
7.81149e-40
4.41622e-40
2.49247e-40
1.40433e-40
7.89906e-41
4.43551e-41
2.48643e-41
1.39147e-41
7.77391e-42
4.33581e-42
2.41417e-42
1.34194e-42
7.44679e-43
4.12547e-43
2.28164e-43
1.25977e-43
6.94396e-44
3.82116e-44
2.09921e-44
1.1513e-44
6.30372e-45
3.44572e-45
1.88034e-45
1.0244e-45
5.57162e-46
3.02531e-46
1.63997e-46
8.87524e-47
4.79517e-47
2.58647e-47
1.39281e-47
7.48789e-48
4.01891e-48
2.15347e-48
1.152e-48
6.15252e-49
3.28047e-49
1.74625e-49
9.28029e-50
4.92384e-50
2.60816e-50
1.37928e-50
7.28215e-51
3.83845e-51
2.01996e-51
1.06126e-51
5.56662e-52
2.9151e-52
1.52408e-52
7.95532e-53
4.14573e-53
2.15695e-53
1.1204e-53
5.81038e-54
3.00838e-54
1.5551e-54
8.02569e-55
4.13529e-55
2.1273e-55
1.09258e-55
5.60245e-56
2.86817e-56
1.466e-56
7.48114e-57
3.81158e-57
1.93886e-57
9.84677e-58
4.99283e-58
2.52759e-58
1.27754e-58
6.44688e-59
3.24813e-59
1.63391e-59
8.206e-60
4.11478e-60
2.06003e-60
1.0297e-60
5.13881e-61
2.56052e-61
1.27382e-61
6.32705e-62
3.1377e-62
1.55359e-62
7.68035e-63
3.7909e-63
1.86819e-63
9.19221e-64
4.51584e-64
2.21502e-64
1.08477e-64
5.30418e-65
2.58954e-65
1.26226e-65
6.14329e-66
2.98522e-66
1.44836e-66
7.01624e-67
3.39358e-67
1.63885e-67
7.90219e-68
3.80439e-68
1.82874e-68
8.77704e-69
4.20606e-69
2.01249e-69
9.61445e-70
4.58615e-70
2.18426e-70
1.03871e-70
4.93198e-71
2.3382e-71
1.10683e-71
5.23134e-72
2.46879e-72
1.16331e-72
5.47321e-73
2.57117e-73
1.20603e-73
5.64842e-74
2.64142e-74
1.23336e-74
5.75023e-75
2.67685e-75
1.24425e-75
5.77478e-76
2.67614e-76
1.23831e-76
5.72132e-77
2.63943e-77
1.21583e-77
5.59223e-78
2.5683e-78
1.17776e-78
5.39287e-79
2.46566e-79
1.12564e-79
5.13121e-80
2.33557e-80
1.0615e-80
4.81728e-81
2.18293e-81
9.87719e-82
4.46256e-82
2.01323e-82
9.06902e-83
4.07932e-83
1.83224e-83
8.21817e-84
3.68229e-84
1.65112e-84
7.47477e-85
3.56358e-85
2.10671e-85
)
;

boundaryField
{
    sides
    {
        type            zeroGradient;
    }
    empty
    {
        type            empty;
    }
}


// ************************************************************************* //
