/*--------------------------------*- C++ -*----------------------------------*\
  =========                 |
  \\      /  F ield         | OpenFOAM: The Open Source CFD Toolbox
   \\    /   O peration     | Website:  https://openfoam.org
    \\  /    A nd           | Version:  13
     \\/     M anipulation  |
\*---------------------------------------------------------------------------*/
FoamFile
{
    format      ascii;
    class       volScalarField;
    location    "65";
    object      p;
}
// * * * * * * * * * * * * * * * * * * * * * * * * * * * * * * * * * * * * * //

dimensions      [0 2 -2 0 0 0 0];

internalField   nonuniform List<scalar> 
918
(
0.557123
1.18555
0.000858611
0.556568
-0.00948276
1.15254
-0.509424
0.665656
0.537321
-0.110261
-0.0479347
0.539064
1.01322
0.778057
-1.12375
-0.0110191
0.651772
-0.381328
0.536432
-0.0575634
0.693324
0.543862
0.546887
0.537465
0.598416
0.753145
0.894059
0.0228302
0.0114565
0.00495762
-0.0144571
-0.0361832
-0.0308456
1.0362
1.08727
1.10996
0.505086
0.333239
-0.374939
-0.447621
-0.43558
-0.544357
0.662521
0.660954
-0.20987
0.66911
0.671661
0.524349
0.53669
0.537602
0.538623
0.537607
0.538987
0.404111
-0.110277
-0.14156
-0.0917533
-0.0845927
0.0529583
-0.0496259
-0.0516715
-0.0463858
-0.0463362
0.454223
0.533371
0.529825
0.543591
0.553954
1.12509
1.09704
1.12317
1.03677
1.05329
0.991235
0.963823
0.799665
0.821377
0.762163
0.749743
-1.55544
-2.50706
-0.533897
-0.283383
-0.0153752
-0.00886698
-0.00270578
0.64863
0.649832
0.651254
0.653826
1.08026
-0.378731
-0.479148
0.536574
0.535384
0.543704
0.544405
0.540425
0.539515
-0.0491834
-0.0463141
-0.0482863
-0.0541973
-0.0524573
0.682193
0.682774
0.537994
0.534998
0.561366
0.581219
0.571563
0.278018
0.609042
0.625344
0.584094
0.746311
0.739646
0.748936
0.86769
0.830492
0.931248
0.954587
0.0172558
-0.00111613
-0.0154761
-0.0193891
-0.0180513
0.500916
0.493455
0.520889
0.508523
0.511031
0.249929
0.116486
0.418211
0.443071
-0.293799
-0.359824
-0.428835
-0.459257
-0.567423
0.611948
0.658789
0.656962
-0.220429
-0.148516
-0.28147
-0.0754553
-0.138276
0.514611
0.521627
0.516624
0.532181
0.526647
0.528611
0.540961
0.538032
0.539591
0.466345
0.590024
0.330236
0.294834
-0.243007
-0.156251
-0.243089
-0.0734498
-0.0694631
0.067019
0.0925795
0.0398252
0.0280398
-0.0635204
-0.0555593
-0.0593669
-0.0445461
-0.0448399
0.446978
0.43578
0.466917
0.474482
0.519836
0.521379
0.525985
0.523772
0.914727
0.937108
0.944548
0.918348
-3.4969
-6.27903
0.0413226
0.177904
-0.00647077
-0.0108685
0.00459015
-0.0103882
-0.00321668
-0.0044108
-0.00760558
-0.00863874
-0.00361273
-0.00227047
0.642822
0.644009
1.00237
1.00908
0.978109
0.930947
0.524792
0.526862
0.532359
0.528243
-0.0442911
-0.0448494
-0.0435954
0.674977
0.680215
0.677911
0.239573
0.14996
0.329031
0.35813
0.636639
0.625562
0.635092
0.644754
0.679724
0.961996
0.980111
0.978447
0.986701
1.03077
1.04721
1.01247
0.480324
0.490326
0.485262
0.523985
0.521765
0.522662
0.518652
0.519834
0.517874
-0.0340055
-0.414039
0.490393
0.507362
0.492618
0.495136
0.692142
0.770808
0.653619
0.655658
0.655022
-0.00649172
-0.0649559
0.250069
0.215991
0.386547
0.422945
0.401921
0.885882
0.846282
0.896329
0.869854
0.831152
0.857333
-0.365574
-1.86529
-0.984258
0.527081
0.341783
0.428769
0.00989323
-0.0069505
-0.00244531
1.00178
1.07417
0.645863
0.820799
0.823501
0.717126
0.747917
0.803527
0.727715
0.763468
0.799455
0.781129
0.56793
0.50347
0.519417
0.840007
0.895808
0.119987
0.0587032
0.0147609
0.111426
0.168752
0.142835
1.03426
0.949658
1.01992
0.534758
0.535479
-0.00441037
-0.0184209
0.539723
0.539778
-0.0164957
-0.00384502
0.41189
-0.831563
0.0999309
0.528303
0.518206
0.535338
-0.0943825
0.355565
-0.0481754
0.0483405
-0.0076423
0.530581
0.465363
0.424442
-0.000177458
-0.0195997
-0.0494695
-0.213201
0.532428
0.530732
0.534805
0.535748
0.536428
-0.0185162
-0.013576
-0.0100517
-0.0463515
-0.040281
-0.051642
0.499248
0.518482
-0.169912
0.534952
0.537087
0.536906
0.530167
0.535797
0.534049
-0.0109214
-0.0169761
-0.01824
0.220073
0.351687
0.651315
0.738833
0.622552
0.399008
0.164096
0.555032
0.618214
0.523973
0.677526
0.654775
0.666249
0.165485
0.0152941
0.174125
0.115731
0.526164
0.52488
0.51646
0.513421
0.530206
0.528319
0.532878
0.529899
0.532849
0.53423
-0.0504105
-0.0785405
-0.0870514
-0.154537
0.310357
0.571676
0.254125
0.283991
0.14186
-0.0428192
-0.0432737
-0.046902
-0.0550546
0.000759866
-0.0229924
0.0432477
0.0435344
0.0155577
-0.0100933
-0.00735141
-0.0181933
-0.0132135
0.524317
0.524131
0.527434
0.536374
0.475016
0.478803
0.443633
0.464391
0.449653
0.38839
0.423666
0.3989
-0.00806982
0.00174019
-0.00524382
-0.0172401
-0.0132734
-0.033008
-0.0295459
-0.0253404
-0.021262
-0.0278975
-0.0436782
-0.0457516
-0.171124
-0.28691
0.988737
0.91008
0.137165
0.521575
0.528032
0.524793
0.529717
0.532844
0.533646
0.531356
0.527903
0.518758
0.520222
0.517169
0.518176
-0.101549
-0.242698
-0.07088
-0.144972
0.144933
0.627602
0.363583
0.299201
0.294431
0.522912
0.916832
0.700425
0.673405
0.678323
-0.342608
0.0464652
-0.279024
0.335975
0.163294
0.652056
0.700984
0.722246
0.670274
0.623354
-0.101617
0.555993
-0.0720918
-0.0201189
0.181163
0.0577543
0.665738
0.641897
0.64803
0.658904
0.674151
0.646458
0.632652
0.628711
0.653676
0.655914
0.485155
0.250832
0.201772
0.163283
0.642244
0.519304
0.571072
0.491074
0.521407
0.523979
0.522623
0.504086
0.511678
0.507195
0.513794
0.517351
0.525923
0.526392
0.521664
0.523796
-0.0577863
-0.0635142
-0.0282726
-0.135723
-0.128957
-0.190978
-0.0611894
0.0766021
0.0377446
0.237683
0.341883
0.0531774
-0.0572332
-0.0300516
0.0124871
0.180701
0.208641
0.0744059
0.162094
0.153135
0.134727
0.237216
0.240725
-0.0272877
-0.0302788
-0.0342498
-0.0359237
0.0191315
0.0901114
0.0997028
-0.00556242
-0.0116458
-0.041248
-0.0419887
-0.0210137
-0.0273422
-0.0224794
0.00769395
-0.052568
-0.0199032
-0.00588259
-0.0026061
-0.00449404
-0.00996735
0.518276
0.520464
0.5205
0.526964
0.540765
0.555735
0.52029
0.497246
0.488021
0.491044
0.463881
0.474211
0.469918
0.483593
0.504598
0.514027
0.5119
0.51477
0.496767
0.498605
0.485105
0.488773
0.463761
0.444504
0.432596
-0.042457
-0.00431846
-0.0118122
-0.0382674
-0.00928736
-0.0210566
-0.00973376
0.00869536
-0.00747717
-0.00873848
-0.0185367
-0.025579
-0.0250902
-0.0729605
0.0136937
-0.183922
-0.219762
-0.292613
0.89085
1.01496
0.810447
0.58353
0.603645
0.846728
0.931402
0.54355
0.735911
0.759063
0.586734
0.854352
0.526423
0.526021
0.52362
0.523101
0.524321
-0.00699057
0.0989967
0.0979709
0.160777
0.276655
0.388381
0.318784
0.194117
0.324359
0.326841
0.620648
0.632812
0.588222
0.612312
0.612948
0.425278
0.500819
0.552647
0.512912
0.565145
0.586559
0.540577
0.573374
0.523402
0.478616
0.474619
0.424673
0.4443
0.420073
0.403158
0.51512
0.493127
0.503458
0.494154
0.514314
0.542264
0.538784
0.561657
0.576363
0.497905
0.45285
0.462215
0.492471
0.453685
0.469146
0.485367
0.232032
0.133826
0.216883
-0.0686852
0.00285736
-0.0099245
-0.0584546
-0.00761033
0.276739
-0.414667
-0.391114
-1.01854
0.503116
0.953828
0.600303
0.574238
0.6736
0.657138
0.662914
0.679597
0.680555
0.630578
0.640587
0.645344
0.601821
0.62307
0.641695
0.638021
0.524921
0.383948
0.382634
0.331103
0.201276
0.240864
0.437604
0.361515
0.286498
0.286697
0.456974
0.343782
0.413524
0.447346
0.378813
0.333371
0.535826
0.601771
0.595352
0.56865
0.480609
0.49322
0.517371
0.551152
0.575592
0.606388
0.513187
0.519126
0.520356
0.517827
0.515111
0.518191
0.518459
0.521011
0.521628
0.524632
0.523688
-0.0497897
-0.0363136
-0.0499949
-0.0599824
-0.0198324
-0.0218976
0.0235448
0.00807469
-0.0143518
-0.00888921
-0.0323097
-0.0370074
-0.0332063
-0.0247143
0.100949
0.11373
0.0977655
0.0581222
0.251535
0.380854
0.455318
0.330655
0.22445
0.247535
0.266895
-0.011442
0.0134345
0.000539567
0.0401937
0.0325323
-0.0362122
-0.0397666
-0.0366632
-0.0296367
-0.0203154
-0.0364095
-0.0413013
-0.0321633
-0.036937
-0.039726
-0.0433908
0.499508
0.492947
0.494625
0.488427
0.487156
0.501623
0.505922
0.507885
0.513446
0.515904
0.505685
0.511413
0.515493
-0.0108104
-0.0338424
-0.0374675
-0.0276373
-0.0301165
-0.0278456
-0.0292382
0.123614
0.0543849
0.0584799
0.0107448
-0.121278
-0.0632477
0.491427
0.490135
0.479591
0.72096
0.570239
0.4908
0.587785
0.693552
0.276121
0.47296
0.307939
0.888548
0.784939
0.931319
0.542477
0.2453
0.408374
0.451777
0.264806
0.340223
0.325313
0.214286
0.245083
0.282776
0.381834
0.265311
0.241957
-0.00131237
0.189097
0.301427
0.28323
0.407952
0.468656
0.266059
0.185717
0.140881
0.60553
0.625036
0.638346
0.611076
0.632204
0.579975
0.572047
0.587818
0.595999
0.589951
-0.74673
-0.453263
-1.39976
-0.721763
-0.266929
0.533576
0.504688
0.769364
0.646617
0.68435
0.669497
0.628286
0.597831
0.621153
0.644622
0.342259
0.453034
0.428269
0.433752
0.336141
0.266637
0.56424
0.560986
0.593558
0.616854
0.589441
0.618752
0.511021
0.510749
0.510193
0.506429
0.504696
0.507072
0.0575924
0.0254067
0.0641683
0.0457628
0.0224035
0.00909032
-0.00846667
-0.0183775
-0.0257217
-0.0254988
-0.011409
-0.00741532
0.171386
0.109148
0.0296225
0.0587684
-0.00202038
-0.0705838
-0.0894487
0.0156202
0.111763
0.101952
0.405485
0.655261
0.47527
0.642749
0.485206
0.541022
0.468129
0.459556
0.484557
0.379424
0.459887
0.247612
-0.260015
-0.169133
0.793567
0.804966
0.581027
0.40506
0.173462
0.352298
0.542435
0.472963
0.508623
0.577666
0.565203
0.0276413
0.086014
0.370691
0.597572
0.239872
0.231009
0.224532
0.408043
0.326763
)
;

boundaryField
{
    wall-4
    {
        type            zeroGradient;
    }
    velocity-inlet-5
    {
        type            zeroGradient;
    }
    velocity-inlet-6
    {
        type            zeroGradient;
    }
    pressure-outlet-7
    {
        type            fixedValue;
        value           uniform 0;
    }
    wall-8
    {
        type            zeroGradient;
    }
    frontAndBackPlanes
    {
        type            empty;
    }
}


// ************************************************************************* //
