/*--------------------------------*- C++ -*----------------------------------*\
  =========                 |
  \\      /  F ield         | OpenFOAM: The Open Source CFD Toolbox
   \\    /   O peration     | Website:  https://openfoam.org
    \\  /    A nd           | Version:  13
     \\/     M anipulation  |
\*---------------------------------------------------------------------------*/
FoamFile
{
    format      ascii;
    class       surfaceScalarField;
    location    "65";
    object      phi;
}
// * * * * * * * * * * * * * * * * * * * * * * * * * * * * * * * * * * * * * //

dimensions      [0 3 -1 0 0 0 0];

internalField   nonuniform List<scalar> 
1300
(
3.75095
5.62643
-3.32922
3.75095
-7.72512
5.62643
-4.38586
4.38586
-0.417674
0.417674
1.87639
1.87456
-2.68177
2.68177
-2.14612
2.14612
-2.52509
2.52509
-5.24639
5.24639
-5.069
5.069
4.65543
-4.65543
-6.30514
6.30514
-0.947026
0.947026
-3.67939
3.67939
3.16962
-3.16962
-2.09821
2.09821
0.00802954
-0.00802954
-0.553476
4.30443
3.19748
3.19748
-2.01198
2.01198
-4.86747
4.86747
6.21793
-6.21793
5.31425
-5.31425
-1.98502
-2.44557
1.78818
-11.5159
-5.93694
-5.93694
-8.44038
8.44038
-2.81395
2.81248
2.9461
-2.9461
-1.77404
1.77404
-4.34515
-0.0407148
-4.34515
4.35758
0.0282853
4.35758
-0.491944
0.0742698
-0.491944
3.98478
-3.98478
0.334035
0.0836389
0.334035
3.06532
-3.06532
-1.87711
3.7535
1.87384
-1.8719
6.17632
-1.87906
3.75362
-6.01637
6.01637
-2.92375
0.241979
-2.92375
2.47907
0.202701
2.47907
-6.84888
6.84888
-2.17448
0.0283573
-2.17448
2.11409
0.0320381
2.11409
2.88053
-2.88053
-2.63648
0.111389
-2.63648
2.39474
0.130346
2.39474
0.353518
5.27291
-5.97995
8.79243
-5.27291
0.02652
5.20829
0.0381061
5.20829
-5.106
0.0370008
-5.106
5.01299
0.0560084
5.01299
4.74155
-0.0861223
4.74155
-4.77349
0.118063
-4.77349
-3.3853
-4.05425
-6.45722
0.152081
-6.45722
-1.03724
0.0902126
-1.03724
0.832335
0.11469
0.832335
-3.68445
3.68445
-4.10142
0.42203
-4.10142
3.12399
0.0456285
3.12399
1.86849
1.88246
5.61944
-5.61944
2.44982
-2.07103
-0.0271865
-2.07103
-2.1567
-3.15754
2.1567
-0.0584903
-0.223543
0.231572
-0.223543
3.15943
0.038051
3.15943
2.23663
0.158118
-2.23663
0.224644
3.27307
-3.27307
1.34163
0.67035
1.34163
-5.56481
5.56481
4.9559
0.0570913
-4.9559
0.0884285
6.15657
0.0613574
6.15657
-6.19955
-0.0183789
-6.19955
2.53147
-4.97704
-2.61412
6.1215
0.183644
-6.1215
0.18456
2.91793
0.0281715
2.91793
-2.91973
2.91973
-2.98463
0.0385283
-2.98463
-2.17298
0.398939
-2.17298
1.47524
0.2988
1.47524
-4.24412
-0.101027
-4.24412
-4.24854
0.147118
4.24854
0.109037
1.12817
-1.12817
-0.610159
0.118215
-0.610159
-4.10828
-0.135837
4.10828
-0.123502
-3.8752
-0.109586
-3.8752
-3.02448
0.0398499
3.02448
0.0408443
3.11287
0.0465603
-3.11287
0.0475443
-1.87082
3.75328
-1.88014
3.75397
-5.63591
-0.380455
-5.63591
6.32722
-0.310858
6.32722
3.31879
0.360606
-3.31879
0.395033
2.3305
0.148575
2.3305
-6.81191
-0.0369686
-6.81191
6.83307
0.0158103
6.83307
2.23203
0.0984679
-2.23203
0.0575469
2.08659
0.0274964
2.08659
2.9002
-0.0196749
2.9002
-2.87491
-0.00562
-2.87491
2.79611
-2.79611
2.72257
0.0735374
-2.72257
0.0860961
-11.133
11.1146
-0.0350797
-11.0979
5.17321
5.17321
4.16889
0.572663
4.16889
-4.99184
0.218343
-4.99184
2.67754
-5.29166
3.06229
-6.44759
4.66884
-16.1847
4.30688
-8.36114
6.6985
-6.6985
6.58694
0.111554
-6.58694
0.12972
-1.15423
0.116988
-1.15423
-3.08178
-0.602661
-3.08178
4.32739
-0.64294
4.32739
-3.02817
3.02817
-3.07747
0.0493018
3.07747
0.0465234
2.06976
0.0168318
-2.06976
-0.00126894
0.275422
0.0586132
-0.275422
0.0518795
3.4843
-0.211231
3.4843
-3.07589
-0.197179
-3.07589
-1.25387
0.0996402
1.25387
0.0877656
-5.81335
0.248544
-5.81335
-11.1909
0.0929888
-11.1528
-6.10656
-6.10656
2.33381
11.1262
-2.89309
0.0181826
2.89309
0.0248364
2.97514
0.0530273
-2.97514
0.0554082
-2.86058
0.064467
2.86058
0.0591543
-2.54793
0.374946
-2.54793
-1.07267
1.07267
-1.23887
0.166204
1.23887
0.236367
1.39978
-0.271607
1.39978
0.724066
0.108269
-0.724066
0.113907
-3.77731
-0.0978843
-3.77731
6.56213
-0.234902
6.56213
-2.96173
-0.114156
2.96173
-0.0615298
-0.0333607
11.1479
-5.13985
0.0338481
5.13985
-11.2093
11.2431
-3.21885
0.67092
3.21885
0.950044
5.28548
0.279325
-5.28548
0.293644
6.78276
0.0503171
-6.78276
0.0842597
-2.58911
-0.492671
-2.58911
-5.05346
-0.582455
5.05346
-0.72607
-11.474
-0.205389
11.6794
-11.418
6.01874
0.137836
-6.01874
11.381
-1.02977
-0.0984013
1.02977
0.0429032
1.72723
-0.327459
1.72723
3.67795
-0.193653
-3.67795
-0.0993569
-6.71583
-0.0960829
6.71583
-0.153705
-2.14423
-0.444886
2.14423
-0.416992
-4.26711
4.30516
1.90922
-2.38734
-2.5897
-5.54488
1.85186
1.90142
4.30168
-10.1577
-6.02701
-9.97317
7.26268
-6.96903
-9.24547
9.15935
7.86889
-7.97848
-5.78488
5.8314
6.48283
-6.44199
1.87881
1.8747
8.01209
-7.77011
-15.6053
15.2248
7.50811
-7.47976
15.7597
-15.7967
-17.8439
17.8942
-5.69806
5.80945
-6.73905
6.73343
-6.97345
6.91192
-2.83607
-3.61152
13.117
-12.9649
8.55172
-8.5789
-8.61118
9.03321
3.38258
0.922577
3.42914
-1.88216
3.76097
-1.87146
3.78068
2.70907
-5.54514
2.58259
-5.17229
4.33634
4.21538
-4.27785
-1.26703
-5.92442
5.95259
-5.81436
5.87351
9.12144
-9.16216
-1.88516
3.75986
-1.86882
3.77024
-3.42502
-2.35986
3.37939
0.92229
8.0731
5.04392
-8.25675
-1.71642
-8.03106
7.83741
-8.22637
8.02919
-0.435134
5.81887
-5.38374
4.43233
-1.56327
7.38214
5.6994
5.91775
5.86624
-5.58692
1.10279
-6.48653
-6.3981
-2.31542
2.43363
2.20675
-2.12312
6.12397
1.74492
6.00046
-5.75034
-2.22813
-5.84823
3.82067
2.01073
3.86997
4.07832
2.40451
4.11817
3.03049
-3.03592
0.00543378
-3.0566
6.08709
0.723933
-5.41646
-4.49417
4.97396
3.03813
5.17666
-5.5543
-2.2158
-5.15927
-9.53751
-6.06778
-10.12
10.0824
5.14246
9.77151
-11.9546
11.8009
4.78862
2.71949
4.82066
-4.91927
-2.56048
-4.86172
11.6438
-2.63303
-9.01072
-10.3149
-7.52897
10.2991
5.46063
10.9593
6.93491
11.0435
4.42544
7.21831
-9.88607
2.3571
-3.8654
-1.83266
-3.7793
3.66823
2.14121
3.79858
-4.21715
-2.5219
-4.19897
-4.29519
-2.67825
4.31487
2.41856
-4.41599
-3.81038
4.53014
2.38177
4.03846
-10.0655
4.32268
-7.93421
-9.19639
-3.76856
-9.06667
3.50675
2.60829
-6.11504
-2.03839
8.47771
-4.26233
7.21068
-5.17686
-3.40205
-5.17813
-6.87771
-1.73347
-6.73059
-8.87747
8.3848
-9.17386
8.53093
12.5208
-5.6471
-6.87366
-3.96842
-2.47357
3.92088
-0.491732
-3.71054
3.71597
0.0504282
3.8311
4.75368
4.26195
-3.88451
-1.92984
-3.82911
3.82503
2.04848
3.88949
6.83202
2.28943
6.8603
-6.59612
-2.56604
-6.69714
9.04162
-8.64268
2.84238
-2.74274
5.3922
2.63699
-5.18097
-2.85009
6.21256
-3.21759
-2.99498
-12.1985
10.5309
1.6676
-4.81633
-0.384
-0.39203
-5.48946
-3.756
5.3714
0.546346
11.0772
7.32122
-5.51294
5.76148
6.16644
6.22353
-0.174564
5.80905
-5.13813
5.26261
-2.58048
-2.68213
5.45782
-5.59366
-1.23932
-5.50482
4.2655
0.406805
1.51947
-1.2879
-1.81169
-0.503729
-1.69778
1.30753
0.899229
1.36614
0.939225
1.49441
-2.95914
0.554438
2.4047
-2.01991
-1.56868
-3.79858
-1.14178
4.94037
5.72853
2.10888
-5.62917
-0.219058
2.55198
-2.43729
-0.762045
-3.03654
2.24538
-3.00743
-3.67378
-2.05893
5.73271
-3.36983
-0.459272
3.31681
0.553164
-3.82708
-2.09734
3.78855
0.329625
-3.12774
6.19065
-3.06291
-5.05759
2.52769
3.5594
4.53842
-4.78952
2.44751
2.34201
-1.23012
4.24607
0.930595
4.39464
-6.93526
4.71945
5.79836
3.23485
-6.15897
0.999701
-5.93556
8.53938
-7.36787
-1.17151
4.14515
4.39423
7.06695
5.45382
-5.67449
12.7414
-1.20059
-6.16728
7.13615
-3.9013
4.84588
-8.74718
-10.2997
4.13242
-9.13844
10.9148
-1.77631
-3.62291
-8.33174
12.7614
-1.20487
-11.5565
8.56664
-4.26029
-4.34648
8.60676
-6.89331
6.90696
-1.99323
-4.91373
-10.1015
-5.6952
10.1976
1.60337
-9.90338
12.2605
-2.68508
4.10836
0.712299
4.13586
3.29631
-5.4841
2.1878
3.59701
-5.59023
2.08195
-7.56606
-6.73044
12.0639
-5.33344
-10.499
-9.51657
-0.982429
2.53566
9.72483
-9.47057
7.42814
2.04242
3.30063
0.588868
-3.37416
-0.405142
0.239551
4.52449
-4.76404
4.03813
4.19625
3.27985
1.24464
3.84514
2.10745
-3.86997
-0.328996
-4.16311
1.48486
-1.74455
-3.69349
5.17835
-4.06707
0.373572
-2.74858
-3.49894
6.24752
-4.58124
3.03575
3.1549
5.08424
-4.91337
1.41443
-2.39273
-2.52064
2.65263
-4.39718
1.99125
3.1871
4.37303
0.562645
5.87359
6.19029
-8.48189
0.547684
11.2342
-9.51779
2.4651
8.57844
-9.89324
0.376676
-8.68999
0.994498
-5.25683
-5.12055
5.18799
-6.92146
-3.55919
6.21005
0.650256
-6.31908
-0.411511
-6.03351
-2.84396
-6.47839
-3.04342
-6.13044
-8.71791
-1.6517
-7.06622
6.7331
-6.67968
-3.44028
7.40575
1.12517
-7.40972
7.31132
-7.48762
7.16016
0.0953579
3.62061
4.35731
1.88374
-2.3905
4.27423
-5.11882
7.40824
-8.70421
3.5854
4.18594
-6.75198
-4.51827
5.02304
4.01858
5.32184
8.88699
-10.3582
1.47123
-10.6588
11.9905
-1.3317
-16.42
5.76124
-7.53306
2.44815
0.394233
2.56513
0.546313
2.49853
-3.04484
-2.19643
-2.10866
-2.43274
-3.46584
5.89858
1.10168
-3.52344
2.42176
-3.57012
4.6718
-0.20289
-3.32055
5.27654
-2.77801
5.67077
-3.77301
1.89776
3.43456
5.75329
-2.31873
4.39463
-1.75764
1.9213
-4.24003
-1.54454
-2.96399
5.1052
-3.28353
3.6571
-0.341163
3.99827
-4.0538
0.836212
-0.773952
3.4223
3.64694
4.31335
-3.06871
2.92165
-4.6793
-1.31837
-4.11665
-0.929556
-0.263327
-3.70775
3.97107
5.98549
-6.24882
-5.2357
9.5296
-4.2939
7.69439
-5.38279
-2.3116
-4.25379
-4.38889
3.87885
1.9302
9.62459
0.209249
-5.59204
-4.92888
-3.97883
3.11566
2.14695
-1.77314
3.44074
2.16517
-0.6457
0.438438
0.927701
1.78635
-1.34791
0.30832
1.47803
-0.97958
1.75265
0.799328
-1.86092
0.163141
-1.30726
3.55264
1.09744
-1.99667
0.648757
0.981266
-3.56175
5.03303
-2.66963
-2.3634
6.0143
1.13919
-3.80882
4.36563
-3.95883
2.38008
-3.52186
-1.42874
-5.38756
-3.64264
-2.52685
4.9486
-3.37173
5.48061
1.27482
-5.26155
6.53638
-3.72318
1.66424
-3.06444
3.86377
-0.948626
-2.11582
2.90114
2.83157
-3.06123
0.0246911
-0.160088
2.40668
-2.56677
-0.600745
-2.62066
-4.57334
4.90297
-2.1054
4.55291
2.16883
-1.91674
6.46965
1.80908
-3.72582
-3.24851
-3.70778
-1.38381
3.15462
-0.598772
-4.26295
-5.5125
4.16448
0.230156
-7.05229
7.86003
-0.807741
-4.01417
-0.705286
4.85044
-6.06983
0.479593
-3.98788
3.87216
4.80275
5.03291
-11.3391
-0.217372
-6.19665
1.12281
-7.31946
5.51704
-3.53982
7.67224
-10.3268
6.88651
-9.20162
6.50073
-0.818729
6.25059
-4.06279
2.76014
-8.45534
-6.85196
5.49974
-2.78025
6.21204
-3.14143
9.35347
-5.82651
5.2851
4.06837
-1.01735
-4.16078
-5.27702
4.25966
0.00808761
4.14394
4.98012
-2.87267
4.65113
2.26795
-4.66068
-2.12923
-6.49459
1.83392
-3.3397
-1.92063
3.75454
3.16361
3.75248
1.2339
-3.34734
7.18726
-8.16969
-1.85383
-3.26672
5.26035
-1.00069
3.39852
-6.66524
-1.85831
4.79816
-0.784759
-4.0134
0.848941
-4.40813
1.6739
-6.08203
5.24757
-5.65908
2.22181
-9.75486
-5.18791
-5.14501
-2.25864
-5.22898
-7.57196
5.31332
-1.81073
5.50059
-8.50878
7.72402
-3.48172
8.79505
-5.42797
-1.05042
5.84497
1.3152
10.1102
0.212557
-4.73083
-1.91264
3.8603
-1.94766
1.20302
-3.49519
0.36511
2.48811
3.52619
-6.7536
0.00161859
-4.72921
-3.91734
7.93591
5.61227
11.5978
1.23954
9.11774
-1.18183
10.3573
4.14001
4.37638
-2.99209
4.46332
0.978982
4.56438
-0.920323
2.81808
1.64481
1.73502
0.702268
2.30305
1.3439
3.13926
0.0944141
-2.01425
4.62255
-8.60139
-0.969485
-8.02872
1.13062
5.70955
-4.57892
2.96679
-0.819842
1.01914
-0.0818194
-1.285
1.36682
-2.76395
-1.9307
-0.452668
-1.68735
2.33611
1.86529
-1.88344
-0.880508
0.359283
-4.00192
3.16258
-3.13789
-0.306321
6.23005
-2.82022
0.253454
-1.15598
-2.3672
-2.87093
2.70779
6.17597
0.293677
3.11307
5.19664
3.0993
0.22663
3.89254
-5.66885
-3.67352
-5.88622
-0.369178
4.48126
1.75314
7.97169
5.82151
4.82082
-1.84442
-10.0141
6.51955
-2.05623
5.18786
-1.17445
-4.90757
5.04543
2.36282
-5.69568
0.0366057
-4.87097
-6.9272
-0.513805
8.23782
-9.59644
8.54602
5.70206
1.36416
-4.4058
-0.739211
4.23959
0.136787
10.4941
-1.12836
-6.73002
7.85838
-4.58118
3.6117
0.75812
2.68262
2.12494
1.3051
-5.42492
-10.0038
-2.04305
-1.5187
-4.40645
0.533918
-2.3992
6.22473
-2.61303
3.91313
5.24535
6.26448
-2.13394
-4.11488
6.42784
-2.51472
3.74977
)
;

boundaryField
{
    wall-4
    {
        type            calculated;
        value           uniform 0;
    }
    velocity-inlet-5
    {
        type            calculated;
        value           uniform -3.75095;
    }
    velocity-inlet-6
    {
        type            calculated;
        value           uniform -5.62643;
    }
    pressure-outlet-7
    {
        type            calculated;
        value           nonuniform List<scalar> 8(3.32922 7.72512 4.43059 9.72772 7.43956 5.14559 5.73983 8.97573);
    }
    wall-8
    {
        type            calculated;
        value           uniform 0;
    }
    frontAndBackPlanes
    {
        type            empty;
    }
}


// ************************************************************************* //
