/*--------------------------------*- C++ -*----------------------------------*\
  =========                 |
  \\      /  F ield         | OpenFOAM: The Open Source CFD Toolbox
   \\    /   O peration     | Website:  https://openfoam.org
    \\  /    A nd           | Version:  13
     \\/     M anipulation  |
\*---------------------------------------------------------------------------*/
FoamFile
{
    format      ascii;
    class       volVectorField;
    location    "65";
    object      U;
}
// * * * * * * * * * * * * * * * * * * * * * * * * * * * * * * * * * * * * * //

dimensions      [0 1 -1 0 0 0 0];

internalField   nonuniform List<vector> 
918
(
(0.98516 -0.000507019 0)
(0.00501377 2.96625 0)
(0.00660045 0.887631 0)
(0.979704 0.00214585 0)
(-0.014597 2.05915 3.306e-20)
(-0.00704864 2.94879 -2.46712e-18)
(0.819271 1.16252 4.48226e-19)
(0.123916 0.0731119 -1.48163e-20)
(0.999909 -0.000277062 0)
(0.064883 0.730695 0)
(0.012677 0.515615 0)
(0.733811 -0.00864722 0)
(0.0111398 2.93033 0)
(0.00274175 2.79524 0)
(-0.0178155 3.14936 7.80011e-19)
(-0.0187911 1.91638 9.35097e-21)
(0.281196 0.0481854 1.01817e-18)
(0.188854 1.14143 3.16571e-19)
(0.962728 0.00501718 0)
(0.00758399 0.484362 0)
(-0.0180091 0.0961282 -6.98414e-19)
(1.00197 -0.00497548 0)
(1.00023 -0.00978493 0)
(0.975738 -0.00643889 0)
(0.598516 0.0245277 0)
(0.0151773 2.64079 0)
(-0.0148541 2.91 9.07406e-19)
(0.0097433 0.936413 0)
(-0.0161217 1.18088 0)
(0.0106768 0.918814 0)
(-0.0172725 2.59381 0)
(-0.00339023 2.11042 -2.6402e-20)
(-0.0102527 1.89416 0)
(-0.0205951 2.98761 -8.86752e-23)
(-0.0166833 3.00529 1.91726e-18)
(0.00210117 3.00017 0)
(0.871355 -0.00965204 0)
(0.402812 0.933452 1.80194e-19)
(0.804046 1.17694 -5.11369e-19)
(0.955877 1.02183 5.55765e-19)
(0.672926 1.26874 -1.03898e-19)
(0.673872 1.24324 5.98217e-19)
(0.162808 0.127589 1.44546e-20)
(0.146424 0.0547204 0)
(1.15851 0.562225 0)
(0.137846 0.109182 6.58235e-20)
(0.0998756 0.064607 -6.8301e-20)
(0.919901 -0.00745692 0)
(1.00027 0.000161161 0)
(0.999909 0.000338539 0)
(1.00363 -0.00776 0)
(1.00096 -0.000918971 0)
(1.00017 3.66557e-05 0)
(0.07328 1.82629 -7.72457e-19)
(0.0311782 0.945347 0)
(0.0996283 0.810256 0)
(0.0108529 0.896548 0)
(0.0376316 0.652829 0)
(0.00675503 2.01379 0)
(-0.00264673 0.80742 0)
(0.0118355 0.527136 0)
(-0.0020063 0.797533 0)
(0.00708704 0.506867 0)
(0.841617 -0.0156965 0)
(0.839618 0.0318709 0)
(0.764788 -0.00817696 0)
(0.802741 0.0326628 0)
(0.701888 0.00531198 0)
(0.0146847 3.00041 9.14494e-19)
(0.011492 3.0081 0)
(0.00610324 3.00275 0)
(0.0135541 2.99738 1.03751e-23)
(0.00795438 2.95846 -1.35916e-18)
(0.0145018 2.98198 0)
(0.010886 2.90355 0)
(0.0242903 2.93057 2.07975e-24)
(0.00467569 2.82524 0)
(0.0307997 2.91656 0)
(-0.00480862 2.74571 0)
(0.305433 3.54256 0)
(-0.131573 3.62331 0)
(0.13785 3.23942 -7.25872e-19)
(-0.0136296 2.97757 0)
(-0.0226445 1.98402 0)
(-0.00794592 2.16651 -9.22279e-21)
(-0.0129354 1.92426 2.88357e-21)
(0.348998 0.143734 -3.53562e-19)
(0.310933 0.0277022 -3.43496e-19)
(0.304877 0.14982 -1.0584e-18)
(0.243969 0.0561349 -6.88504e-19)
(0.229161 0.982981 0)
(0.272225 1.29245 -3.67629e-19)
(0.365652 1.22693 6.13157e-19)
(0.987437 0.00857163 0)
(0.941861 0.00582697 0)
(1.0003 0.000580875 0)
(1.00286 0.00930928 0)
(1.00301 0.0084711 -2.74473e-18)
(0.991908 0.00969581 2.07272e-18)
(-0.00952397 0.788943 0)
(0.00811951 0.494091 0)
(-0.0441365 1.00579 0)
(-0.0236753 0.830722 0)
(0.0065096 0.484919 0)
(-0.0205126 0.112912 2.15836e-19)
(0.0694713 0.0784203 0)
(0.993553 -0.00837098 0)
(0.954464 -0.00653107 0)
(0.743931 0.0311665 0)
(0.680371 0.0265441 0)
(0.663415 0.0128274 0)
(0.970775 -0.00738889 0)
(0.594553 0.0689862 0)
(0.449865 -0.010127 1.54255e-18)
(-0.0369746 2.8623 6.68866e-19)
(0.0409587 2.91022 0)
(0.0537368 2.88603 0)
(-0.00412549 2.70046 0)
(-0.0131589 2.98513 8.58988e-19)
(-0.0178765 2.89499 0)
(-0.0154489 2.98803 -2.66401e-18)
(-0.0132564 2.92517 9.12291e-19)
(-0.0249355 1.34344 0)
(-0.00216752 1.37202 0)
(-0.00821722 2.13072 5.03494e-22)
(-0.00739665 2.09235 0)
(-0.0210494 1.90308 0)
(0.938602 -0.00739094 0)
(0.8575 -0.00997376 0)
(0.863272 0.00563568 0)
(0.9496 -0.00781561 0)
(0.884063 -0.008191 0)
(0.514289 1.12643 -2.27545e-19)
(0.563462 1.17748 0)
(0.3674 0.878388 3.36286e-20)
(0.310025 0.737048 0)
(0.916495 1.05964 -1.5324e-19)
(1.0343 0.868697 3.11295e-19)
(0.35847 1.35384 0)
(0.525577 1.32474 0)
(0.548538 1.26343 0)
(0.120899 0.184733 -3.02246e-19)
(0.186051 0.12917 0)
(0.180653 0.0749473 1.915e-19)
(1.00531 0.923368 0)
(1.07913 0.777286 0)
(1.10423 0.718782 -2.47125e-19)
(1.13793 0.621714 0)
(1.18861 0.405705 5.71638e-20)
(0.957761 -0.00870187 0)
(0.962515 -0.0100338 0)
(0.901757 -0.00798452 0)
(0.984204 -0.0091462 0)
(0.974712 -0.00933232 0)
(0.937137 -0.00637301 0)
(1.00019 0.0023399 0)
(1.0009 0.00141505 0)
(0.999909 0.000854979 0)
(0.0355333 2.07357 4.2813e-19)
(0.118874 1.76912 0)
(0.0180293 2.18755 6.57883e-19)
(0.0461764 1.88039 -5.48493e-19)
(0.106308 1.14745 -2.59245e-19)
(0.0492725 1.02638 0)
(0.1432 0.977161 0)
(0.00254377 0.853976 0)
(0.0152985 0.595411 0)
(-0.00122927 2.24239 -8.24868e-22)
(0.0159303 2.01836 0)
(-0.00213827 2.24472 -2.956e-20)
(0.00828249 2.02294 4.59669e-20)
(-0.00103535 0.830594 0)
(-0.00293409 0.817499 0)
(0.00926713 0.554427 0)
(-0.00553805 0.791339 0)
(0.00569846 0.496534 0)
(0.938407 0.00977905 0)
(0.85015 -0.0146358 0)
(0.927592 0.000419933 0)
(0.842544 -0.0128918 0)
(0.812188 -0.0023672 0)
(0.898487 0.0227666 0)
(0.87237 0.0283323 0)
(0.788476 -0.00636808 0)
(0.00558249 3.06472 -8.52427e-21)
(0.0166292 3.05775 0)
(0.0146149 2.96901 0)
(0.00863121 2.87621 0)
(0.920945 3.95535 0)
(1.23431 3.28884 9.26757e-19)
(0.0689813 3.07 0)
(-0.0294535 2.90287 0)
(-0.0093511 1.39415 0)
(-0.0261772 1.69487 0)
(-0.0149499 1.52974 0)
(-0.0293392 2.55453 -1.19108e-20)
(-0.0136534 2.24664 0)
(-0.0193436 2.393 0)
(0.000133409 1.95052 7.39851e-22)
(-0.00422642 2.23925 -7.0191e-21)
(-0.00619737 2.20126 -3.08486e-21)
(-0.00719902 1.93631 0)
(0.401277 0.124836 5.3981e-19)
(0.359421 0.0169408 -5.29681e-19)
(0.258901 1.58512 0)
(0.277388 0.755995 -3.15805e-19)
(0.177108 1.67244 -1.04886e-18)
(0.226008 1.21979 1.05116e-18)
(0.902008 0.00636454 0)
(0.967391 0.0111341 0)
(0.974541 0.0108133 0)
(0.923296 0.00641105 0)
(-0.00952806 0.788931 0)
(-0.00823005 0.785855 0)
(0.00537561 0.488853 0)
(0.124787 0.0957553 6.09719e-19)
(0.110329 0.0850073 -7.2102e-19)
(0.0829529 0.0640937 0)
(1.09872 0.0861644 2.70909e-20)
(1.08081 0.0394444 0)
(1.01303 0.0399712 0)
(0.907147 -0.00552257 0)
(0.45338 0.105862 0)
(0.513551 0.0875297 -2.4643e-18)
(0.405471 0.0113455 9.21092e-19)
(0.00871463 2.98049 7.18344e-19)
(-0.0331979 2.86489 4.53015e-20)
(0.0036427 3.05027 -1.80508e-20)
(0.0201913 3.04333 6.41976e-19)
(-0.0149844 2.99657 2.9964e-20)
(-0.0129683 2.94947 -1.20518e-22)
(-0.0172799 3.01191 -5.54428e-19)
(0.0149252 3.02364 4.0167e-19)
(0.00743 3.03692 -6.36443e-19)
(0.934012 -0.00120066 0)
(0.93948 -0.00319241 0)
(0.845998 -0.00946322 0)
(0.956517 0.0119216 0)
(0.94263 0.0132666 0)
(0.881569 0.00584115 0)
(0.916444 0.0178505 0)
(0.925741 0.0151574 0)
(0.838528 0.0019288 0)
(0.716767 1.40361 4.02489e-20)
(0.750056 1.5123 0)
(0.181487 0.315395 7.05797e-20)
(0.228381 0.66874 5.68236e-19)
(0.262328 0.720513 -3.32031e-19)
(0.26309 0.521515 6.60636e-19)
(0.345938 0.810691 1.59079e-18)
(0.140399 0.229948 3.75656e-19)
(0.261813 0.152153 7.28808e-19)
(0.221533 0.146524 1.88927e-19)
(0.212149 0.0669655 3.58004e-19)
(1.17767 0.463739 6.27588e-20)
(1.19339 0.256738 5.80777e-20)
(0.0101588 2.23621 2.53276e-19)
(0.0404354 1.94848 0)
(0.970569 0.0293345 0)
(0.943283 0.0139083 0)
(0.868985 -0.0179212 0)
(0.0113963 3.07447 0)
(0.0197449 2.94405 1.17478e-18)
(0.016417 2.95638 0)
(0.00633182 2.85057 -1.16561e-18)
(0.00621757 3.09096 2.85062e-19)
(0.00712947 3.08229 0)
(0.782831 1.81386 -1.58938e-19)
(1.24212 2.48965 4.03873e-19)
(0.764828 1.95323 -1.22973e-18)
(0.0198083 2.98105 -6.18334e-19)
(0.0350415 2.99976 0)
(-0.0344211 2.87724 0)
(-0.00431291 2.2239 -1.31166e-20)
(-0.00364602 2.2448 1.04993e-20)
(0.00210612 1.9847 -7.26342e-21)
(0.278216 1.39429 1.02512e-18)
(0.238596 0.550237 -7.02907e-19)
(0.0638006 1.99819 7.62854e-19)
(0.135349 1.88437 -9.10618e-19)
(0.180258 1.5116 9.50339e-20)
(0.00217216 3.11916 -1.77256e-18)
(0.0130993 3.11903 1.9227e-18)
(-0.0090371 2.98111 7.88511e-19)
(-0.00429413 2.97748 -7.43412e-19)
(-0.0210274 2.88082 -8.03084e-19)
(0.00856813 3.10026 -2.12039e-18)
(0.0022147 3.105 2.09502e-18)
(0.281944 0.695006 0)
(0.248308 0.684092 -1.18086e-18)
(0.0959031 0.225169 5.2428e-19)
(0.357633 0.937715 1.11274e-18)
(0.195514 0.275925 -1.71557e-18)
(1.18517 0.174888 6.30715e-20)
(1.19381 0.311346 0)
(1.17353 0.12263 -6.54923e-21)
(0.00129955 2.25444 -1.47189e-21)
(0.00478357 2.24592 0)
(0.0247052 1.98395 0)
(0.340094 1.30309 -3.68087e-19)
(0.374676 1.14964 -8.00094e-19)
(0.210144 0.377826 1.42649e-18)
(1.00588 -0.0108304 0)
(1.00767 -0.00763469 5.06343e-19)
(-0.0220224 1.32423 0)
(-0.0383715 1.32277 0)
(1.00221 0.00351338 1.81126e-21)
(1.00366 0.00946815 1.03384e-18)
(-0.0202866 2.53883 1.50983e-20)
(-0.0246859 2.58107 0)
(0.0341373 3.1772 4.0869e-19)
(0.391059 3.48437 0)
(1.17432 0.662868 -5.77415e-20)
(1.01285 0.0131381 -2.13579e-21)
(1.02134 -0.0102906 0)
(1.0017 0.000129818 7.86027e-23)
(0.113141 1.36907 0)
(0.143957 2.56944 0)
(0.0246222 1.30828 0)
(-0.000174407 2.62128 2.81663e-20)
(-0.0212551 2.5786 3.98177e-21)
(0.998309 0.0280651 1.64022e-21)
(1.06308 0.00464099 0)
(1.09756 0.0250939 0)
(-0.027991 1.73744 0)
(-0.0184146 2.58055 0)
(-0.0047899 1.31046 0)
(0.312105 1.48143 -1.68127e-19)
(1.0113 -0.00961738 0)
(1.0094 -0.0149157 0)
(1.00237 0.000752734 6.47101e-19)
(1.00547 -0.00480068 -7.60552e-19)
(1.00118 -0.00097136 0)
(-0.0135997 1.46173 0)
(-0.00711818 1.37326 0)
(-0.00626506 1.41891 0)
(-0.0085399 1.29813 0)
(-0.0182112 1.28507 0)
(-0.00945382 1.2676 0)
(1.03503 -0.00604115 0)
(1.01967 0.0155813 -8.212e-22)
(0.82084 1.27331 2.59785e-19)
(1.00223 0.000320002 -6.44612e-19)
(1.00406 0.00526039 7.5468e-19)
(1.00118 0.00207482 0)
(1.01273 0.0103597 6.4153e-19)
(1.00799 0.00831287 -7.77307e-19)
(1.00856 0.0146961 0)
(-0.0236861 2.60855 0)
(-0.025835 2.58841 -1.99114e-20)
(-0.0232404 2.60218 1.40615e-20)
(1.23736 0.267586 5.81419e-19)
(1.16224 0.0869869 0)
(0.0407468 3.07795 -9.1403e-19)
(0.0647892 2.85632 -6.64765e-20)
(0.138308 3.1924 1.39618e-18)
(0.133389 3.22016 -1.98018e-19)
(0.132706 3.23111 0)
(0.0195999 3.13751 2.35952e-19)
(0.0745259 3.15995 9.01489e-19)
(0.0671686 3.18534 -4.44737e-19)
(0.0224444 3.12964 0)
(0.588829 0.281637 0)
(0.519942 0.301487 0)
(1.14555 0.698917 1.31736e-19)
(1.13947 0.820313 -1.16052e-19)
(1.20217 0.58574 0)
(1.22998 0.520359 0)
(1.01604 0.013374 -1.19582e-18)
(1.01498 0.0142797 1.50113e-18)
(1.02538 -0.00980737 0)
(1.02344 -0.011852 0)
(1.00642 0.00263234 0)
(1.01041 0.00374258 0)
(1.00458 0.00186552 0)
(1.00979 0.00624996 0)
(1.00781 0.00596594 0)
(1.00451 0.0047172 0)
(0.102205 1.36747 0)
(0.0980454 1.3306 0)
(0.133095 1.40493 0)
(0.151163 1.40972 0)
(0.14566 2.59443 0)
(0.185375 2.66449 -4.2359e-19)
(0.10161 2.64984 0)
(0.0853418 2.65274 1.98003e-19)
(0.038813 2.67567 -1.48452e-19)
(0.0149031 1.32071 0)
(0.021648 1.24435 0)
(0.0177748 1.33042 0)
(0.0345241 1.26793 0)
(0.00400003 1.98416 3.31117e-21)
(-0.0201758 2.60632 -1.85468e-20)
(-0.00843161 2.66261 1.37487e-20)
(-0.01817 2.68174 0)
(-0.023023 2.6122 -5.36237e-21)
(-0.0229144 2.60712 1.24091e-20)
(0.0128718 1.9826 3.941e-22)
(-0.00720564 2.39445 2.48829e-20)
(-0.0131451 2.41647 -1.55929e-20)
(1.01007 0.0391571 1.21205e-18)
(1.00528 0.0176282 -1.50886e-18)
(1.00421 0.0450894 -1.23372e-18)
(0.97702 0.0355905 1.55242e-18)
(1.06431 0.00845893 0)
(1.04943 -0.00823984 0)
(1.09452 0.0352626 0)
(1.07445 0.0130224 0)
(1.07228 0.000559203 0)
(1.14048 0.0833849 0)
(1.11199 0.0447526 0)
(1.11579 0.0326194 0)
(-0.0251532 2.43136 1.47037e-21)
(-0.013012 2.01322 0)
(-0.0153134 2.21601 0)
(-0.0204208 2.60117 -1.09939e-20)
(-0.0175252 2.61094 1.84022e-22)
(0.00338679 1.57326 -3.58827e-20)
(-0.00535178 1.50137 3.65593e-20)
(-0.0149052 1.39038 0)
(-0.0184185 1.39697 0)
(-0.0232482 1.39146 0)
(-0.00304879 1.31155 0)
(0.00929714 1.23751 0)
(0.386576 1.4989 2.73326e-19)
(0.429723 1.49981 1.4482e-19)
(0.597548 2.44437 -2.40355e-19)
(0.398418 2.54148 7.07539e-19)
(0.349471 2.05317 7.16376e-20)
(1.02107 -0.00810724 0)
(1.01551 -0.00974432 0)
(1.01492 -0.0155022 0)
(1.00741 -0.00107586 0)
(1.00493 -0.000909164 0)
(1.00778 -0.00468746 0)
(1.00927 -0.00361072 0)
(1.01422 -0.00437115 0)
(1.02043 0.0163467 1.17172e-18)
(1.01766 0.0155227 -1.49744e-18)
(1.0207 0.0183877 -1.18085e-18)
(1.01829 0.0163691 1.47893e-18)
(0.784277 1.32465 0)
(0.720735 1.37479 2.46082e-19)
(0.896158 1.22403 9.7266e-20)
(0.942026 1.16904 -1.29425e-19)
(1.15463 2.59986 2.78736e-19)
(0.769438 0.123527 5.99637e-19)
(1.16361 0.10918 0)
(1.2126 0.194708 -4.67874e-19)
(1.19974 0.155486 -1.99118e-20)
(1.00624 0.157241 0)
(0.129506 2.95879 5.31661e-19)
(0.105778 2.86482 -1.15647e-18)
(0.0142618 2.37309 7.73158e-19)
(0.0955098 -0.151873 -3.30064e-19)
(0.33599 3.4144 -2.14969e-19)
(0.190868 3.30908 0)
(0.234781 3.34973 2.79966e-19)
(0.240074 3.03119 -1.77675e-18)
(0.33354 3.18941 0)
(0.00715887 3.12088 4.60807e-20)
(0.0165987 3.1298 -5.43151e-19)
(0.0153221 3.12584 7.99427e-19)
(0.0351784 3.13973 0)
(0.0334654 3.15038 0)
(1.2104 2.59752 0)
(0.545629 0.805872 -5.28332e-19)
(1.06575 0.993367 -8.06811e-21)
(1.0003 1.07806 0)
(0.853353 0.973632 -1.0999e-19)
(1.09129 0.894379 2.79358e-20)
(0.314128 0.338026 -8.54281e-19)
(0.659241 0.324334 -1.74517e-20)
(0.561875 0.222701 4.07524e-19)
(0.546191 0.337066 2.99277e-20)
(0.438233 0.277689 -1.20283e-18)
(0.619999 0.325438 0)
(0.707355 0.422662 6.93973e-19)
(0.710321 0.425974 0)
(0.584708 0.339706 0)
(0.514766 0.247799 0)
(0.825562 0.624103 4.11237e-19)
(1.23852 0.28992 -4.89403e-19)
(1.23854 0.42867 0)
(1.24686 0.369257 0)
(0.688129 0.195524 6.20169e-19)
(0.872705 0.552775 -3.7656e-19)
(0.770052 0.524515 6.69902e-19)
(0.962429 0.445534 -7.37093e-19)
(1.0192 0.0149637 8.02863e-19)
(1.01758 0.0143511 -8.08453e-19)
(1.0159 0.0153784 0)
(1.0365 -0.00558289 0)
(1.02991 -0.0083649 -7.57347e-19)
(1.02796 -0.0119546 7.49815e-19)
(1.02486 0.0105301 0)
(1.02336 0.014291 0)
(1.01141 0.00416184 0)
(1.01419 0.00915455 0)
(1.01515 0.00417382 0)
(1.01426 0.00289459 0)
(0.0698527 1.35083 0)
(0.0747194 1.29662 0)
(0.149309 1.38615 1.03582e-20)
(0.282395 1.47989 8.95454e-20)
(0.177838 1.45079 1.8849e-19)
(0.210843 1.45586 -3.07316e-19)
(0.174718 1.41098 0)
(0.136798 1.59919 -7.22275e-20)
(0.118755 1.5782 0)
(0.345948 2.0029 -1.04162e-19)
(0.342082 2.33879 6.1516e-19)
(0.19403 1.46378 6.29622e-20)
(0.269302 1.39632 2.33673e-20)
(0.202678 1.38925 -1.88828e-20)
(0.278659 1.33885 -1.03815e-19)
(0.243538 1.57923 0)
(0.267779 1.61637 1.1286e-19)
(0.030967 2.25967 -2.87157e-20)
(0.0438308 2.6648 0)
(0.0666848 2.39601 1.34946e-19)
(0.063402 2.41682 0)
(0.0697249 2.66634 -2.19424e-19)
(0.0493089 2.69496 0)
(0.0267154 1.43553 3.21384e-20)
(0.0353189 1.48749 0)
(0.0285947 1.40286 0)
(0.0235839 1.40762 -3.62643e-20)
(0.000525781 2.64888 -1.71756e-20)
(0.0298391 2.69415 1.66631e-19)
(0.0104391 2.71927 1.17372e-21)
(0.00345392 1.83617 -2.94243e-21)
(-0.00198454 1.68978 -3.32834e-21)
(0.0113855 1.30022 0)
(0.0206622 1.22129 0)
(0.0475192 1.59361 -2.62846e-20)
(0.0323562 1.46895 -3.35634e-20)
(0.0371857 1.53288 4.15179e-20)
(0.0412456 1.61733 0)
(-0.0293548 2.26965 9.67199e-20)
(-0.030406 2.54807 -4.07105e-20)
(-0.0161471 2.44561 4.01938e-21)
(-0.00316881 1.85217 3.56467e-21)
(-0.025219 2.49758 2.07474e-21)
(-0.0203316 2.44121 6.32186e-22)
(1.01851 0.0212379 -8.03226e-19)
(1.01427 0.0279019 8.04882e-19)
(1.01326 0.0171156 0)
(1.01121 0.0710856 1.1269e-18)
(0.991817 0.0596103 -1.26284e-18)
(0.950482 0.056381 1.41179e-18)
(1.01428 0.112259 -1.50409e-19)
(1.04294 -0.00557568 0)
(1.05134 -0.00119774 7.22299e-19)
(1.03921 -0.0097574 -7.23765e-19)
(1.07181 0.0428523 -4.29459e-20)
(1.06497 0.02417 3.70345e-19)
(1.06343 0.0570395 0)
(1.0539 0.0502787 -1.33177e-19)
(1.03254 0.0431625 0)
(1.02594 0.0400122 0)
(1.02786 0.0136411 0)
(1.02379 0.0162834 0)
(1.04036 0.0330379 2.74323e-19)
(1.03902 0.0278066 -6.06703e-19)
(1.05132 0.0345917 -2.90747e-19)
(1.04844 0.0346798 -3.20248e-19)
(1.07159 0.0653 6.24822e-19)
(1.09708 0.0530599 0)
(1.10608 0.0971942 0)
(-0.0247921 2.27481 5.48718e-20)
(-0.0235811 2.01803 1.05957e-21)
(-0.0195578 2.02553 0)
(-0.0270005 2.44408 -5.46227e-20)
(-0.0222478 2.40055 -2.4604e-21)
(-0.0325212 2.47198 5.82982e-21)
(-0.0204783 2.61974 -1.11304e-20)
(-0.0230169 2.56163 5.34519e-23)
(-0.021185 2.51328 -3.02316e-21)
(-0.0157032 2.61384 9.88896e-21)
(-0.0205494 2.61571 -1.05492e-20)
(-0.00550846 1.49482 -5.81868e-22)
(0.00400061 1.62175 -3.38511e-20)
(0.371627 1.44671 -1.15601e-19)
(0.37145 1.38083 3.69607e-20)
(0.661309 1.42554 -2.38057e-19)
(0.528841 1.49264 -1.42512e-19)
(0.587173 1.45811 0)
(0.593349 2.42139 2.07042e-19)
(0.661726 2.41676 3.3761e-19)
(0.411234 2.51093 8.78212e-20)
(0.402528 2.5354 -6.09959e-19)
(0.510173 2.47661 6.14421e-19)
(0.553252 2.45816 0)
(0.488092 2.51569 -5.59536e-19)
(0.248515 2.58812 1.14401e-18)
(0.354808 2.56014 -7.74798e-20)
(0.284039 2.64982 -1.58704e-18)
(0.948015 2.37467 7.2696e-19)
(0.838201 2.37976 0)
(1.01107 0.000526076 2.62509e-20)
(1.01535 -0.00537147 -2.12939e-20)
(1.01767 -0.00347833 -3.88916e-19)
(1.01504 -0.000839777 3.9102e-19)
(1.01246 0.00125892 0)
(0.647283 1.29055 0)
(0.670248 1.18416 0)
(0.784191 1.10271 0)
(0.663341 1.14772 0)
(1.18469 2.61343 5.97119e-20)
(1.07266 2.36067 0)
(0.834265 2.1656 3.83238e-21)
(0.823677 2.43093 0)
(0.921734 2.52468 -4.22023e-19)
(0.956949 2.48081 2.8073e-19)
(0.79826 0.184051 0)
(0.741504 0.15649 1.62798e-19)
(0.908161 0.152141 9.47722e-19)
(0.823402 0.156186 -3.54684e-19)
(0.779024 0.0908893 -1.09556e-18)
(1.0826 0.24122 -8.92148e-19)
(1.00007 0.303579 -1.75969e-20)
(0.929376 0.307171 8.59896e-19)
(1.00795 0.234082 7.21366e-19)
(0.948389 0.198862 -1.25385e-18)
(0.911121 0.203092 1.56796e-19)
(0.94943 0.269494 -3.32664e-19)
(0.926837 0.23046 0)
(0.995885 0.195081 6.18407e-19)
(1.04754 0.194306 0)
(1.04506 0.222517 0)
(1.10752 0.121351 2.89847e-19)
(1.07182 0.181148 -1.50037e-20)
(1.07609 0.241292 -1.57791e-19)
(1.1019 0.207331 0)
(1.02346 0.0464155 6.16684e-19)
(1.0392 0.060264 7.71623e-19)
(1.0347 0.0464932 -6.12228e-19)
(1.04307 0.0679204 -5.17424e-19)
(1.02057 0.0757043 -7.9372e-19)
(0.98582 0.160563 0)
(0.991014 0.106163 0)
(0.965189 0.0739252 -5.01606e-19)
(0.905467 0.0982269 1.99307e-19)
(1.03992 0.107896 7.16076e-19)
(1.06976 0.124953 -8.36023e-19)
(1.07641 0.157392 7.46551e-19)
(1.03101 0.150774 0)
(1.07536 0.112482 0)
(1.05453 0.0934321 -3.42697e-19)
(1.04332 0.0978088 -5.8478e-19)
(0.578863 1.05624 1.39777e-19)
(0.604683 1.38168 -4.12542e-20)
(1.15456 2.72919 -2.27324e-19)
(1.22023 3.07153 1.97594e-21)
(1.24638 2.71224 -1.23824e-19)
(1.27493 2.69555 -3.18844e-20)
(1.2024 2.33578 -1.10352e-20)
(1.20794 2.9754 -9.3505e-20)
(1.22804 2.94089 2.34434e-19)
(1.21038 3.22445 -1.42876e-19)
(1.37008 2.95537 1.97436e-19)
(1.35881 2.87346 0)
(0.562633 0.814595 -5.03052e-20)
(0.111264 1.22713 5.69522e-19)
(0.556648 0.362069 5.58154e-19)
(0.395093 0.109499 6.06495e-19)
(0.481573 0.317922 6.81647e-19)
(0.544724 0.435617 -1.10096e-18)
(0.546829 0.432137 9.01385e-19)
(0.467771 0.319676 -3.42371e-19)
(0.348336 0.24807 7.75206e-19)
(0.712259 0.268658 -3.58067e-19)
(0.672109 0.292521 0)
(0.614392 0.207943 6.83791e-21)
(0.742125 0.506631 3.65372e-19)
(0.719159 0.477428 -1.32933e-18)
(0.622652 0.446138 1.15052e-20)
(0.620752 0.436866 0)
(0.692265 0.717998 3.96969e-19)
(0.854024 0.778585 3.95349e-19)
(0.77767 0.861274 -4.626e-19)
(0.899806 0.81597 -1.54619e-19)
(0.930895 0.861285 -3.73704e-20)
(0.937997 0.861029 3.82702e-20)
(0.866402 0.658731 -6.80699e-19)
(0.94643 0.712529 1.43577e-19)
(1.00581 0.727818 0)
(0.996823 0.704454 -1.93989e-19)
(1.02976 0.343951 2.12278e-19)
(1.14936 0.306077 2.88013e-19)
(1.07049 0.278508 3.64632e-19)
(1.01875 0.376343 -4.30901e-19)
(1.06721 0.438863 0)
(1.12314 0.420991 0)
(0.923794 0.380124 1.62094e-21)
(0.840679 0.316198 0)
(0.885181 0.311773 4.06664e-19)
(0.91078 0.315728 -7.92358e-21)
(0.956606 0.448879 2.05332e-18)
(0.917497 0.504301 5.28583e-19)
(0.922517 0.471086 -5.63217e-19)
(0.838726 0.457532 6.04181e-19)
(0.822847 0.450185 3.61935e-19)
(0.794067 0.432934 -3.56033e-19)
(1.0274 -0.000205632 6.47878e-19)
(1.02 9.26369e-05 0)
(1.01854 0.00101918 4.2246e-19)
(1.02174 -0.00152015 -9.56977e-19)
(1.02236 0.00451999 4.64913e-19)
(1.02031 0.011546 -9.7355e-19)
(1.0212 0.0109085 0)
(1.02044 0.0111184 -2.02912e-19)
(1.01593 0.00785585 5.09063e-19)
(1.01659 0.0106424 -2.54012e-19)
(1.01729 0.0099924 1.87062e-19)
(0.028358 1.32416 0)
(0.035053 1.37759 0)
(0.0464326 1.32624 0)
(0.0504586 1.27365 0)
(0.0749922 1.40005 -5.0917e-20)
(0.0820237 1.36698 2.25824e-20)
(0.118844 1.54425 -1.32624e-20)
(0.103269 1.38937 -6.35909e-21)
(0.037541 1.47466 1.73882e-20)
(0.0416684 1.46845 -1.33268e-20)
(0.06628 1.38588 -9.94477e-21)
(0.0580507 1.38725 4.6021e-20)
(0.0494995 1.36262 6.83112e-21)
(0.0411298 1.38446 3.63214e-21)
(0.10778 2.36453 -1.48995e-19)
(0.0968129 2.4128 0)
(0.170969 2.03874 1.08181e-19)
(0.114256 1.70564 3.91801e-20)
(0.234252 2.03459 -8.99598e-20)
(0.200665 2.42583 0)
(0.262816 2.37577 -6.063e-19)
(0.302866 2.37344 4.28498e-19)
(0.229866 1.99466 -2.49788e-19)
(0.155769 2.15389 1.70086e-19)
(0.142008 2.26118 0)
(0.0191531 1.87872 5.12484e-21)
(0.000320363 2.38945 -3.34969e-20)
(0.00687314 2.14745 0)
(0.0117044 2.45268 -1.36388e-20)
(0.0286221 2.2958 9.01932e-21)
(0.015111 1.41505 -6.8964e-21)
(0.0129609 1.39754 1.15561e-19)
(0.0129392 1.40365 -3.79568e-20)
(0.0208558 1.40767 -3.24347e-20)
(0.0251237 1.43922 0)
(0.00913896 1.38507 0)
(0.00190041 1.29689 -4.58106e-20)
(0.00538986 1.37688 1.29952e-20)
(0.00892574 1.3769 0)
(0.007722 1.28897 -3.44215e-20)
(0.0180957 1.21274 6.98409e-20)
(1.04082 0.0121323 0)
(1.04704 0.00836048 -6.77652e-20)
(1.03872 0.0222997 -4.8918e-19)
(1.04857 0.0211218 0)
(1.0525 0.0209807 0)
(1.03636 0.0123254 -6.85624e-21)
(1.03099 0.0121475 7.86242e-19)
(1.03164 0.0171594 9.53201e-19)
(1.02544 0.0210551 0)
(1.02213 0.0214343 0)
(1.03523 0.0260374 4.87757e-19)
(1.02546 0.0278829 0)
(1.02353 0.0279297 0)
(-0.0182067 2.0227 0)
(0.000977571 1.65233 -4.30272e-21)
(-0.00433832 1.75989 -3.0501e-20)
(-0.000747633 1.38584 0)
(-0.00654193 1.55323 -1.83476e-20)
(-0.00860979 1.46287 1.15802e-20)
(-0.00518409 1.39918 0)
(0.388657 1.64419 0)
(0.374053 1.30721 -7.22788e-20)
(0.300998 1.34075 0)
(0.425929 1.30577 7.48983e-21)
(0.476406 1.47001 0)
(0.456759 1.41438 2.47505e-20)
(1.03643 2.67554 -1.53688e-20)
(0.968441 2.40345 -9.13666e-19)
(0.921529 2.19167 1.02501e-18)
(0.852214 2.37169 2.42108e-19)
(0.847807 2.48507 0)
(0.917545 2.48129 0)
(0.931364 2.3682 0)
(0.910318 2.35733 -9.44615e-19)
(0.686883 2.449 -3.94656e-19)
(0.799997 2.43851 -9.77547e-20)
(0.810312 2.41268 7.42748e-20)
(0.695596 2.38992 0)
(0.800816 2.38522 0)
(0.758997 2.39862 -3.68789e-19)
(0.767607 2.47479 0)
(0.63002 1.0936 0)
(0.48057 0.90142 -5.11784e-19)
(0.566623 0.945052 -3.23931e-20)
(0.519158 1.03485 0)
(0.519605 0.978328 7.66532e-19)
(0.798473 0.884138 -1.30122e-19)
(0.807721 1.02053 0)
(0.782816 0.986918 1.85941e-19)
(0.666806 1.03395 0)
(0.668114 0.935737 0)
(1.16352 2.75226 -2.29959e-19)
(1.14097 2.81559 -9.71923e-20)
(0.929063 2.33001 1.00518e-19)
(0.896871 2.30936 -8.33373e-20)
(1.12908 2.72524 0)
(1.08289 2.69471 1.00264e-19)
(1.08901 2.47863 -3.13886e-19)
(0.983511 2.23152 -3.03813e-20)
(0.492264 1.33113 0)
(0.507942 1.06103 -1.23202e-19)
(0.575797 1.16717 0)
(0.853817 0.248654 0)
(0.761213 0.198352 0)
(0.673752 0.15565 0)
(0.844967 0.2508 -6.40098e-19)
(0.734159 0.241636 3.73578e-19)
(0.922291 0.0895631 -4.1117e-19)
(0.927448 0.131917 0)
(0.913987 0.140712 1.77641e-19)
(0.851019 0.117945 7.10513e-19)
(0.81577 0.0793904 -4.45232e-19)
(1.15575 3.34945 -7.18057e-19)
(1.20467 3.26893 0)
(1.15351 3.37836 -1.48783e-18)
(0.641882 3.53983 1.26238e-18)
(0.863542 3.10842 7.17836e-20)
(0.521806 0.802526 6.05206e-19)
(0.424371 0.799777 0)
(0.309248 0.391031 -1.4906e-19)
(0.471302 0.651575 8.5745e-19)
(0.559851 0.364899 -1.96446e-19)
(0.515104 0.467213 2.31396e-19)
(0.674192 0.511888 4.93451e-19)
(0.712568 0.549923 0)
(0.662769 0.576494 0)
(0.627261 0.526972 0)
(1.00748 0.614358 8.88787e-20)
(0.92238 0.553743 -5.14589e-19)
(0.947714 0.585485 3.87892e-19)
(0.978482 0.525424 -3.98251e-19)
(1.08596 0.494433 0)
(1.09438 0.585189 -9.71022e-20)
(0.85896 0.410524 -8.30483e-19)
(0.858216 0.39959 -1.03014e-18)
(0.793853 0.393547 6.43998e-19)
(0.80479 0.37387 -6.53983e-19)
(0.846118 0.334953 -5.19534e-19)
(0.793735 0.336966 6.35719e-19)
(1.02667 0.00610001 -4.93565e-19)
(1.02637 0.00632041 1.00328e-18)
(1.02945 0.000250023 6.2783e-19)
(1.03369 0.00116483 -7.56095e-19)
(1.03381 0.00932742 0)
(1.03005 0.0100275 -1.2312e-18)
(0.0639869 1.64271 1.9357e-20)
(0.0508449 1.59077 0)
(0.0900908 1.69216 1.19666e-19)
(0.0987101 1.67355 -1.0529e-19)
(0.0931773 1.54981 2.48454e-20)
(0.0931682 1.54894 0)
(0.0114823 1.68577 0)
(-0.00398695 1.49338 7.20796e-21)
(-0.00187905 1.43927 -6.48455e-21)
(-0.00729737 1.54998 5.39101e-21)
(0.00192095 1.8841 1.08224e-20)
(-0.0099771 1.93718 -1.67935e-21)
(0.496607 1.35788 -2.75723e-19)
(0.49013 1.35824 3.02912e-19)
(0.45306 1.30139 -3.14377e-20)
(0.436334 1.28441 7.76333e-21)
(0.639483 1.30799 0)
(0.555295 1.39835 1.04922e-19)
(0.570446 1.40586 -1.02138e-19)
(0.466715 1.29066 3.0645e-20)
(0.521037 1.24073 0)
(0.572664 1.20349 0)
(0.653793 2.40855 5.79747e-19)
(0.669467 2.44998 1.26053e-18)
(0.71391 2.46065 -8.68576e-19)
(0.610169 2.43453 -2.01934e-19)
(0.559979 2.52494 2.83817e-19)
(0.509264 2.4997 -7.57377e-19)
(0.978184 2.37495 -5.73631e-19)
(1.01239 2.38715 0)
(0.925728 2.16974 -6.5943e-19)
(1.05386 2.67372 0)
(1.05614 2.66032 0)
(0.599319 2.25783 -1.26277e-19)
(1.03676 3.15423 1.28988e-19)
(0.907921 3.0246 -3.24303e-20)
(0.264828 0.851274 0)
(0.291907 0.695344 -3.17343e-19)
(0.461528 0.65497 -3.19079e-19)
(0.379163 2.00226 0)
(0.462371 2.77899 -4.99705e-20)
(0.416095 2.54165 0)
(0.714897 0.668093 -8.38857e-19)
(0.799449 0.684938 1.12477e-18)
(0.819536 0.626212 -1.11134e-18)
(0.692207 0.631184 -1.07599e-19)
(0.747291 0.588888 -4.41317e-19)
(1.00057 2.75338 -9.80988e-20)
(1.04138 2.81438 -1.65013e-19)
(0.632025 2.12226 6.95737e-19)
(0.584741 1.69062 -4.95719e-19)
(0.693921 1.88967 -4.06743e-19)
(0.986846 2.43721 -1.12889e-19)
(0.993721 2.43022 2.96184e-19)
(0.64993 1.82343 2.82596e-20)
(0.441404 1.3112 1.44303e-19)
)
;

boundaryField
{
    wall-4
    {
        type            noSlip;
    }
    velocity-inlet-5
    {
        type            fixedValue;
        value           uniform (1 0 0);
    }
    velocity-inlet-6
    {
        type            fixedValue;
        value           uniform (0 3 0);
    }
    pressure-outlet-7
    {
        type            zeroGradient;
    }
    wall-8
    {
        type            noSlip;
    }
    frontAndBackPlanes
    {
        type            empty;
    }
}


// ************************************************************************* //
