/*--------------------------------*- C++ -*----------------------------------*\
  =========                 |
  \\      /  F ield         | OpenFOAM: The Open Source CFD Toolbox
   \\    /   O peration     | Website:  https://openfoam.org
    \\  /    A nd           | Version:  13
     \\/     M anipulation  |
\*---------------------------------------------------------------------------*/
FoamFile
{
    format      ascii;
    class       volScalarField;
    location    "12";
    object      p;
}
// * * * * * * * * * * * * * * * * * * * * * * * * * * * * * * * * * * * * * //

dimensions      [0 2 -2 0 0 0 0];

internalField   nonuniform List<scalar> 
918
(
0.230288
0.936066
0.0116474
0.22965
0.00136632
0.903233
-0.844737
0.419737
0.21011
-0.134215
0.0221622
0.201556
0.763569
0.531408
-1.45241
0.0159133
0.369338
-0.635885
0.208443
0.00808994
0.506507
0.216829
0.220041
0.210795
0.265464
0.526477
0.644116
0.00341888
-0.00350033
0.000442875
0.0041687
-0.000561798
0.00545807
0.786879
0.837963
0.860604
0.178155
0.0436667
-0.691326
-0.771373
-0.757549
-0.876995
0.404359
0.410301
-0.490036
0.417193
0.431092
0.198806
0.209555
0.210563
0.211433
0.210707
0.212138
0.304561
-0.152452
-0.21341
-0.0788794
-0.0598482
0.0847476
0.0204513
0.0139955
0.0227325
0.024052
0.140659
0.198502
0.194604
0.204863
0.215202
0.875614
0.847529
0.873658
0.787319
0.803856
0.741554
0.714134
0.551175
0.572234
0.51738
0.508472
-1.8906
-2.8625
-0.852119
-0.588765
0.00167095
0.0226482
0.0281706
0.348955
0.35754
0.362818
0.375895
0.798129
-0.592945
-0.817297
0.208066
0.206531
0.216637
0.217521
0.213859
0.212796
0.0151181
0.0209643
-0.000950238
0.00790374
0.0057431
0.480688
0.472906
0.211667
0.208589
0.222706
0.246873
0.23338
-0.0172541
0.280395
0.310081
0.323617
0.506702
0.504719
0.512335
0.617524
0.580219
0.681621
0.70496
0.00754551
0.00207569
0.0126578
0.00870605
0.0120596
0.176908
0.171995
0.190657
0.179936
0.184261
-0.0450475
-0.178477
0.133189
0.165703
-0.598994
-0.673289
-0.733685
-0.779904
-0.845992
0.152599
0.393722
0.397454
-0.50844
-0.41499
-0.575363
-0.341001
-0.417619
0.186353
0.195618
0.189657
0.20533
0.200639
0.201245
0.213667
0.210996
0.212442
0.334683
0.402256
0.258109
0.23416
-0.422339
-0.27101
-0.420852
-0.0313706
-0.0214256
0.0950564
0.108868
0.0742211
0.0713918
-0.00448878
0.0111867
-0.00193756
0.0269747
0.0288997
0.134667
0.124773
0.149537
0.156302
0.190023
0.189912
0.193043
0.192667
0.66466
0.686948
0.69473
0.668583
-3.86997
-6.67924
-0.254837
-0.107312
0.00228463
0.00303042
0.00188939
0.00321111
0.00369903
0.000400484
0.0442397
0.0398176
0.0319804
0.0362044
0.337872
0.342337
0.786159
0.865527
0.704259
0.71995
0.196165
0.199884
0.204087
0.199966
0.0281537
0.0228829
0.0286751
0.431622
0.453276
0.454183
-0.0524985
-0.140072
0.0310458
0.0580288
0.326874
0.310403
0.332118
0.387552
0.425689
0.712076
0.730374
0.728974
0.737433
0.781468
0.797877
0.763027
0.161042
0.170153
0.166115
0.195117
0.19227
0.192836
0.188151
0.191403
0.189366
-0.332952
-0.711769
0.243306
0.265671
0.222461
0.230565
0.246116
0.400832
0.371365
0.383213
0.389893
-0.274967
-0.345053
0.201211
0.182895
0.0842963
0.110995
0.0965536
0.635962
0.596588
0.646545
0.619869
0.581534
0.606968
-0.662539
-2.19133
-1.2871
0.262963
0.0654308
0.157813
0.0625201
0.0493938
0.0519787
0.812785
0.845752
0.455488
0.604105
0.56691
0.469126
0.501269
0.552932
0.477274
0.512126
0.549579
0.532089
0.107096
0.190477
0.10295
0.499273
0.606336
-0.163732
-0.209486
-0.272312
0.1194
0.154553
0.135527
0.780841
0.630713
0.748213
0.208093
0.208582
0.0119636
0.0185092
0.212311
0.212729
0.00714825
0.00995036
0.137804
-1.16017
-0.174063
0.200338
0.191446
0.208025
-0.115865
0.303805
0.0209912
0.0937329
0.0617388
0.197356
0.150454
0.11442
0.00753011
0.0202254
0.0157442
-0.476075
0.205405
0.203675
0.207497
0.208876
0.20965
0.0104232
0.0109741
0.00719681
0.013585
0.0111947
0.0113448
0.178195
0.188464
-0.497274
0.207902
0.209876
0.209918
0.20338
0.208642
0.206625
0.0167604
0.0129258
0.0126613
-0.0654828
0.0502404
0.401783
0.516532
0.34809
0.116768
-0.134967
0.293064
0.364948
0.257255
0.431444
0.374824
0.400124
-0.118688
-0.264444
-0.101381
-0.155611
0.198362
0.198115
0.190146
0.183977
0.203144
0.201629
0.205674
0.203787
0.206292
0.207017
-0.0669175
-0.0632353
-0.151069
-0.232313
0.330281
0.416872
0.234459
0.248898
0.147755
0.0244823
0.025273
0.0215122
0.0149337
0.0585964
0.0649637
0.0805148
0.0768831
0.0509541
0.0482729
0.0539207
0.0591337
0.0635108
0.192557
0.192683
0.196867
0.203953
0.156975
0.161091
0.132228
0.148333
0.139104
0.0817854
0.114958
0.0943033
0.00913131
0.0106492
0.00892895
0.0249991
0.0307534
0.0162137
0.0148789
0.0143489
0.0118645
0.0125839
0.0197017
0.0239658
-0.503372
-0.566751
0.882552
0.676925
-0.0465224
0.194881
0.200629
0.198359
0.203633
0.205607
0.205821
0.203805
0.20125
0.18894
0.190573
0.187115
0.187265
-0.444026
-0.579029
-0.400617
-0.455182
-0.141892
0.312586
0.0619582
0.000954967
-0.00256808
0.210237
0.594669
0.41637
0.470077
0.488664
-0.672503
-0.270643
-0.601944
0.00906897
-0.185706
0.397771
0.452989
0.478789
0.42213
0.368428
-0.401236
0.197734
-0.368986
-0.335135
-0.149841
-0.232967
0.428069
0.359531
0.365697
0.388056
0.411035
0.361713
0.343096
0.338234
0.379096
0.383867
0.178313
-0.0277626
-0.0768964
-0.109642
0.339226
0.220088
0.272901
0.195016
0.192876
0.195884
0.194388
0.180584
0.186712
0.179795
0.187599
0.189034
0.199097
0.198709
0.194297
0.196493
-0.0357309
-0.022011
-0.119275
-0.351213
-0.245773
-0.33843
-0.182751
0.0902752
0.0960884
0.120214
0.237244
0.0122093
-0.322217
-0.217652
-0.381606
-0.00333815
-0.126852
0.106368
0.158252
0.170692
0.14293
0.211209
0.196801
0.0398259
0.049221
0.0318724
0.0314555
0.100602
0.123685
0.115822
0.0497452
0.0506068
0.0273398
0.0287923
0.0725341
0.0435866
0.0559729
0.0661979
0.023664
0.0260401
0.0304845
0.0420222
0.0412671
0.0440971
0.188474
0.190086
0.189457
0.199856
0.211927
0.22502
0.195521
0.174152
0.16722
0.170875
0.147596
0.154453
0.152432
0.161157
0.179952
0.185837
0.185394
0.186659
0.172497
0.174686
0.162321
0.165439
0.148812
0.133427
0.121108
0.0202132
0.0125155
0.0162501
0.0172878
0.0115266
0.014285
0.0445378
0.0356173
0.0409292
0.0352042
0.0385109
0.0184064
0.0196053
-0.541414
-0.491419
-0.565369
-0.577883
-0.62766
0.802987
0.824316
0.66981
0.404864
0.423848
0.682703
0.789979
0.420316
0.487303
0.527439
0.0374066
0.513879
0.202175
0.200329
0.196779
0.197171
0.199625
-0.33496
-0.239108
-0.232265
-0.183988
0.000994926
0.107619
0.111959
-0.238749
-0.0758658
-0.0437471
0.30529
0.32231
0.267975
0.293793
0.292675
0.128355
0.194796
0.243854
0.209511
0.24699
0.266377
0.228765
0.257522
0.210764
0.172329
0.172797
0.119065
0.137173
0.11795
0.100543
0.189149
0.169063
0.178563
0.172243
0.19007
0.222042
0.213287
0.233882
0.251276
0.179306
0.144013
0.151889
0.178798
0.141168
0.151898
0.166615
-0.0186329
-0.10516
-0.0557499
-0.417696
-0.297111
-0.314226
-0.363724
-0.32917
-0.0382743
-0.770832
-0.714181
-1.35118
0.140128
0.623284
0.386207
0.358566
0.407952
0.382086
0.381328
0.42134
0.427989
0.329996
0.351335
0.351936
0.303172
0.330201
0.35766
0.355918
0.177707
0.0701526
0.0585015
0.0262448
-0.100633
-0.0721255
0.135769
0.0605028
-0.0111183
-0.00147503
0.155805
0.0590224
0.118574
0.152258
0.0855473
0.0460103
0.235738
0.297732
0.294819
0.264475
0.186141
0.197234
0.222209
0.253134
0.280735
0.315849
0.188596
0.193002
0.194659
0.192164
0.188482
0.190892
0.190175
0.192419
0.193344
0.19612
0.194634
0.0136264
0.0206766
-0.00483512
0.00283511
-0.00114503
-0.0313011
0.0392768
-0.0346724
0.0331754
0.0298912
-0.00114076
-0.0100483
0.000569084
0.017826
0.150191
0.175705
0.160914
0.108532
0.155387
0.356139
0.317748
0.278745
0.17349
0.21883
0.301974
0.083139
0.0944177
0.0794236
0.104568
0.0995079
0.0314503
0.0300699
0.0335028
0.0422573
0.0395839
0.031484
0.0265794
0.0270012
0.0293767
0.0283037
0.028111
0.174379
0.170556
0.172404
0.166141
0.164725
0.177359
0.180172
0.181315
0.18572
0.187137
0.180011
0.1832
0.185873
0.0299144
0.0238499
0.0256216
0.0250546
0.0259792
0.0226067
0.0220905
-0.633499
-0.598515
-0.602065
-0.618903
-0.536321
-0.577834
0.0911172
-0.0614115
0.11003
0.365505
0.196499
0.136669
0.158894
0.25291
-0.210745
0.0523866
-0.158442
0.671614
0.486327
0.636584
0.175087
-0.0912897
0.0493471
0.107812
-0.0572276
-0.00731997
-0.000983677
-0.108975
-0.0816733
-0.0431683
0.0590527
0.00607608
0.0169287
-0.166186
0.0303556
0.0200825
-0.0136037
0.136246
0.219956
-0.012417
-0.0799777
-0.174049
0.296922
0.315045
0.330019
0.306291
0.325701
0.254773
0.24505
0.264772
0.274198
0.267027
-1.09773
-0.820243
-1.74858
-1.06674
-0.65771
0.158871
0.13107
0.383859
0.291825
0.382714
0.365326
0.330127
0.295203
0.296391
0.33485
0.0545948
0.156836
0.130167
0.138638
0.0466929
-0.0136983
0.266277
0.262648
0.298062
0.322745
0.283904
0.32496
0.184729
0.185093
0.184832
0.181871
0.178097
0.179724
0.0909878
0.0692378
0.0999256
0.0822568
0.0569461
0.0578513
0.035919
0.0316668
0.0285415
0.0294482
0.0334029
0.0378226
-0.264974
-0.398791
-0.621471
-0.636371
-0.374019
-0.472901
-0.459112
-0.519682
-0.365781
-0.3161
0.0292985
0.39744
0.118436
0.410548
0.162018
0.338219
0.188728
0.247356
0.270572
0.103228
0.136206
-0.193176
-0.631414
-0.559267
0.405355
0.411145
0.192556
-0.0267934
-0.245661
-0.0310044
0.213017
0.155241
0.196414
0.261228
0.257649
-0.338992
-0.259852
-0.0588492
0.177107
-0.088931
-0.101849
-0.0968987
0.0406573
-0.0257956
)
;

boundaryField
{
    wall-4
    {
        type            zeroGradient;
    }
    velocity-inlet-5
    {
        type            zeroGradient;
    }
    velocity-inlet-6
    {
        type            zeroGradient;
    }
    pressure-outlet-7
    {
        type            fixedValue;
        value           uniform 0;
    }
    wall-8
    {
        type            zeroGradient;
    }
    frontAndBackPlanes
    {
        type            empty;
    }
}


// ************************************************************************* //
