/*--------------------------------*- C++ -*----------------------------------*\
  =========                 |
  \\      /  F ield         | OpenFOAM: The Open Source CFD Toolbox
   \\    /   O peration     | Website:  https://openfoam.org
    \\  /    A nd           | Version:  13
     \\/     M anipulation  |
\*---------------------------------------------------------------------------*/
FoamFile
{
    format      ascii;
    class       surfaceScalarField;
    location    "12";
    object      phi;
}
// * * * * * * * * * * * * * * * * * * * * * * * * * * * * * * * * * * * * * //

dimensions      [0 3 -1 0 0 0 0];

internalField   nonuniform List<scalar> 
1300
(
3.75095
5.62643
-6.22655
3.75095
-6.10239
5.62643
-4.48095
4.48095
-1.48998
1.48998
1.8766
1.87435
-4.69596
4.69596
-4.86411
4.86411
-2.84906
2.84906
-5.24645
5.24645
-5.06781
5.06781
4.69279
-4.69279
-4.94089
4.94089
-1.91075
1.91075
-4.31909
4.31909
3.17751
-3.17751
-5.1403
5.1403
-0.533115
0.533115
-0.554961
4.30591
3.19599
3.19599
-2.57305
2.57305
-4.8474
4.8474
6.21825
-6.21825
9.45562
-9.45562
-3.22907
-3.38722
1.3571
-8.10954
-4.74528
-4.74528
-8.4404
8.4404
-2.81397
2.81246
2.9588
-2.9588
-1.69643
1.69643
-4.46208
-0.0188697
-4.46208
4.43073
0.0502243
4.43073
-1.62251
0.132529
-1.62251
4.09539
-4.09539
1.31449
0.175494
1.31449
3.05628
-3.05628
-1.87699
3.75359
1.87397
-1.87296
6.17888
-1.87799
3.75234
-4.97952
4.97952
-4.6383
-0.0576662
-4.6383
4.731
-0.0350376
4.731
-5.25368
5.25368
-4.80481
-0.0592987
-4.80481
4.94045
-0.0763439
4.94045
3.06262
-3.06262
-2.87723
0.0281716
-2.87723
2.80743
0.0416283
2.80743
0.35356
5.27287
-5.97999
8.79245
-5.27287
0.0264218
5.20842
0.0380296
5.20842
-5.106
0.03819
-5.106
5.00783
0.0599871
5.00783
4.78267
-0.089877
4.78267
-4.80862
0.115826
-4.80862
-3.33468
-3.33104
-5.03583
0.0949452
-5.03583
-1.94596
0.0352098
-1.94596
1.86639
0.0443513
1.86639
-3.55106
3.55106
-4.20463
-0.114456
-4.20463
3.12864
0.0488789
3.12864
1.86803
1.88292
5.61899
-5.61899
2.44147
-5.11817
-0.0221302
-5.11817
-5.1691
-4.28651
5.1691
-0.0288064
-0.843744
0.310629
-0.843744
3.15918
0.0368123
3.15918
2.71863
0.0888002
-2.71863
0.145581
3.44722
-3.44722
1.9355
0.637548
1.9355
-5.57213
5.57213
4.94677
0.0610599
-4.94677
0.0993699
6.15799
0.0602606
6.15799
-6.19952
-0.0187362
-6.19952
3.38524
-6.77247
-3.38919
4.8435
0.0973835
-4.8435
0.0982224
2.97635
-0.0175562
2.97635
-2.91141
2.91141
-2.96764
0.00883997
-2.96764
-2.10901
0.412586
-2.10901
1.39193
0.304491
1.39193
-4.39214
-0.06994
-4.39214
-4.32837
0.123737
4.32837
0.102356
0.715569
-0.715569
-1.74965
0.127135
-1.74965
-4.23694
-0.155197
4.23694
-0.141558
-4.00149
-0.0939008
-4.00149
-3.00534
0.0377026
3.00534
0.0509414
3.11519
0.0439939
-3.11519
0.0589069
-1.87124
3.75416
-1.87971
3.75367
-4.78713
-0.192395
-4.78713
5.11261
-0.133088
5.11261
4.52012
-0.201028
-4.52012
-0.118179
4.76848
-0.0374757
4.76848
-5.216
-0.0376798
-5.216
5.26765
-0.0139661
5.26765
4.78115
-0.0126783
-4.78115
-0.0236554
5.01614
-0.0756904
5.01614
3.11236
-0.0497386
3.11236
-3.0289
-0.0337146
-3.0289
2.91059
-2.91059
2.90091
0.00967877
-2.90091
0.023685
-11.1328
11.1141
-0.0350261
-11.0978
5.17339
5.17339
4.18907
0.593595
4.18907
-5.01588
0.207264
-5.01588
3.34462
-6.73382
3.35197
-6.68665
3.33397
-11.4435
3.34496
-6.676
5.1755
-5.1755
5.11299
0.062504
-5.11299
0.0771602
-1.99107
0.0451128
-1.99107
-3.08286
-0.468196
-3.08286
4.00789
-0.456838
4.00789
-3.01629
3.01629
-3.07478
0.0584963
3.07478
0.0538527
5.07674
-0.0605972
-5.07674
-0.0414261
1.08311
0.231384
-1.08311
0.239363
3.64239
-0.195174
3.64239
-3.27454
-0.17268
-3.27454
-1.97872
-0.0123513
1.97872
-0.0432159
-5.81924
0.247107
-5.81924
-11.1908
0.0930213
-11.1528
-6.1065
-6.1065
2.3339
11.1264
-3.00015
-0.0287564
3.00015
-0.0237939
2.9502
0.0660886
-2.9502
0.0387849
-2.90874
-0.00185706
2.90874
0.00267753
-2.50964
0.40063
-2.50964
-0.958731
0.958731
-1.17255
0.213818
1.17255
0.219386
1.07239
-0.356821
1.07239
1.81196
0.0544304
-1.81196
0.0623145
-3.90938
-0.0921076
-3.90938
5.17855
-0.0659403
5.17855
-3.17208
-0.102462
3.17208
-0.0597204
-0.0332568
11.1473
-5.14014
0.0341334
5.14014
-11.2076
11.2417
-3.2094
0.699755
3.2094
0.979676
5.29819
0.273942
-5.29819
0.282309
5.22827
0.039379
-5.22827
0.0527712
-2.63485
-0.44801
-2.63485
-4.45315
-0.333975
4.45315
-0.445261
-11.4763
-0.202312
11.6787
-11.4164
6.02155
0.136443
-6.02155
11.3782
-0.672587
-0.0429814
0.672587
0.286144
1.51741
-0.44502
1.51741
3.80862
-0.16623
-3.80862
-0.100756
-5.19542
-0.0205843
5.19542
-0.0168635
-2.00296
-0.63189
2.00296
-0.485551
-4.26795
4.30476
1.91093
-3.37382
-3.39865
-7.66033
1.85253
1.90164
4.294
-7.05427
-4.38924
-6.95605
7.27893
-6.99662
-9.32336
9.23349
7.43916
-7.53306
-5.7731
5.82695
6.4365
-6.38556
1.88058
1.87301
9.61898
-9.67665
-11.4293
11.2369
10.1428
-10.2021
10.897
-10.9347
-12.4848
12.5241
-5.74659
5.77476
-6.60543
6.57172
-6.78535
6.72563
-3.30168
-3.38497
9.11248
-9.01754
11.7598
-11.7819
-7.98668
7.87223
3.38696
0.9178
3.43095
-1.88258
3.76316
-1.86976
3.78069
3.38144
-6.68311
3.35238
-6.75103
6.06791
5.69187
-6.0391
-1.62123
-5.86597
5.84842
-5.85889
5.86157
8.79558
-8.81445
-1.88461
3.75761
-1.86907
3.7707
-3.41823
-2.35487
3.36935
0.924647
5.58643
3.52605
-5.68382
-1.27224
-7.62954
7.4633
-7.90093
7.72825
-0.463533
5.82705
-5.36351
4.38386
-1.54767
7.37472
5.73126
5.93852
5.86988
-5.59594
1.12674
-6.49025
-6.39088
-2.70938
2.83652
2.64972
-2.47422
5.87176
1.5674
5.7302
-5.42296
-2.1101
-5.51507
3.80803
2.01893
3.86652
4.01506
2.42144
4.05276
3.03597
-3.03546
-0.000507549
-3.06263
6.0986
0.72215
-5.4175
-4.49285
6.53825
3.08073
6.50321
-6.02371
-3.65293
-6.14189
-6.93101
-4.49825
-7.26499
7.14026
4.09662
7.00717
-8.20113
8.18427
6.77372
3.36911
6.69738
-6.69889
-3.50324
-6.72255
10.5742
-2.65145
-7.92276
-7.01707
-5.46769
7.03104
3.86594
7.58562
4.93852
7.63839
3.59151
6.98269
-7.45746
1.98976
-3.83845
-1.90813
-3.81477
3.73571
2.03905
3.77734
-4.13213
-2.4733
-4.16089
-4.20017
-2.58518
4.24991
2.32181
-4.32265
-3.57828
4.42511
2.30052
3.05309
-7.44234
3.6229
-7.00788
-6.34996
-2.66758
-6.2728
4.12152
2.61478
-6.7363
-2.5616
10.9339
-5.24199
9.31263
-7.31281
-4.4691
-7.35424
-5.90858
-2.0781
-5.78484
-7.68868
7.24067
-7.00969
6.55285
14.3055
-5.3408
-8.9647
-3.96552
-2.42004
3.90662
-0.475663
-3.71552
3.71501
0.0476434
3.82834
4.74614
4.27047
-3.87248
-1.98641
-3.8337
3.86673
1.99484
3.86487
6.42996
2.36562
6.48018
-6.38911
-2.42533
-6.45905
8.94247
-8.52988
2.92433
-2.93668
5.15006
2.57819
-4.95489
-2.67465
5.99574
-3.03482
-2.96092
-12.2269
10.6339
1.593
-4.85221
-0.468345
0.0647703
-5.52782
-3.79555
5.41199
0.526529
11.1605
7.36491
-5.51412
5.76123
6.16453
6.22559
-0.165286
5.81481
-5.11505
5.1235
-2.24698
-2.87652
5.24662
-5.40182
-1.21243
-5.30799
4.09556
0.328378
1.89921
-1.58858
-2.13694
-0.57244
-2.07463
1.59403
1.05569
1.82541
1.01278
1.82374
-2.90623
0.517958
2.38827
-1.89345
-1.95626
-3.60131
-0.892261
4.49357
5.4395
2.0238
-5.33875
-0.176322
2.7888
-2.74445
-0.8795
-2.72181
1.92087
-2.80037
-3.39931
-1.8224
5.22171
-3.36741
-0.466288
3.30132
0.565204
-3.74095
-2.12502
3.73211
0.320649
-3.11031
6.20916
-3.09885
-5.09672
2.52933
3.56928
4.54825
-4.83237
2.45935
2.37302
-1.26309
5.74779
0.755426
5.71031
-8.26671
4.61377
6.05781
1.81441
-5.85679
-0.285105
-8.55181
10.501
-8.12663
-2.37435
6.20862
4.29235
6.08847
8.21703
-5.82094
11.9094
0.839416
-8.96604
7.7124
-5.89798
3.73686
-9.63484
-11.9539
2.98784
-7.50795
8.74753
-1.23958
-2.36219
-5.83894
9.87014
-1.10229
-8.76785
5.90488
-5.44111
-5.34044
10.7815
-8.09255
8.84368
-2.74165
-6.10203
-6.87209
-4.06256
6.89268
1.29159
-9.97748
11.9672
-2.99479
5.91179
0.785591
5.8361
4.06384
-6.01004
1.9462
4.02871
-6.77036
2.9639
-8.97394
-4.91018
9.58161
-4.67143
-7.57776
-6.78279
-0.794968
2.02951
9.93774
-6.96803
5.3547
1.61333
3.33732
0.527556
-3.347
-0.467772
0.347042
4.43959
-4.78663
4.12438
4.21318
3.35536
1.08423
3.82144
2.02698
-3.79764
-0.363247
-4.01907
1.43389
-1.69726
-3.51678
4.95067
-3.94127
0.424495
-2.63645
-3.47449
6.11094
-4.54458
3.0774
3.13176
5.07223
-4.83471
1.36022
-2.39771
-2.437
2.58105
-4.27832
1.86868
3.08199
4.1692
0.590922
4.87567
4.70594
-7.49046
0.48258
8.23199
-6.95975
1.70808
5.93031
-7.06277
0.279982
-5.99282
1.1008
-6.34279
-5.6355
3.59891
-5.67701
-6.03594
5.60615
0.874031
-5.70851
-0.0763368
-5.32024
-2.36844
-5.95213
-2.15065
-4.85903
-7.9716
-1.91344
-6.05816
5.32723
-4.87988
-2.38511
5.32514
1.22771
-7.48188
7.4389
-7.60763
7.16261
0.0764827
3.63853
4.34696
1.92692
-2.37544
4.30235
-4.74622
7.11184
-8.76604
4.01982
4.12819
-6.55352
-4.63785
4.91668
4.02579
5.22117
9.47963
-10.2945
0.814864
-11.0172
13.031
-2.01379
-17.0667
6.04951
-7.58704
2.64271
0.281616
2.68782
0.665136
2.33695
-3.00209
-2.27154
-2.31476
-2.24165
-3.25158
5.49323
1.1789
-3.2575
2.0786
-3.42231
4.60121
-0.0307202
-3.22678
5.10029
-2.76334
5.38191
-3.45303
1.92888
3.2324
5.46843
-2.23603
4.16515
-1.58696
1.76109
-3.99712
-1.4905
-2.95899
4.99804
-3.15195
3.57645
-0.211412
3.78786
-3.99497
0.960158
-0.639618
3.57356
3.71914
4.11932
-3.03509
2.83872
-4.42568
-1.1584
-3.83476
-0.752768
-0.712556
-3.72222
4.43478
5.89432
-6.60687
-5.34631
9.5028
-4.15649
7.66075
-5.46201
-2.19874
-4.22648
-4.3034
3.82585
1.98896
9.64971
0.157546
-5.61956
-4.95751
-3.97783
3.13001
1.99349
-2.09454
3.68754
2.02977
-0.130563
0.640614
1.1848
1.8955
-1.25488
0.164421
1.73108
-1.42416
2.06305
0.725752
-2.11748
0.0428518
-1.40357
3.32444
0.984706
-2.0404
0.785511
1.07754
-3.32453
4.66972
-2.29394
-2.37578
5.74726
1.2095
-3.50344
4.0985
-3.77012
2.30876
-3.20102
-1.19468
-4.9648
-3.3974
-2.45376
4.53236
-3.03947
5.06328
1.13304
-4.88695
6.02
-3.4337
1.6113
-3.07498
3.80073
-1.16752
-1.90746
2.60785
2.61386
-2.79647
0.0746586
-0.188615
2.17926
-2.36787
-0.621114
-2.51456
-4.56549
4.88614
-2.15831
4.61766
2.14404
-1.92347
6.54113
1.84298
-3.76645
-3.25374
-3.72003
-1.39343
3.15482
-1.0001
-5.72245
-7.10212
5.73513
-0.0248179
-8.51187
10.178
-1.6661
-5.43114
0.817368
5.39125
-7.66096
0.890603
-4.69706
5.48091
6.23634
6.21152
-9.08862
0.320771
-4.99201
1.87525
-6.86725
6.1676
-4.55937
7.54721
-8.57775
6.19265
-7.35005
5.17286
-1.69439
5.61597
-3.66977
2.30679
-6.36935
-5.07777
7.00149
-3.63238
7.78708
-4.15437
11.9415
-7.14917
6.98821
4.95325
-1.43652
-5.91772
-6.84598
5.40947
0.142221
5.97832
4.90833
-2.88135
4.54508
2.20653
-4.60424
-2.07178
-6.45381
1.84957
-3.32205
-1.87289
3.72246
3.19934
3.7269
1.28546
-3.25912
6.71191
-7.50687
-2.04048
-3.59503
6.75508
-1.34561
4.0568
-7.65183
-2.28598
7.35648
-1.88854
-5.46794
-2.01568
-4.02026
1.52429
-5.54455
4.15272
-4.22906
2.22908
-9.81612
-5.2528
-4.96665
-2.40993
-5.19771
-7.93388
5.52395
-1.88437
5.55453
-9.14606
7.25752
-3.8849
9.40885
-5.19825
-0.753879
5.68381
1.47881
10.8877
0.0129722
-4.65082
-1.76849
3.83831
-2.06982
1.36152
-3.70925
0.12906
2.40254
3.34472
-6.4981
-0.0554227
-4.70624
-3.82632
7.8521
5.67648
11.5708
1.2763
9.05948
-1.20738
10.3358
4.01379
4.23318
-3.89232
4.70719
0.542454
4.56227
-0.8385
2.76738
1.84932
1.88453
0.859917
2.26613
1.45302
3.22628
0.224195
-2.09056
4.7011
-8.67893
-0.918455
-8.08534
1.14815
5.80552
-4.65736
3.03112
-1.03763
0.961301
0.195245
-1.82246
1.62722
-2.68127
-1.95302
-0.221947
-1.48256
2.26807
1.84188
-2.04613
-0.635146
0.273945
-3.67134
2.92707
-2.85241
-0.238552
5.78145
-2.62077
0.252897
-1.00947
-2.26167
-2.83411
2.79125
6.22875
0.312374
3.12991
5.19851
3.07349
0.19214
5.03544
-6.27502
-3.9385
-5.95425
0.213347
5.6046
2.09128
7.84645
7.04453
5.69892
-1.95291
-9.45979
8.45604
-3.74885
6.44224
-0.974308
-4.57024
4.12126
2.99058
-4.99529
0.766231
-3.80401
-7.55286
-1.16348
8.421
-9.72417
8.9703
6.60186
-0.543704
-4.29231
-0.674337
4.0785
0.154681
10.4905
-1.1871
-6.98468
8.17178
-4.61842
3.69996
0.818731
2.86881
2.44595
1.40832
-5.57636
-10.2337
-1.76744
-1.55709
-4.14321
0.350355
-2.19223
6.25105
-2.55109
4.05231
5.62069
6.58199
-2.36359
-4.24328
6.52008
-2.46777
4.11422
)
;

boundaryField
{
    wall-4
    {
        type            calculated;
        value           uniform 0;
    }
    velocity-inlet-5
    {
        type            calculated;
        value           uniform -3.75095;
    }
    velocity-inlet-6
    {
        type            calculated;
        value           uniform -5.62643;
    }
    pressure-outlet-7
    {
        type            calculated;
        value           nonuniform List<scalar> 8(6.22655 6.10239 6.61629 6.75244 6.66572 6.77444 6.6966 6.67893);
    }
    wall-8
    {
        type            calculated;
        value           uniform 0;
    }
    frontAndBackPlanes
    {
        type            empty;
    }
}


// ************************************************************************* //
