/*--------------------------------*- C++ -*----------------------------------*\
  =========                 |
  \\      /  F ield         | OpenFOAM: The Open Source CFD Toolbox
   \\    /   O peration     | Website:  https://openfoam.org
    \\  /    A nd           | Version:  13
     \\/     M anipulation  |
\*---------------------------------------------------------------------------*/
FoamFile
{
    format      ascii;
    class       volVectorField;
    location    "12";
    object      U;
}
// * * * * * * * * * * * * * * * * * * * * * * * * * * * * * * * * * * * * * //

dimensions      [0 1 -1 0 0 0 0];

internalField   nonuniform List<vector> 
918
(
(0.985253 -0.000477686 0)
(0.00500434 2.96626 0)
(-0.00124004 1.65948 0)
(0.979752 0.00211336 0)
(0.000683067 1.62681 -8.41066e-22)
(-0.00703358 2.94878 -1.9196e-18)
(0.835561 1.18739 7.37514e-19)
(0.508246 0.245816 -9.16753e-21)
(0.999951 -0.000441199 0)
(0.0346292 1.37915 0)
(-0.00949553 1.42337 0)
(0.842354 -0.00443941 0)
(0.0111098 2.93035 0)
(0.00106321 2.7944 0)
(-0.020513 3.17578 1.07872e-18)
(-0.00288749 1.53958 -1.79562e-20)
(0.605965 0.11006 5.67178e-19)
(0.208958 1.3647 5.31458e-19)
(0.96642 0.00623395 0)
(0.00246552 1.52546 0)
(0.177268 0.282298 -4.99051e-19)
(1.00133 -0.00517859 0)
(0.999985 -0.0101875 0)
(0.975374 -0.00666742 0)
(0.758886 -0.0257457 0)
(0.0189383 2.62728 0)
(-0.0153942 2.91023 6.67767e-19)
(-0.00872255 1.67993 0)
(-0.00852482 1.76418 0)
(-0.00715668 1.67712 0)
(0.00418573 1.80012 0)
(0.00213838 1.63862 6.65911e-22)
(-0.00121546 1.55271 0)
(-0.0206077 2.98759 -6.73387e-23)
(-0.0167042 3.0053 1.49208e-18)
(0.0021023 3.0002 0)
(0.882734 -0.00367095 0)
(0.377476 0.898338 -9.88136e-21)
(0.838669 1.19388 -1.04008e-18)
(0.984725 1.04736 9.73697e-19)
(0.71765 1.27003 -1.75395e-19)
(0.681686 1.26811 9.9045e-19)
(0.544137 0.312225 8.94451e-21)
(0.536471 0.216312 0)
(1.19578 0.571648 0)
(0.4997 0.330136 4.14349e-20)
(0.465461 0.241284 -4.29934e-20)
(0.916023 -0.00752642 0)
(1.00032 6.37104e-05 0)
(0.99995 0.000300717 0)
(1.00458 -0.00797174 0)
(1.00045 -0.000509548 0)
(1.00014 0.000149714 0)
(0.0371862 1.58266 -5.83462e-19)
(0.00800961 1.496 0)
(0.0439466 1.36284 0)
(0.00418167 1.53004 0)
(0.0260922 1.37549 0)
(0.00324995 1.58867 0)
(-0.0152025 1.55406 0)
(-0.00419999 1.40951 0)
(-0.0159732 1.58268 0)
(-0.011642 1.45032 0)
(0.914024 0.000509517 0)
(0.911605 0.00529421 0)
(0.853493 0.000175762 0)
(0.905985 0.0086962 0)
(0.830048 -0.00310825 0)
(0.0146974 3.0004 7.03599e-19)
(0.0115199 3.00793 0)
(0.00612715 3.00283 0)
(0.0135571 2.99735 7.85805e-24)
(0.00797876 2.95846 -1.04572e-18)
(0.0145406 2.98206 0)
(0.0107882 2.90356 0)
(0.0252023 2.93023 1.42873e-24)
(0.00416689 2.82507 0)
(0.0319263 2.91503 0)
(-0.00680041 2.74282 0)
(0.30798 3.57142 0)
(-0.132726 3.65415 0)
(0.137962 3.26573 -1.00393e-18)
(-0.00899987 2.99827 0)
(0.00330793 1.77707 0)
(-0.00340916 1.65158 1.77141e-20)
(-0.00221977 1.55136 -2.73735e-20)
(0.666328 0.163529 -1.94617e-19)
(0.625482 0.071117 -1.88471e-19)
(0.634682 0.197954 -5.84707e-19)
(0.590581 0.13367 -3.91195e-19)
(0.270666 1.14534 0)
(0.179966 1.37757 -5.85298e-19)
(0.381704 1.3104 9.87173e-19)
(0.988511 0.0102017 0)
(0.943554 0.00945067 0)
(1.00034 0.000660954 0)
(1.00263 0.00953216 0)
(1.00227 0.0086065 -1.07278e-18)
(0.991837 0.00951814 8.18782e-19)
(-0.00387959 1.62942 0)
(-0.00160553 1.52544 0)
(-0.0113184 1.68926 0)
(-0.00725656 1.64747 0)
(0.00123673 1.53673 0)
(0.263618 0.292109 1.53066e-19)
(0.305448 0.270413 0)
(0.99285 -0.00851123 0)
(0.954738 -0.0057016 0)
(0.881173 0.022691 0)
(0.845274 0.0295191 0)
(0.803027 -0.00293916 0)
(1.03027 -0.00208769 0)
(0.797511 0.0319602 0)
(0.685548 -0.0176081 7.65612e-19)
(-0.0347719 2.86672 3.51982e-19)
(0.0441531 2.90684 0)
(0.0582161 2.88207 0)
(-0.00601913 2.6947 0)
(-0.0127741 2.98534 6.15173e-19)
(-0.0184253 2.89593 0)
(-0.0153467 2.98812 -1.9432e-18)
(-0.0134889 2.92519 6.70733e-19)
(-0.00480278 1.81102 0)
(-0.00239244 1.80608 0)
(-0.00126221 1.6535 -3.77589e-22)
(0.00112731 1.63846 0)
(-0.00216249 1.53816 0)
(0.941404 0.00126621 0)
(0.884463 0.00222658 0)
(0.862959 -5.88459e-06 0)
(0.941431 -0.00298013 0)
(0.88361 -0.00265178 0)
(0.489883 1.08871 1.8452e-21)
(0.537355 1.14743 0)
(0.343544 0.837908 7.87635e-21)
(0.277437 0.711397 0)
(0.954611 1.08097 -2.82201e-19)
(1.07706 0.897088 5.81797e-19)
(0.383048 1.34991 0)
(0.55553 1.33444 0)
(0.515043 1.30509 0)
(0.0850704 0.00326089 -9.1997e-20)
(0.575783 0.288558 0)
(0.567099 0.198412 1.13244e-19)
(1.04577 0.943833 0)
(1.1156 0.78921 0)
(1.14183 0.737892 -5.04627e-19)
(1.17697 0.628821 0)
(1.23104 0.415986 6.18125e-20)
(0.948534 -0.00292282 0)
(0.95562 -0.00808711 0)
(0.897923 -0.00496186 0)
(0.985194 -0.00883921 0)
(0.974167 -0.00787866 0)
(0.939253 -0.00588022 0)
(1.00023 0.00232133 0)
(1.00076 0.00138412 0)
(0.999937 0.000744722 0)
(0.0210156 1.68521 3.16911e-19)
(0.0635476 1.55941 0)
(0.0100314 1.71259 5.12083e-19)
(0.0190449 1.59583 -4.35692e-19)
(0.0498073 1.40552 -4.38327e-19)
(-0.00999913 1.46186 0)
(0.0752584 1.36183 0)
(0.000322086 1.54457 0)
(0.0175983 1.38126 0)
(0.00096373 1.67621 -1.28678e-21)
(0.0037533 1.58668 0)
(-0.00105241 1.68792 -6.31921e-20)
(-0.0035088 1.59375 1.2102e-19)
(0.00155 1.55284 0)
(-0.00652066 1.55006 0)
(0.0106629 1.39522 0)
(-0.0175879 1.60476 0)
(-0.010531 1.47466 0)
(0.979466 0.0135018 0)
(0.931397 0.00450239 0)
(0.963426 0.0065722 0)
(0.905489 0.00177402 0)
(0.85989 -0.00532238 0)
(0.931355 0.00193997 0)
(0.924244 0.00819491 0)
(0.857283 0.00201301 0)
(0.00591106 3.06478 -6.22282e-21)
(0.016249 3.05812 0)
(0.0147518 2.96912 0)
(0.00846284 2.87633 0)
(0.921394 3.98687 0)
(1.23449 3.30995 1.00736e-18)
(0.0721513 3.09061 0)
(-0.0244212 2.91481 0)
(-0.00549834 1.79656 0)
(-0.00437314 1.78159 0)
(-0.000933474 1.78527 0)
(0.00103919 1.78754 4.48742e-21)
(-0.00105505 1.77863 0)
(0.0046855 1.78065 0)
(-0.00305657 1.56162 4.18757e-21)
(-0.00326565 1.67203 3.65784e-20)
(-0.00350364 1.66353 2.79731e-20)
(-0.00206777 1.55427 0)
(0.692941 0.132383 2.86378e-19)
(0.660635 0.0507183 -2.77755e-19)
(0.237774 1.32173 0)
(0.301443 0.962411 -2.73424e-19)
(0.170258 1.43577 -7.92413e-19)
(0.204694 1.29935 7.91874e-19)
(0.896872 0.00977945 0)
(0.965654 0.0136927 0)
(0.975822 0.0136153 0)
(0.922233 0.0114321 0)
(-0.0146643 1.61958 0)
(-0.00836258 1.62774 0)
(-0.00737691 1.50036 0)
(0.452566 0.347856 3.81278e-19)
(0.373549 0.326596 -4.67074e-19)
(0.388009 0.245692 0)
(1.14845 0.084449 -3.26426e-21)
(1.13394 0.0387215 0)
(1.06344 0.0339414 0)
(0.97958 0.0019345 0)
(0.720475 0.0914992 0)
(0.744427 0.0527795 -1.22989e-18)
(0.677423 0.0155647 4.70877e-19)
(0.010146 2.98284 4.40527e-19)
(-0.0319299 2.86883 4.89145e-20)
(0.00384753 3.05019 -1.34174e-20)
(0.0199685 3.04358 4.82633e-19)
(-0.0150331 2.99655 2.22711e-20)
(-0.0130076 2.94943 -9.01108e-23)
(-0.0172977 3.01199 -4.21309e-19)
(0.0147994 3.024 3.04415e-19)
(0.00727437 3.03674 -4.76535e-19)
(0.959341 0.00638902 0)
(0.952267 0.00551628 0)
(0.892377 0.00470452 0)
(0.952094 0.0125893 0)
(0.936896 0.00959268 0)
(0.873372 0.00821968 0)
(0.932814 -0.00261579 0)
(0.925986 -0.000119489 0)
(0.860547 -0.00738519 0)
(0.691773 1.38049 3.01169e-19)
(0.730887 1.49605 0)
(0.209532 0.378795 3.06452e-20)
(0.145414 0.54845 3.01501e-19)
(0.246878 0.666202 -1.51719e-19)
(0.213364 0.573342 2.96503e-19)
(0.35665 0.621869 6.07391e-19)
(0.113672 0.109708 2.57471e-19)
(0.619922 0.22589 4.24483e-19)
(0.599854 0.254366 1.03863e-19)
(0.57566 0.164138 2.17377e-19)
(1.2194 0.469142 2.9377e-19)
(1.23756 0.263408 3.08176e-19)
(-0.00154372 1.71611 2.02205e-19)
(0.00382595 1.59672 0)
(1.01877 0.0230118 0)
(0.993209 0.0129178 0)
(0.950715 -0.00295333 0)
(0.0107724 3.07455 0)
(0.0201086 2.94403 8.3296e-19)
(0.0166329 2.95641 0)
(0.00608726 2.85081 -8.2618e-19)
(0.00595492 3.09133 1.97879e-19)
(0.00774511 3.08244 0)
(0.763655 1.80598 -2.28984e-19)
(1.23886 2.5023 6.22412e-19)
(0.74755 1.95211 -1.46236e-18)
(0.0217271 2.98609 -3.26158e-19)
(0.0387013 3.01187 0)
(-0.0311459 2.884 0)
(-0.00857651 1.67476 -8.14811e-21)
(-0.00533928 1.67658 -8.52025e-20)
(-0.0056578 1.57825 -5.6548e-21)
(0.306269 1.22101 8.43837e-19)
(0.312074 0.777757 -5.61778e-19)
(0.039891 1.63735 5.29116e-19)
(0.0882389 1.54491 -6.53241e-19)
(0.112746 1.45698 8.10868e-20)
(0.00246932 3.11864 -1.17514e-18)
(0.0178134 3.11767 1.25478e-18)
(-0.00842693 2.9814 5.35505e-19)
(-0.00241576 2.97831 -4.76356e-19)
(-0.0212803 2.88301 -5.45391e-19)
(0.00909937 3.09923 -1.45303e-18)
(0.00267706 3.10624 1.4104e-18)
(0.226608 0.497406 0)
(0.0603687 0.49437 -3.58958e-19)
(0.122292 0.121243 1.51954e-19)
(0.38945 0.773687 7.30179e-19)
(0.222388 0.239075 -1.10634e-18)
(1.23079 0.171478 -5.48304e-20)
(1.23454 0.313849 0)
(1.2189 0.120587 1.20691e-19)
(-0.00611847 1.68828 -1.63514e-21)
(-0.00891783 1.6988 0)
(-0.000491877 1.586 0)
(0.335742 1.0648 -2.90612e-19)
(0.346759 0.961 -5.80503e-19)
(0.243235 0.501759 1.0027e-18)
(1.00552 -0.00988793 0)
(1.00742 -0.00799764 1.96429e-19)
(-0.00368416 1.80291 0)
(-0.00917494 1.80891 0)
(1.00263 0.00368398 1.87239e-21)
(1.00218 0.00847679 4.02062e-19)
(0.00201958 1.78994 -5.78274e-21)
(0.0016701 1.79048 0)
(0.0437112 3.18985 1.27602e-19)
(0.399737 3.5096 0)
(1.10141 0.640164 6.34419e-20)
(1.01332 0.0132915 -2.68449e-21)
(1.01375 -0.0217335 0)
(1.0015 0.000438762 2.15747e-22)
(-0.0582783 1.6752 0)
(0.0226595 1.90165 0)
(-0.0185562 1.78521 0)
(0.00347949 1.81948 9.19693e-20)
(-0.0074063 1.80918 4.33643e-20)
(1.00347 0.0116244 2.26952e-21)
(1.04489 0.0150713 0)
(1.07435 0.0234277 0)
(-0.00779031 1.78378 0)
(-0.00748937 1.80051 0)
(-0.0107689 1.7962 0)
(0.0629353 1.36064 -4.33745e-19)
(1.01149 -0.00880019 0)
(1.01032 -0.0137417 0)
(1.003 0.000635456 2.50734e-19)
(1.0061 -0.00543004 -2.99203e-19)
(1.00107 -0.00132433 0)
(-0.0103053 1.78656 0)
(-0.00496178 1.79748 0)
(-0.00501121 1.79271 0)
(-0.00783967 1.79822 0)
(-0.00603324 1.79522 0)
(-0.00768404 1.79794 0)
(1.0232 0.0114429 0)
(1.02319 0.00177763 -9.65147e-22)
(0.76975 1.23668 5.29085e-19)
(1.00202 0.000655715 -2.49315e-19)
(1.00378 0.00530072 3.01681e-19)
(1.00126 0.00196217 0)
(1.01046 0.0103977 2.44855e-19)
(1.00793 0.00978818 -3.01743e-19)
(1.00514 0.0149703 0)
(-0.00674915 1.80075 0)
(-0.00127402 1.79492 1.56751e-20)
(-0.00283778 1.79508 -1.07877e-20)
(1.1781 0.260678 -5.89982e-20)
(1.11376 0.0791211 0)
(0.0599439 3.07856 -5.51123e-19)
(0.0710628 2.84935 -4.41267e-20)
(0.152813 3.19912 8.39131e-19)
(0.144545 3.22758 -1.14398e-20)
(0.145088 3.25234 0)
(0.0231022 3.13966 1.2018e-19)
(0.0847325 3.16349 5.38113e-19)
(0.0767847 3.19202 -2.32201e-19)
(0.027261 3.12848 0)
(0.708565 0.342862 0)
(0.612084 0.395076 0)
(1.08126 0.670072 -2.46224e-19)
(1.07076 0.811625 3.84443e-19)
(1.12846 0.557039 0)
(1.1626 0.50725 0)
(1.01546 0.0125224 -4.58504e-19)
(1.01231 0.016322 5.6947e-19)
(1.01215 -0.0207952 0)
(1.0104 -0.0174998 0)
(1.00711 0.00117067 0)
(1.01147 0.00258503 0)
(1.00453 0.0031784 0)
(1.01162 0.00710532 0)
(1.00628 0.00561582 0)
(1.00547 0.00441192 0)
(-0.0441552 1.68532 0)
(-0.027674 1.71639 0)
(-0.0838473 1.65372 0)
(-0.0645439 1.61039 0)
(0.0317245 1.90792 0)
(0.0918379 1.89238 -3.40238e-19)
(0.0124025 1.899 0)
(0.00432123 1.88029 1.57652e-19)
(-0.0191561 1.84241 -1.59493e-19)
(-0.021212 1.78408 0)
(-0.0236844 1.78355 0)
(-0.01384 1.7854 0)
(-0.00696793 1.77549 0)
(-0.0152514 1.81179 -4.66472e-20)
(-0.00590562 1.81118 5.84775e-20)
(0.00326934 1.82047 7.76007e-20)
(0.00201454 1.81633 0)
(-0.00997122 1.81147 -9.83132e-20)
(-0.00915129 1.80859 -5.63513e-20)
(-0.0101257 1.81041 3.72948e-20)
(-0.0122626 1.80682 -7.99904e-20)
(-0.00611156 1.81648 -9.79338e-20)
(1.01017 0.0164454 4.42946e-19)
(1.00889 0.00433517 -5.55899e-19)
(1.00444 0.019954 -4.6226e-19)
(0.98985 0.0152082 5.8482e-19)
(1.0383 0.0162507 0)
(1.04018 0.00977047 0)
(1.06019 0.0349116 0)
(1.0453 0.0192015 0)
(1.05961 0.0124946 0)
(1.10118 0.0650502 0)
(1.07753 0.0474044 0)
(1.09472 0.0340776 0)
(-0.00283651 1.78738 -1.71713e-21)
(-0.00770858 1.77992 0)
(-0.00552039 1.78116 0)
(-0.00656373 1.80258 1.61643e-20)
(-0.0052655 1.80255 -7.84197e-22)
(-0.0129263 1.78133 1.74698e-20)
(-0.0107506 1.78599 -1.74585e-20)
(-0.0105173 1.79386 0)
(-0.00841881 1.79482 0)
(-0.0096858 1.79625 0)
(-0.0124148 1.79491 0)
(-0.0129444 1.79709 0)
(0.21531 1.30062 9.07761e-19)
(0.343382 1.32045 3.37133e-19)
(0.432482 2.09909 -2.04912e-19)
(0.235928 1.93437 4.89835e-19)
(-0.0809886 2.3835 2.00771e-20)
(1.01524 -0.0203109 0)
(1.01583 -0.0136151 0)
(1.01267 -0.02344 0)
(1.00901 -0.00152428 0)
(1.00546 -0.00239323 0)
(1.00648 -0.00436714 0)
(1.00974 -0.00427889 0)
(1.01136 -0.00924922 0)
(1.02439 0.00376652 4.37811e-19)
(1.01765 0.0100291 -5.52156e-19)
(1.02368 0.00119383 -4.27983e-19)
(1.02063 0.00208232 5.26978e-19)
(0.75618 1.24731 0)
(0.639963 1.32253 6.41967e-19)
(0.866068 1.16984 3.69825e-19)
(0.905068 1.12916 -4.93921e-19)
(1.11861 2.57791 -4.39978e-19)
(0.821447 0.109088 2.92908e-19)
(1.11505 0.0903476 0)
(1.15753 0.173397 5.44191e-20)
(1.14732 0.150413 2.40239e-21)
(0.96421 0.134498 0)
(0.164646 2.97042 1.20448e-19)
(0.133408 2.87653 -6.95789e-19)
(0.0443243 2.34178 5.10058e-19)
(0.11943 0.150355 -2.09558e-19)
(0.342535 3.43996 -4.43428e-19)
(0.200678 3.33037 0)
(0.242403 3.37992 5.77488e-19)
(0.260527 3.049 -7.26193e-19)
(0.360694 3.21083 0)
(0.00699583 3.12069 2.79122e-20)
(0.0177831 3.12985 -3.56448e-19)
(0.0157763 3.1256 5.24645e-19)
(0.039694 3.14051 0)
(0.0384668 3.15259 0)
(1.17784 2.59915 0)
(0.509248 0.823043 -2.21108e-19)
(1.01075 0.982953 -2.05061e-19)
(0.96438 1.05612 0)
(0.82417 0.941121 5.95672e-20)
(1.03585 0.863686 3.30603e-20)
(0.407667 0.48797 -5.5404e-19)
(0.735505 0.334315 -2.3932e-20)
(0.737411 0.283432 2.24997e-19)
(0.609864 0.437714 1.79215e-20)
(0.55746 0.431026 -7.37915e-19)
(0.705616 0.370427 0)
(0.681429 0.433314 3.71815e-19)
(0.695255 0.433494 0)
(0.655385 0.411825 0)
(0.671242 0.359922 0)
(0.732787 0.604805 1.32342e-19)
(1.16386 0.267696 2.61549e-20)
(1.16327 0.398069 0)
(1.18615 0.368335 0)
(0.784456 0.218711 3.33548e-19)
(0.782594 0.535807 -1.85275e-19)
(0.686462 0.509271 3.02788e-19)
(0.87668 0.404222 -2.87573e-19)
(1.01768 0.0144489 2.97409e-19)
(1.0156 0.0173126 -3.09311e-19)
(1.01284 0.0214992 0)
(1.02014 0.0103942 0)
(1.0112 -0.00913079 -2.68556e-19)
(1.00847 -0.0012472 2.71984e-19)
(1.03063 0.00347726 0)
(1.02886 0.00166227 0)
(1.01323 0.00537144 0)
(1.01634 0.0118096 0)
(1.02578 0.00200915 0)
(1.01946 0.00196503 0)
(-0.02434 1.73491 0)
(-0.0213269 1.74109 0)
(-0.143339 1.67479 8.29298e-20)
(0.0105727 1.43795 1.83529e-19)
(-0.0736978 1.56255 3.63214e-19)
(-0.0256168 1.47433 -5.93438e-19)
(-0.181473 1.64733 0)
(-0.173805 1.90287 -5.5481e-20)
(-0.142046 1.89736 0)
(-0.118309 2.36995 -2.81585e-20)
(-0.017568 2.28156 4.07297e-19)
(-0.220768 1.92448 5.00461e-20)
(-0.159068 1.51561 1.42439e-19)
(-0.199503 1.6197 -1.13595e-19)
(-0.209378 1.51406 3.98718e-19)
(-0.220054 2.01675 0)
(-0.212851 2.06011 -2.26624e-19)
(-0.0424139 1.82507 -4.38394e-20)
(-0.0201079 1.84993 0)
(-0.0323943 1.8349 1.79297e-19)
(-0.0409601 1.83073 0)
(-0.00580143 1.87331 -1.75564e-19)
(-0.00997468 1.86316 0)
(-0.0136192 1.79728 -3.53474e-20)
(-0.012165 1.80219 0)
(-0.0180944 1.79273 0)
(-0.0165297 1.79551 4.16375e-20)
(-0.0112987 1.82535 -5.16151e-22)
(-0.0206061 1.83955 1.92869e-19)
(-0.00911987 1.83084 1.28665e-21)
(-0.0146913 1.79822 3.19961e-20)
(-0.0150681 1.79859 1.89996e-20)
(-0.0244438 1.78602 0)
(-0.0216901 1.78746 0)
(-0.0323444 1.80801 1.04271e-19)
(-0.0233132 1.79161 6.70612e-20)
(-0.0227601 1.79845 -9.69308e-20)
(-0.0464895 1.81707 0)
(-0.0113507 1.79275 -5.6979e-20)
(-0.0100787 1.80226 2.71312e-20)
(-0.00967592 1.80175 -8.44806e-21)
(-0.0140251 1.7986 -3.96107e-20)
(-0.00917605 1.80562 -1.34607e-20)
(-0.0113549 1.80828 6.51026e-20)
(1.02006 0.00362912 -2.84369e-19)
(1.01393 0.0102171 2.89798e-19)
(1.01442 0.00350303 0)
(0.994837 0.0465316 4.12985e-19)
(0.988705 0.0324615 -4.92069e-19)
(0.96232 0.0278304 5.72122e-19)
(0.993177 0.0852648 -5.53808e-20)
(1.02578 0.0120036 0)
(1.03204 0.0102387 2.55002e-19)
(1.03165 0.0074207 -2.53763e-19)
(1.03271 0.0413854 -1.3805e-20)
(1.0306 0.0265511 1.21347e-19)
(1.02066 0.0472204 0)
(1.01379 0.0419353 -4.5301e-20)
(1.0131 0.0228995 0)
(1.0163 0.0173279 0)
(1.02945 0.0061999 0)
(1.0239 0.00278726 0)
(1.01929 0.0228591 9.31881e-20)
(1.02374 0.0150075 -2.12424e-19)
(1.02059 0.0323417 -9.57637e-20)
(1.01975 0.0329479 -1.10368e-19)
(1.01779 0.0457838 1.94121e-19)
(1.05384 0.0445753 0)
(1.04226 0.0853089 0)
(-0.0121317 1.79247 -2.39856e-20)
(-0.0103464 1.7856 -1.99159e-21)
(-0.0112661 1.78552 0)
(-0.00817275 1.79597 2.53496e-20)
(-0.00624384 1.7927 3.50453e-21)
(-0.00531743 1.7946 -4.20806e-21)
(-0.00823597 1.80839 4.94287e-20)
(-0.00771711 1.80543 -2.98022e-21)
(-0.00826897 1.80459 1.42984e-20)
(-0.00567281 1.80595 -2.50697e-20)
(-0.00675787 1.80614 2.94117e-20)
(-0.0134971 1.78374 6.08881e-22)
(-0.0142689 1.78235 2.44396e-20)
(0.123562 1.18581 -4.8789e-19)
(-0.0889317 1.57982 -6.79158e-19)
(0.634144 1.29818 -6.25993e-19)
(0.487781 1.26891 -3.18966e-19)
(0.514654 1.35458 0)
(0.484491 2.17207 1.90964e-19)
(0.680207 2.09043 2.87975e-19)
(0.258857 1.95187 1.06223e-19)
(0.200839 2.28085 -4.24301e-19)
(0.195121 2.34919 4.25709e-19)
(0.392379 2.07997 0)
(0.336429 1.95617 -4.77694e-19)
(0.0982148 1.91058 8.839e-19)
(0.213006 1.92927 -7.05861e-20)
(0.174601 1.87023 -1.19045e-18)
(0.911062 2.43491 -2.18571e-20)
(0.834704 2.37784 0)
(1.00973 -0.00401639 9.93493e-21)
(1.01292 -0.0118893 -8.20951e-21)
(1.01402 -0.0135329 -1.44689e-19)
(1.02226 -0.015057 1.47322e-19)
(1.02017 -0.00765709 0)
(0.700821 1.20269 0)
(0.70078 1.16601 0)
(0.765533 1.0596 0)
(0.674393 1.15883 0)
(1.14378 2.594 7.36909e-20)
(1.04216 2.31263 0)
(0.960479 2.15399 1.01728e-21)
(0.904767 2.58749 0)
(1.05629 2.607 8.21839e-20)
(1.07371 2.52321 -5.46561e-20)
(0.830746 0.154518 0)
(0.798909 0.167357 8.43419e-20)
(0.888156 0.122548 4.31885e-19)
(0.852767 0.10402 -1.72708e-19)
(0.856017 0.0652419 -5.1848e-19)
(1.01386 0.214018 -2.65793e-19)
(0.939803 0.249546 -1.69982e-20)
(0.901196 0.244598 3.80635e-19)
(0.963104 0.186751 2.92268e-19)
(0.914481 0.162511 -5.43218e-19)
(0.887906 0.168827 6.98032e-20)
(0.925061 0.219461 -1.36225e-19)
(0.899251 0.186634 0)
(0.969915 0.164961 2.61924e-19)
(0.999798 0.169833 0)
(0.993978 0.190248 0)
(1.04565 0.0967372 8.62895e-20)
(1.01537 0.15736 -1.20701e-20)
(1.00779 0.218221 -4.72983e-20)
(1.04665 0.191216 0)
(1.00798 0.0252301 2.21993e-19)
(1.00939 0.0406783 2.65493e-19)
(1.01185 0.0303118 -2.19732e-19)
(1.00674 0.045045 -1.78342e-19)
(0.998004 0.0503211 -2.92619e-19)
(0.967079 0.133063 0)
(0.99082 0.086087 0)
(0.964003 0.045008 -2.0616e-19)
(0.924517 0.0531186 8.51826e-20)
(0.997544 0.078493 2.53115e-19)
(1.00952 0.0942648 -2.6253e-19)
(1.0212 0.134897 2.39201e-19)
(1.00435 0.122156 0)
(1.02009 0.0798114 0)
(1.00977 0.0665991 -1.08769e-19)
(1.00926 0.069761 -2.03567e-19)
(0.552116 1.17886 -3.2066e-20)
(0.552305 1.53802 9.35402e-20)
(1.09336 2.7684 5.39716e-20)
(1.18741 3.10593 -6.92553e-20)
(1.21031 2.71074 4.82741e-19)
(1.24243 2.70306 -3.09114e-19)
(1.168 2.31418 -8.59476e-21)
(1.16954 2.99933 1.6961e-19)
(1.18973 2.95338 -1.62285e-19)
(1.18506 3.25905 -2.6291e-19)
(1.34916 2.97858 3.64448e-19)
(1.34475 2.8939 0)
(0.499557 0.831223 -1.30312e-20)
(0.176213 1.29552 3.68975e-19)
(0.512115 0.550958 3.63589e-19)
(0.343413 0.327605 4.05947e-19)
(0.557678 0.453892 4.10749e-19)
(0.540322 0.503651 -6.50373e-19)
(0.54017 0.528341 5.32453e-19)
(0.516549 0.47417 -2.16259e-19)
(0.489666 0.434122 4.96561e-19)
(0.783824 0.259528 -1.85314e-19)
(0.756133 0.288322 0)
(0.756523 0.255987 1.23001e-20)
(0.677204 0.514604 1.8989e-19)
(0.656791 0.483168 -7.03246e-19)
(0.598834 0.500108 2.06494e-20)
(0.619664 0.473351 0)
(0.620979 0.721631 1.47748e-19)
(0.774785 0.770939 5.94902e-20)
(0.709815 0.82475 -7.7714e-20)
(0.814527 0.803197 -1.91529e-20)
(0.875677 0.831199 1.45848e-20)
(0.882874 0.843913 -1.49172e-20)
(0.779904 0.622164 -2.26899e-19)
(0.857199 0.701484 1.78149e-20)
(0.928462 0.699614 0)
(0.915077 0.662945 -1.9986e-20)
(0.962328 0.287981 6.49765e-20)
(1.06559 0.264577 1.634e-20)
(1.00126 0.242078 1.086e-19)
(0.935941 0.326857 -1.46677e-19)
(0.980153 0.404544 0)
(1.04572 0.383723 0)
(0.862164 0.334717 5.13674e-21)
(0.848584 0.279291 0)
(0.847543 0.24463 2.02218e-19)
(0.885067 0.251855 -3.01501e-21)
(0.869006 0.408948 7.88441e-19)
(0.824621 0.472186 1.98972e-19)
(0.822828 0.436155 -2.51155e-19)
(0.760191 0.42964 2.69708e-19)
(0.747554 0.432256 1.83346e-19)
(0.734395 0.424762 -1.79616e-19)
(1.02419 0.00490646 2.38912e-19)
(1.03166 -0.00274994 0)
(1.03096 -0.00803293 1.58406e-19)
(1.02273 -0.00610002 -3.54826e-19)
(1.03621 0.00292151 1.68509e-19)
(1.03157 0.00661579 -3.65743e-19)
(1.0293 0.00555287 0)
(1.0233 0.00833253 -7.57819e-20)
(1.02826 0.00621719 1.90514e-19)
(1.02005 0.0126207 -9.58643e-20)
(1.02127 0.0131778 6.98777e-20)
(-0.0101882 1.77461 0)
(-0.0223951 1.78924 0)
(-0.0178357 1.75646 0)
(-0.00865401 1.75979 0)
(-0.0789202 1.75409 -2.06869e-20)
(-0.0805517 1.71275 1.91738e-21)
(-0.126435 1.86551 -2.85263e-20)
(-0.158999 1.73965 -6.83264e-20)
(-0.0372604 1.79288 -5.08032e-20)
(-0.0491238 1.78918 3.6255e-20)
(-0.0595124 1.75869 -5.96702e-21)
(-0.0471873 1.77984 8.77669e-21)
(-0.0325855 1.78134 9.30888e-22)
(-0.0294033 1.78544 -4.79585e-21)
(-0.0337728 1.85127 -1.9055e-19)
(-0.0246532 1.88187 0)
(-0.0643042 1.87625 1.16368e-19)
(-0.0916488 1.86727 6.76495e-20)
(-0.105556 2.08297 -6.15983e-20)
(0.0414659 2.03704 0)
(0.0120252 2.08904 -4.42838e-19)
(0.0107997 2.20171 3.11013e-19)
(-0.0667207 1.99226 -2.15097e-19)
(-0.0648152 1.9348 1.12372e-19)
(-0.0166806 1.95445 0)
(-0.0285352 1.80869 -1.33385e-19)
(-0.0206636 1.81427 -1.79918e-19)
(-0.0206734 1.81323 0)
(-0.0265048 1.8239 -5.22677e-21)
(-0.0368532 1.82171 6.98429e-20)
(-0.0201182 1.79332 5.52377e-21)
(-0.0233545 1.7904 -9.04147e-20)
(-0.0247861 1.78969 2.09225e-20)
(-0.0204905 1.79175 3.74844e-20)
(-0.014189 1.79852 0)
(-0.0238606 1.78747 0)
(-0.0167932 1.79381 2.94743e-20)
(-0.0182616 1.78585 -9.36688e-21)
(-0.0238196 1.78685 0)
(-0.0220194 1.79014 2.34206e-20)
(-0.0169486 1.79413 -4.44845e-20)
(1.02472 0.0164947 0)
(1.02656 0.0149085 -2.26974e-20)
(1.02426 0.0148735 -1.70518e-19)
(1.02412 0.0180671 0)
(1.02443 0.02041 0)
(1.02694 0.0087592 -4.56581e-21)
(1.02732 0.00930848 2.8101e-19)
(1.02379 0.00836436 3.43725e-19)
(1.02288 0.00579253 0)
(1.01911 0.00597369 0)
(1.02135 0.0140474 1.725e-19)
(1.01862 0.0121927 0)
(1.01954 0.0112551 0)
(-0.0119189 1.79373 0)
(-0.0142304 1.78188 2.01646e-21)
(-0.0146289 1.78548 1.36196e-20)
(-0.0162977 1.78667 0)
(-0.0147611 1.78334 1.89152e-20)
(-0.0128147 1.78497 -8.38004e-21)
(-0.0131028 1.78441 0)
(0.448465 2.28752 0)
(-0.0813779 1.70834 1.26974e-18)
(0.0249655 2.23667 0)
(0.330381 1.15964 -1.5704e-18)
(0.433799 1.06853 0)
(0.340535 1.14224 6.76943e-19)
(1.08704 2.73239 1.19468e-22)
(0.938898 2.4644 2.76117e-20)
(0.801503 2.15789 3.15783e-19)
(0.885141 2.40334 1.24157e-19)
(0.966125 2.59901 0)
(0.99812 2.54543 0)
(0.877016 2.42631 0)
(0.915189 2.37143 -3.83719e-19)
(0.562998 2.68632 7.47261e-20)
(0.898348 2.63104 1.06165e-20)
(0.900516 2.59259 -8.70693e-21)
(0.593404 2.30718 0)
(0.768525 2.38838 0)
(0.751796 2.26391 -2.55187e-19)
(0.767817 2.65756 0)
(0.596212 1.11676 0)
(0.455083 0.90486 -1.69475e-20)
(0.518907 0.942044 -2.30419e-21)
(0.469035 1.0714 0)
(0.473865 1.028 2.606e-20)
(0.742478 0.859218 1.36049e-20)
(0.784316 0.980434 0)
(0.755854 0.939238 -6.68847e-20)
(0.616961 1.02417 0)
(0.631961 0.923021 0)
(1.13404 2.73599 -2.82122e-21)
(1.09924 2.81723 3.21056e-20)
(0.90232 2.34501 -1.19805e-19)
(0.882833 2.31113 -2.86661e-21)
(1.10624 2.71208 0)
(1.08939 2.67009 2.001e-21)
(1.05104 2.44591 -1.27729e-19)
(0.936057 2.1507 -3.11889e-20)
(0.741485 1.47071 0)
(0.667086 1.15904 2.83758e-20)
(0.681005 1.18596 0)
(0.840404 0.201903 0)
(0.811674 0.179546 0)
(0.776286 0.186889 0)
(0.841923 0.206309 -3.18323e-19)
(0.79834 0.212909 1.94347e-19)
(0.925289 0.0509155 -1.69109e-19)
(0.932689 0.0962889 0)
(0.907035 0.0985293 8.10374e-20)
(0.884072 0.0654861 3.30789e-19)
(0.886107 0.0586287 -2.03823e-19)
(1.14413 3.38464 -9.71965e-19)
(1.18614 3.30565 0)
(1.15152 3.40927 -1.91709e-18)
(0.644687 3.56922 1.64543e-18)
(0.871194 3.1362 4.19232e-19)
(0.493603 0.83771 1.89701e-19)
(0.396299 0.842112 0)
(0.35397 0.561268 -7.95134e-20)
(0.412507 0.674871 3.58053e-19)
(0.509407 0.544031 -1.12993e-19)
(0.495315 0.55974 1.24939e-19)
(0.607469 0.535724 2.67177e-19)
(0.625277 0.551321 0)
(0.587126 0.617175 0)
(0.543467 0.557782 0)
(0.915539 0.576731 -4.47763e-20)
(0.830809 0.516793 -1.9228e-19)
(0.864563 0.558274 9.35084e-20)
(0.892965 0.495046 -1.41354e-19)
(1.00828 0.466387 0)
(1.00499 0.546647 -8.72405e-21)
(0.797255 0.374601 -4.02709e-19)
(0.807371 0.355101 -4.7001e-19)
(0.783697 0.387057 3.14813e-19)
(0.791529 0.346105 -3.57898e-19)
(0.836576 0.290155 -2.50936e-19)
(0.814581 0.29209 3.1573e-19)
(1.03563 0.00436439 -1.71303e-19)
(1.03534 0.00555979 3.55005e-19)
(1.02695 0.00941184 2.2631e-19)
(1.02923 0.0127782 -2.69127e-19)
(1.02468 0.0168483 0)
(1.02848 0.0118051 -4.42567e-19)
(-0.0453386 1.81781 2.74682e-20)
(-0.0543632 1.81974 0)
(-0.0613832 1.82555 1.9624e-19)
(-0.0678062 1.85736 -1.74097e-19)
(-0.106473 1.85097 5.10757e-20)
(-0.0865483 1.83851 0)
(-0.015323 1.79495 0)
(-0.0194636 1.78901 -1.00362e-20)
(-0.017813 1.78475 8.93895e-21)
(-0.0160282 1.7841 2.27148e-21)
(-0.0137547 1.79214 -1.83551e-20)
(-0.0137542 1.79446 1.15498e-20)
(0.815437 1.47226 6.68207e-19)
(0.77826 1.61126 -7.06863e-19)
(0.506625 1.24533 7.81975e-19)
(0.665902 1.60525 -5.4186e-20)
(0.729616 1.15653 0)
(0.584238 1.09056 6.1025e-19)
(0.605015 1.17234 -5.87601e-19)
(0.556182 1.01647 -7.66128e-19)
(0.77021 1.10928 0)
(0.741322 1.18473 0)
(0.438819 2.65003 -1.1493e-19)
(0.558987 2.56024 6.14181e-19)
(0.648954 2.60909 -4.14293e-19)
(0.444658 2.57488 -1.64544e-19)
(0.206172 2.65599 1.45542e-19)
(0.232292 2.53431 -4.56472e-19)
(0.939978 2.33204 -1.81569e-19)
(0.97615 2.33384 0)
(0.843984 2.07418 -3.56986e-19)
(1.07001 2.65939 0)
(1.05509 2.65355 0)
(0.619359 2.32887 2.71655e-19)
(1.01209 3.19127 4.78473e-19)
(0.88591 3.06147 -4.61288e-19)
(0.331035 0.971195 0)
(0.353184 0.834859 -1.31304e-19)
(0.473616 0.763571 -5.3248e-20)
(0.410689 2.10341 0)
(0.492304 2.81695 -2.91757e-19)
(0.437123 2.58325 0)
(0.643023 0.664048 -3.06292e-19)
(0.698059 0.680602 3.97799e-19)
(0.735821 0.626436 -3.89318e-19)
(0.604546 0.636527 -4.60919e-20)
(0.657235 0.59384 -1.9049e-19)
(0.9637 2.80173 -3.63472e-19)
(0.998177 2.87347 2.70975e-19)
(0.622959 2.22371 1.4793e-20)
(0.583401 1.78373 -4.89602e-20)
(0.656796 1.99348 8.8057e-20)
(0.954852 2.50159 -7.49419e-20)
(0.96171 2.5197 -1.15894e-19)
(0.661883 1.941 -4.04961e-21)
(0.400845 1.42411 -6.57658e-20)
)
;

boundaryField
{
    wall-4
    {
        type            noSlip;
    }
    velocity-inlet-5
    {
        type            fixedValue;
        value           uniform (1 0 0);
    }
    velocity-inlet-6
    {
        type            fixedValue;
        value           uniform (0 3 0);
    }
    pressure-outlet-7
    {
        type            zeroGradient;
    }
    wall-8
    {
        type            noSlip;
    }
    frontAndBackPlanes
    {
        type            empty;
    }
}


// ************************************************************************* //
