/*--------------------------------*- C++ -*----------------------------------*\
  =========                 |
  \\      /  F ield         | OpenFOAM: The Open Source CFD Toolbox
   \\    /   O peration     | Website:  https://openfoam.org
    \\  /    A nd           | Version:  13
     \\/     M anipulation  |
\*---------------------------------------------------------------------------*/
FoamFile
{
    format      ascii;
    class       volScalarField;
    location    "2.875";
    object      T;
}
// * * * * * * * * * * * * * * * * * * * * * * * * * * * * * * * * * * * * * //

dimensions      [0 0 0 1 0 0 0];

internalField   nonuniform List<scalar> 
1000
(
4.68578e-75
7.19825e-75
1.3555e-74
2.71172e-74
5.50325e-74
1.11957e-73
2.27662e-73
4.62418e-73
9.38018e-73
1.90022e-72
3.84422e-72
7.76644e-72
1.56691e-71
3.15701e-71
6.35208e-71
1.27633e-70
2.56105e-70
5.1319e-70
1.02694e-69
2.05218e-69
4.09537e-69
8.16159e-69
1.62428e-68
3.22811e-68
6.40679e-68
1.2698e-67
2.51322e-67
4.96738e-67
9.80449e-67
1.93252e-66
3.80383e-66
7.47685e-66
1.46762e-65
2.8768e-65
5.63121e-65
1.10076e-64
2.14871e-64
4.18851e-64
8.15337e-64
1.58493e-63
3.07665e-63
5.96404e-63
1.15451e-62
2.23175e-62
4.3081e-62
8.30462e-62
1.59862e-61
3.07299e-61
5.89885e-61
1.13074e-60
2.16446e-60
4.13738e-60
7.8975e-60
1.50536e-59
2.86537e-59
5.44636e-59
1.03376e-58
1.95938e-58
3.70853e-58
7.00924e-58
1.32289e-57
2.49323e-57
4.69226e-57
8.81832e-57
1.6549e-56
3.10127e-56
5.80348e-56
1.08447e-55
2.02362e-55
3.77067e-55
7.01597e-55
1.30357e-54
2.41859e-54
4.48091e-54
8.28987e-54
1.53146e-53
2.82514e-53
5.20415e-53
9.57272e-53
1.75831e-52
3.225e-52
5.9066e-52
1.08024e-51
1.97275e-51
3.59748e-51
6.55082e-51
1.19114e-50
2.16274e-50
3.92115e-50
7.09892e-50
1.28334e-49
2.31663e-49
4.17583e-49
7.51615e-49
1.35087e-48
2.42438e-48
4.34464e-48
7.77449e-48
1.38917e-47
2.47858e-47
4.41586e-47
7.8558e-47
1.3955e-46
2.47531e-46
4.38423e-46
7.75387e-46
1.36932e-45
2.41463e-45
4.25165e-45
7.47522e-45
1.31235e-44
2.30056e-44
4.02694e-44
7.03842e-44
1.22838e-43
2.14065e-43
3.7249e-43
6.47203e-43
1.12285e-42
1.94516e-42
3.36469e-42
5.81149e-42
1.00227e-41
1.72597e-41
2.96779e-41
5.09549e-41
8.73554e-41
1.49536e-40
2.55593e-40
4.36218e-40
7.43375e-40
1.26491e-39
2.14912e-39
3.64594e-39
6.17598e-39
1.0446e-38
1.76416e-38
2.97491e-38
5.00903e-38
8.4213e-38
1.41367e-37
2.36953e-37
3.96571e-37
6.62706e-37
1.10577e-36
1.84225e-36
3.06461e-36
5.09029e-36
8.44211e-36
1.39797e-35
2.31147e-35
3.81606e-35
6.29044e-35
1.03535e-34
1.70148e-34
2.79195e-34
4.57429e-34
7.483e-34
1.22226e-33
1.99337e-33
3.246e-33
5.27767e-33
8.56781e-33
1.38877e-32
2.24764e-32
3.63206e-32
5.86021e-32
9.44071e-32
1.51854e-31
2.43883e-31
3.9108e-31
6.26152e-31
1.00098e-30
1.5977e-30
2.54623e-30
4.05161e-30
6.43702e-30
1.0211e-29
1.61726e-29
2.55752e-29
4.03815e-29
6.36608e-29
1.00204e-28
1.5748e-28
2.4711e-28
3.87148e-28
6.05603e-28
9.45848e-28
1.47495e-27
2.29644e-27
3.56989e-27
5.54085e-27
8.58653e-27
1.32856e-26
2.0524e-26
3.16565e-26
4.87511e-26
7.49589e-26
1.15075e-25
1.76383e-25
2.69929e-25
4.12438e-25
6.29195e-25
9.58358e-25
1.45742e-24
2.21289e-24
3.35466e-24
5.07752e-24
7.67307e-24
1.15771e-23
1.74399e-23
2.62302e-23
3.93887e-23
5.90547e-23
8.83992e-23
1.32115e-22
1.97138e-22
2.93695e-22
4.36851e-22
6.48755e-22
9.61916e-22
1.42398e-21
2.10464e-21
3.1057e-21
4.57562e-21
6.73051e-21
9.88447e-21
1.44932e-20
2.1217e-20
3.10105e-20
4.52521e-20
6.59287e-20
9.58993e-20
1.39271e-19
2.01935e-19
2.92324e-19
4.22495e-19
6.09653e-19
8.78307e-19
1.26332e-18
1.81418e-18
2.60106e-18
3.72326e-18
5.32103e-18
7.59224e-18
1.08154e-17
1.53822e-17
2.18421e-17
3.09648e-17
4.3827e-17
6.19319e-17
8.73747e-17
1.23071e-16
1.7307e-16
2.4299e-16
3.40605e-16
4.76662e-16
6.65989e-16
9.2901e-16
1.29381e-15
1.79893e-15
2.49721e-15
3.46093e-15
4.78877e-15
6.61531e-15
9.1237e-15
1.25628e-14
1.72701e-14
2.37027e-14
3.24784e-14
4.44308e-14
6.06829e-14
8.2745e-14
1.12644e-13
1.53098e-13
2.07741e-13
2.81426e-13
3.80627e-13
5.13957e-13
6.92858e-13
9.32507e-13
1.253e-12
1.6809e-12
2.25123e-12
3.01016e-12
4.01836e-12
5.35547e-12
7.12584e-12
9.46593e-12
1.25539e-11
1.66221e-11
2.19725e-11
2.89975e-11
3.8206e-11
5.02563e-11
6.59989e-11
8.6531e-11
1.13264e-10
1.48014e-10
1.93108e-10
2.51527e-10
3.27081e-10
4.24634e-10
5.50376e-10
7.12183e-10
9.20047e-10
1.18663e-09
1.52794e-09
1.96419e-09
2.52086e-09
3.22997e-09
4.13176e-09
5.27664e-09
6.72769e-09
8.56367e-09
1.08828e-08
1.38072e-08
1.74887e-08
2.21154e-08
2.79201e-08
3.51906e-08
4.42813e-08
5.56289e-08
6.97696e-08
8.7361e-08
1.09208e-07
1.36294e-07
1.69819e-07
2.11242e-07
2.62338e-07
3.25257e-07
4.02605e-07
4.97527e-07
6.1382e-07
7.56052e-07
9.29713e-07
1.14139e-06
1.39895e-06
1.71182e-06
2.09123e-06
2.55054e-06
3.10563e-06
3.77533e-06
4.58192e-06
5.55173e-06
6.71578e-06
8.1106e-06
9.77907e-06
1.17715e-05
1.41466e-05
1.69732e-05
2.03313e-05
2.4314e-05
2.90293e-05
3.46025e-05
4.11784e-05
4.8924e-05
5.80318e-05
6.8723e-05
8.12514e-05
9.59073e-05
0.000113023
0.000132976
0.000156198
0.000183177
0.000214467
0.000250696
0.00029257
0.000340885
0.000396538
0.000460531
0.000533987
0.000618162
0.000714452
0.000824413
0.000949767
0.00109243
0.00125449
0.0014383
0.0016464
0.00188159
0.00214694
0.00244581
0.00278185
0.00315902
0.00358164
0.00405435
0.00458219
0.00517056
0.00582528
0.00655256
0.00735904
0.00825182
0.0092384
0.0103268
0.0115253
0.012843
0.014289
0.0158733
0.0176058
0.0194974
0.0215589
0.0238018
0.0262378
0.028879
0.0317375
0.0348261
0.0381573
0.0417441
0.0455994
0.0497359
0.0541667
0.0589043
0.0639613
0.0693497
0.0750814
0.0811677
0.0876191
0.0944459
0.101657
0.109262
0.117266
0.125678
0.134502
0.143743
0.153403
0.163483
0.173984
0.184905
0.196242
0.207991
0.220145
0.232697
0.245637
0.258954
0.272636
0.286667
0.301031
0.315712
0.330689
0.345942
0.36145
0.377188
0.393133
0.40926
0.425542
0.441951
0.45846
0.475041
0.491665
0.508303
0.524927
0.541506
0.558012
0.574417
0.590693
0.606813
0.62275
0.638479
0.653974
0.669213
0.684174
0.698835
0.713176
0.72718
0.74083
0.754111
0.76701
0.779514
0.791612
0.803297
0.814561
0.825397
0.835802
0.845773
0.855307
0.864405
0.873067
0.881295
0.889092
0.896461
0.903407
0.909935
0.91605
0.92176
0.927069
0.931984
0.936513
0.940663
0.944439
0.947848
0.950897
0.953591
0.955936
0.957936
0.959596
0.960919
0.961909
0.962568
0.962897
0.962897
0.962568
0.961909
0.960919
0.959596
0.957936
0.955936
0.953591
0.950897
0.947848
0.944439
0.940663
0.936513
0.931984
0.927069
0.92176
0.91605
0.909935
0.903407
0.896461
0.889092
0.881295
0.873067
0.864405
0.855307
0.845773
0.835802
0.825397
0.814561
0.803297
0.791612
0.779514
0.76701
0.754111
0.74083
0.72718
0.713176
0.698835
0.684174
0.669213
0.653974
0.638479
0.62275
0.606813
0.590693
0.574417
0.558012
0.541506
0.524927
0.508303
0.491665
0.475041
0.45846
0.441951
0.425542
0.40926
0.393133
0.377188
0.36145
0.345942
0.330689
0.315712
0.301031
0.286667
0.272636
0.258954
0.245637
0.232697
0.220145
0.207991
0.196242
0.184905
0.173984
0.163483
0.153403
0.143743
0.134502
0.125678
0.117266
0.109262
0.101657
0.0944459
0.0876191
0.0811677
0.0750814
0.0693497
0.0639613
0.0589043
0.0541667
0.0497359
0.0455994
0.0417441
0.0381573
0.0348261
0.0317375
0.028879
0.0262378
0.0238018
0.0215589
0.0194974
0.0176058
0.0158733
0.014289
0.012843
0.0115253
0.0103268
0.0092384
0.00825182
0.00735904
0.00655256
0.00582528
0.00517056
0.00458219
0.00405435
0.00358164
0.00315902
0.00278185
0.00244581
0.00214694
0.00188159
0.0016464
0.0014383
0.00125449
0.00109243
0.000949767
0.000824413
0.000714452
0.000618162
0.000533987
0.000460531
0.000396538
0.000340885
0.00029257
0.000250696
0.000214467
0.000183177
0.000156198
0.000132976
0.000113023
9.59073e-05
8.12514e-05
6.8723e-05
5.80318e-05
4.8924e-05
4.11784e-05
3.46025e-05
2.90293e-05
2.4314e-05
2.03313e-05
1.69732e-05
1.41466e-05
1.17715e-05
9.77907e-06
8.1106e-06
6.71578e-06
5.55173e-06
4.58192e-06
3.77533e-06
3.10563e-06
2.55054e-06
2.09123e-06
1.71182e-06
1.39895e-06
1.14139e-06
9.29713e-07
7.56052e-07
6.1382e-07
4.97527e-07
4.02605e-07
3.25257e-07
2.62338e-07
2.11242e-07
1.69819e-07
1.36294e-07
1.09208e-07
8.7361e-08
6.97696e-08
5.56289e-08
4.42813e-08
3.51906e-08
2.79201e-08
2.21154e-08
1.74887e-08
1.38072e-08
1.08828e-08
8.56367e-09
6.72769e-09
5.27664e-09
4.13176e-09
3.22997e-09
2.52086e-09
1.96419e-09
1.52794e-09
1.18663e-09
9.20047e-10
7.12183e-10
5.50376e-10
4.24634e-10
3.27081e-10
2.51527e-10
1.93108e-10
1.48014e-10
1.13264e-10
8.6531e-11
6.59989e-11
5.02563e-11
3.8206e-11
2.89975e-11
2.19725e-11
1.66221e-11
1.25539e-11
9.46593e-12
7.12584e-12
5.35547e-12
4.01836e-12
3.01016e-12
2.25123e-12
1.6809e-12
1.253e-12
9.32507e-13
6.92858e-13
5.13957e-13
3.80627e-13
2.81426e-13
2.07741e-13
1.53098e-13
1.12644e-13
8.2745e-14
6.06829e-14
4.44308e-14
3.24784e-14
2.37027e-14
1.72701e-14
1.25628e-14
9.1237e-15
6.61531e-15
4.78877e-15
3.46093e-15
2.49721e-15
1.79893e-15
1.29381e-15
9.2901e-16
6.65989e-16
4.76662e-16
3.40605e-16
2.4299e-16
1.7307e-16
1.23071e-16
8.73747e-17
6.19319e-17
4.3827e-17
3.09648e-17
2.18421e-17
1.53822e-17
1.08154e-17
7.59224e-18
5.32103e-18
3.72326e-18
2.60106e-18
1.81418e-18
1.26332e-18
8.78307e-19
6.09653e-19
4.22495e-19
2.92324e-19
2.01935e-19
1.39271e-19
9.58993e-20
6.59287e-20
4.52521e-20
3.10105e-20
2.1217e-20
1.44932e-20
9.88447e-21
6.73051e-21
4.57562e-21
3.1057e-21
2.10464e-21
1.42398e-21
9.61916e-22
6.48755e-22
4.36851e-22
2.93695e-22
1.97138e-22
1.32115e-22
8.83992e-23
5.90547e-23
3.93887e-23
2.62302e-23
1.74399e-23
1.15771e-23
7.67307e-24
5.07752e-24
3.35466e-24
2.21289e-24
1.45742e-24
9.58358e-25
6.29195e-25
4.12438e-25
2.69929e-25
1.76383e-25
1.15075e-25
7.49589e-26
4.87511e-26
3.16565e-26
2.0524e-26
1.32856e-26
8.58653e-27
5.54085e-27
3.56989e-27
2.29644e-27
1.47495e-27
9.45848e-28
6.05603e-28
3.87148e-28
2.4711e-28
1.5748e-28
1.00204e-28
6.36608e-29
4.03815e-29
2.55752e-29
1.61726e-29
1.0211e-29
6.43702e-30
4.05161e-30
2.54623e-30
1.5977e-30
1.00098e-30
6.26152e-31
3.9108e-31
2.43883e-31
1.51854e-31
9.44071e-32
5.86021e-32
3.63206e-32
2.24764e-32
1.38877e-32
8.56781e-33
5.27767e-33
3.246e-33
1.99337e-33
1.22226e-33
7.483e-34
4.57429e-34
2.79195e-34
1.70148e-34
1.03535e-34
6.29044e-35
3.81606e-35
2.31147e-35
1.39797e-35
8.44211e-36
5.09029e-36
3.06461e-36
1.84225e-36
1.10577e-36
6.62706e-37
3.96571e-37
2.36953e-37
1.41367e-37
8.4213e-38
5.00903e-38
2.97491e-38
1.76416e-38
1.0446e-38
6.17598e-39
3.64594e-39
2.14912e-39
1.26491e-39
7.43375e-40
4.36218e-40
2.55593e-40
1.49536e-40
8.73554e-41
5.09549e-41
2.96779e-41
1.72597e-41
1.00227e-41
5.81149e-42
3.36469e-42
1.94516e-42
1.12285e-42
6.47203e-43
3.7249e-43
2.14065e-43
1.22838e-43
7.03842e-44
4.02694e-44
2.30056e-44
1.31235e-44
7.47522e-45
4.25165e-45
2.41463e-45
1.36932e-45
7.75387e-46
4.38423e-46
2.47531e-46
1.3955e-46
7.8558e-47
4.41586e-47
2.47858e-47
1.38917e-47
7.77449e-48
4.34464e-48
2.42438e-48
1.35087e-48
7.51615e-49
4.17583e-49
2.31663e-49
1.28334e-49
7.09892e-50
3.92115e-50
2.16274e-50
1.19114e-50
6.55082e-51
3.59748e-51
1.97275e-51
1.08024e-51
5.9066e-52
3.225e-52
1.75831e-52
9.57272e-53
5.20415e-53
2.82514e-53
1.53146e-53
8.28987e-54
4.48091e-54
2.41859e-54
1.30357e-54
7.01597e-55
3.77067e-55
2.02362e-55
1.08447e-55
5.80348e-56
3.10127e-56
1.6549e-56
8.81832e-57
4.69226e-57
2.49323e-57
1.32289e-57
7.00924e-58
3.70853e-58
1.95938e-58
1.03376e-58
5.44636e-59
2.86537e-59
1.50536e-59
7.8975e-60
4.13738e-60
2.16446e-60
1.13074e-60
5.89885e-61
3.07299e-61
1.59862e-61
8.30462e-62
4.3081e-62
2.23175e-62
1.15451e-62
5.96404e-63
3.07665e-63
1.58493e-63
8.15337e-64
4.18851e-64
2.14871e-64
1.10076e-64
5.63121e-65
2.8768e-65
1.46762e-65
7.47685e-66
3.80383e-66
1.93252e-66
9.80449e-67
4.96738e-67
2.51322e-67
1.2698e-67
6.40679e-68
3.22811e-68
1.62428e-68
8.16159e-69
4.09537e-69
2.05218e-69
1.02694e-69
5.1319e-70
2.56105e-70
1.27633e-70
6.35208e-71
3.15701e-71
1.56691e-71
7.76644e-72
3.84422e-72
1.90022e-72
9.38018e-73
4.62418e-73
2.27662e-73
1.11957e-73
5.50325e-74
2.71172e-74
1.3555e-74
7.19825e-75
4.68578e-75
)
;

boundaryField
{
    sides
    {
        type            zeroGradient;
    }
    empty
    {
        type            empty;
    }
}


// ************************************************************************* //
