/*--------------------------------*- C++ -*----------------------------------*\
  =========                 |
  \\      /  F ield         | OpenFOAM: The Open Source CFD Toolbox
   \\    /   O peration     | Website:  https://openfoam.org
    \\  /    A nd           | Version:  13
     \\/     M anipulation  |
\*---------------------------------------------------------------------------*/
FoamFile
{
    format      ascii;
    class       surfaceScalarField;
    location    "61";
    object      phi;
}
// * * * * * * * * * * * * * * * * * * * * * * * * * * * * * * * * * * * * * //

dimensions      [0 3 -1 0 0 0 0];

internalField   nonuniform List<scalar> 
1300
(
3.75095
5.62643
-3.32886
3.75095
-7.7213
5.62643
-4.38076
4.38076
-0.474193
0.474193
1.87639
1.87456
-2.69745
2.69745
-2.18198
2.18198
-2.53137
2.53137
-5.24646
5.24646
-5.06877
5.06877
4.65649
-4.65649
-6.29676
6.29676
-0.957472
0.957472
-3.66689
3.66689
3.16964
-3.16964
-2.12462
2.12462
-0.0198849
0.0198849
-0.553479
4.30443
3.19747
3.19747
-2.01372
2.01372
-4.86817
4.86817
6.2181
-6.2181
5.32041
-5.32041
-1.99155
-2.44187
1.79126
-11.523
-5.93004
-5.93004
-8.44039
8.44039
-2.81396
2.81247
2.9459
-2.9459
-1.77488
1.77488
-4.33926
-0.0415001
-4.33926
4.35226
0.0285055
4.35226
-0.540805
0.0666117
-0.540805
3.97567
-3.97567
0.388025
0.0861678
0.388025
3.06529
-3.06529
-1.87711
3.7535
1.87384
-1.87189
6.17632
-1.87906
3.75362
-6.01604
6.01604
-2.92382
0.226369
-2.92382
2.51032
0.187128
2.51032
-6.84325
6.84325
-2.21626
0.0342748
-2.21626
2.15173
0.030254
2.15173
2.87969
-2.87969
-2.64258
0.111215
-2.64258
2.39775
0.13362
2.39775
0.353526
5.2729
-5.97996
8.79243
-5.2729
0.0264406
5.20838
0.0380809
5.20838
-5.10588
0.0371173
-5.10588
5.01219
0.0565738
5.01219
4.74263
-0.0861376
4.74263
-4.77421
0.117718
-4.77421
-3.38434
-4.05313
-6.44908
0.152323
-6.44908
-1.04396
0.086488
-1.04396
0.846966
0.110506
0.846966
-3.6827
3.6827
-4.09161
0.424727
-4.09161
3.12401
0.0456211
3.12401
1.86849
1.88246
5.61945
-5.61945
2.44981
-2.10348
-0.0211357
-2.10348
-2.17687
-3.14354
2.17687
-0.0522494
-0.252116
0.232231
-0.252116
3.15941
0.0380594
3.15941
2.23716
0.160584
-2.23716
0.223446
3.26994
-3.26994
1.33904
0.674678
1.33904
-5.56453
5.56453
4.95557
0.0566232
-4.95557
0.0874005
6.15644
0.0616664
6.15644
-6.19951
-0.0185969
-6.19951
2.5354
-4.97727
-2.61083
6.11354
0.183225
-6.11354
0.183493
2.91761
0.0282903
2.91761
-2.91976
2.91976
-2.98451
0.0386004
-2.98451
-2.17394
0.399059
-2.17394
1.47609
0.298797
1.47609
-4.23687
-0.102391
-4.23687
-4.24305
0.151438
4.24305
0.109206
1.12767
-1.12767
-0.647521
0.106716
-0.647521
-4.09983
-0.137046
4.09983
-0.124157
-3.86618
-0.109488
-3.86618
-3.0244
0.0398978
3.0244
0.0408821
3.11284
0.0465707
-3.11284
0.0475586
-1.87082
3.75328
-1.88013
3.75397
-5.63556
-0.380482
-5.63556
6.32631
-0.310274
6.32631
3.30871
0.358171
-3.30871
0.384893
2.37463
0.135691
2.37463
-6.80733
-0.0359138
-6.80733
6.82656
0.0166828
6.82656
2.27992
0.094709
-2.27992
0.063667
2.11931
0.0324151
2.11931
2.89915
-0.0194547
2.89915
-2.87426
-0.00543289
-2.87426
2.79684
-2.79684
2.72443
0.0724082
-2.72443
0.0818509
-11.1331
11.1145
-0.0352872
-11.0978
5.1731
5.1731
4.17002
0.572611
4.17002
-4.99142
0.217205
-4.99142
2.67684
-5.28767
3.0606
-6.44494
4.66853
-16.1915
4.30841
-8.36153
6.69107
-6.69107
6.57906
0.112012
-6.57906
0.129973
-1.15723
0.113266
-1.15723
-3.07964
-0.603059
-3.07964
4.32633
-0.643629
4.32633
-3.02824
3.02824
-3.07751
0.0492743
3.07751
0.0465023
2.09891
0.0204066
-2.09891
-0.00457403
0.319275
0.0687504
-0.319275
0.0671592
3.47978
-0.209834
3.47978
-3.07363
-0.196316
-3.07363
-1.25257
0.0953457
1.25257
0.0864677
-5.81487
0.250341
-5.81487
-11.1908
0.0929247
-11.1527
-6.10658
-6.10658
2.3338
11.1262
-2.89264
0.0183779
2.89264
0.0249788
2.9752
0.0530364
-2.9752
0.0554384
-2.86071
0.0638668
2.86071
0.059056
-2.54909
0.375148
-2.54909
-1.07314
1.07314
-1.23978
0.166635
1.23978
0.236307
1.39867
-0.271
1.39867
0.746699
0.100268
-0.746699
0.0991776
-3.76966
-0.0965208
-3.76966
6.56017
-0.233855
6.56017
-2.96022
-0.113404
2.96022
-0.0610768
-0.0333289
11.1478
-5.13977
0.0338837
5.13977
-11.2095
11.2434
-3.22002
0.670935
3.22002
0.949997
5.28434
0.280183
-5.28434
0.292926
6.77576
0.050804
-6.77576
0.0846899
-2.58702
-0.49262
-2.58702
-5.05284
-0.582722
5.05284
-0.72651
-11.4753
-0.203348
11.6787
-11.4187
6.01822
0.138222
-6.01822
11.3816
-1.02991
-0.0977592
1.02991
0.0432341
1.7257
-0.32703
1.7257
3.67184
-0.192059
-3.67184
-0.0978232
-6.71263
-0.0946996
6.71263
-0.152464
-2.14237
-0.444644
2.14237
-0.416674
-4.2671
4.30516
1.90923
-2.39289
-2.58438
-5.53643
1.85187
1.90141
4.30168
-10.1613
-6.03022
-9.97777
7.26212
-6.96919
-9.24664
9.1605
7.85387
-7.96336
-5.78493
5.83143
6.48278
-6.44189
1.8788
1.87471
7.98524
-7.75887
-15.6179
15.2374
7.50463
-7.47036
15.7734
-15.8093
-17.8553
17.9061
-5.69521
5.80643
-6.73808
6.73265
-6.9717
6.91062
-2.8346
-3.61034
13.1236
-12.9713
8.53882
-8.55996
-8.59775
9.02248
3.38257
0.922584
3.42914
-1.88217
3.76097
-1.87145
3.78068
2.705
-5.53961
2.58267
-5.16705
4.32731
4.21151
-4.27506
-1.26137
-5.92406
5.95235
-5.81511
5.87417
9.1176
-9.1591
-1.88515
3.75986
-1.86882
3.77023
-3.42502
-2.35991
3.3794
0.922275
8.07699
5.04661
-8.26021
-1.71756
-8.02358
7.83152
-8.22282
8.0265
-0.435377
5.81939
-5.38401
4.43279
-1.5618
7.38119
5.70032
5.91752
5.86603
-5.58585
1.10316
-6.48718
-6.39978
-2.34074
2.44746
2.22475
-2.13858
6.11341
1.74046
5.98925
-5.74223
-2.22113
-5.83875
3.82072
2.01072
3.86999
4.07821
2.40457
4.11811
3.03054
-3.03589
0.00535732
-3.05657
6.08711
0.723966
-5.41648
-4.4942
4.96974
3.0155
5.15687
-5.53823
-2.22064
-5.15334
-9.54382
-6.0741
-10.1265
10.0899
5.14754
9.77962
-11.9639
11.8114
4.79001
2.71462
4.82026
-4.9188
-2.55156
-4.85513
11.6412
-2.62174
-9.01941
-10.3225
-7.53273
10.3058
5.46758
10.9659
6.94018
11.0506
4.42504
7.21612
-9.89262
2.35989
-3.86217
-1.83304
-3.78032
3.66246
2.14396
3.79608
-4.21679
-2.52129
-4.19842
-4.29454
-2.67716
4.31399
2.41866
-4.41502
-3.8078
4.52842
2.38219
4.03885
-10.0691
4.32269
-7.93303
-9.20142
-3.76985
-9.07145
3.50115
2.606
-6.10715
-2.03845
8.46687
-4.25536
7.2055
-5.16909
-3.39086
-5.17367
-6.87222
-1.72553
-6.72079
-8.88119
8.38856
-9.17883
8.5352
12.535
-5.65769
-6.87731
-3.9684
-2.4735
3.92084
-0.491697
-3.71058
3.71593
0.0503918
3.83107
4.75365
4.26196
-3.88481
-1.9303
-3.82937
3.82597
2.0482
3.88983
6.82956
2.28804
6.85806
-6.58938
-2.56972
-6.69177
9.04395
-8.64489
2.84807
-2.75273
5.38792
2.63858
-5.17808
-2.84549
6.21429
-3.21641
-2.99789
-12.1995
10.5326
1.66689
-4.81832
-0.385528
-0.365643
-5.48998
-3.75666
5.37227
0.545258
11.0779
7.32122
-5.51171
5.76206
6.16695
6.22357
-0.17621
5.81086
-5.13993
5.26697
-2.5644
-2.70256
5.44954
-5.58658
-1.24223
-5.49679
4.25456
0.402668
1.53732
-1.30509
-1.82546
-0.515286
-1.72628
1.32034
0.904415
1.38909
0.932833
1.51463
-2.95376
0.557347
2.39642
-2.02093
-1.58124
-3.78389
-1.13611
4.92
5.72105
2.11046
-5.62323
-0.21552
2.56838
-2.45787
-0.75502
-3.02887
2.23891
-2.99393
-3.67372
-2.04415
5.71788
-3.36992
-0.459449
3.31689
0.553104
-3.82697
-2.09709
3.78837
0.32974
-3.12744
6.19054
-3.0631
-5.05774
2.52778
3.55933
4.53849
-4.78955
2.4474
2.34215
-1.23022
4.2449
0.911969
4.38059
-6.92563
4.70498
5.79048
3.232
-6.14865
0.995318
-5.93031
8.54115
-7.36999
-1.17115
4.13925
4.4019
7.07592
5.45908
-5.67785
12.7538
-1.2018
-6.16819
7.13211
-3.90011
4.84949
-8.7496
-10.3086
4.14038
-9.15179
10.9301
-1.77828
-3.62498
-8.33893
12.7768
-1.20683
-11.5699
8.57279
-4.24362
-4.32528
8.56889
-6.86536
6.87684
-1.99001
-4.88683
-10.1098
-5.69954
10.2045
1.60695
-9.88975
12.2496
-2.67363
4.10328
0.716983
4.1357
3.28893
-5.47086
2.18193
3.57643
-5.56644
2.08615
-7.55701
-6.7345
12.067
-5.33254
-10.5043
-9.52248
-0.981861
2.53485
9.7148
-9.47504
7.43135
2.04369
3.30149
0.588347
-3.37389
-0.406428
0.240575
4.52778
-4.76835
4.03666
4.19724
3.28698
1.24079
3.8448
2.10755
-3.86977
-0.328642
-4.16247
1.48531
-1.74381
-3.69272
5.17803
-4.06642
0.373697
-2.74768
-3.49959
6.24726
-4.58072
3.03607
3.15447
5.08427
-4.91321
1.41362
-2.39324
-2.51997
2.6528
-4.39661
1.98991
3.18812
4.3721
0.564306
5.87515
6.19189
-8.48115
0.548123
11.2385
-9.52094
2.46727
8.5833
-9.89862
0.376139
-8.69531
0.993167
-5.24853
-5.11399
5.18959
-6.91512
-3.56001
6.20548
0.652588
-6.31468
-0.406105
-6.03582
-2.84536
-6.48047
-3.04538
-6.13346
-8.72323
-1.65205
-7.07118
6.73651
-6.68329
-3.44325
7.4098
1.1254
-7.41106
7.3133
-7.48943
7.1624
0.0953169
3.62062
4.35727
1.88378
-2.3904
4.27418
-5.1153
7.40334
-8.6976
3.5823
4.17831
-6.74803
-4.51929
5.02424
4.01971
5.32304
8.89111
-10.364
1.47287
-10.6636
11.9967
-1.33311
-16.4267
5.76309
-7.5356
2.46164
0.386436
2.5749
0.551619
2.49969
-3.0513
-2.20111
-2.11464
-2.42772
-3.4649
5.89261
1.10589
-3.51746
2.41157
-3.57039
4.67627
-0.194203
-3.32325
5.28311
-2.78343
5.66955
-3.76459
1.90496
3.43087
5.75097
-2.3201
4.3938
-1.75522
1.91659
-4.23669
-1.54831
-2.96321
5.10717
-3.28406
3.65775
-0.338817
3.99657
-4.05794
0.841535
-0.770958
3.42628
3.64973
4.31114
-3.07035
2.92344
-4.67865
-1.31325
-4.11435
-0.926226
-0.266753
-3.71008
3.97684
5.98952
-6.25627
-5.23723
9.5322
-4.29496
7.69612
-5.38399
-2.31213
-4.25523
-4.38967
3.88008
1.93078
9.6269
0.209582
-5.59357
-4.93035
-3.98035
3.12331
2.14366
-1.78494
3.45183
2.15058
-0.613263
0.449895
0.939193
1.78897
-1.33907
0.298734
1.49023
-1.00635
1.77707
0.791315
-1.87733
0.151054
-1.30505
3.54396
1.09137
-1.99578
0.656711
0.989156
-3.55356
5.01592
-2.65633
-2.35959
6.00507
1.14201
-3.79834
4.35478
-3.95211
2.37494
-3.51105
-1.4234
-5.37551
-3.63505
-2.52847
4.94005
-3.36414
5.4746
1.26632
-5.25908
6.5254
-3.71609
1.67194
-3.06865
3.85997
-0.960183
-2.10847
2.89712
2.82076
-3.04993
0.0210669
-0.152814
2.4031
-2.55591
-0.590829
-2.61176
-4.57318
4.90292
-2.10556
4.55296
2.16862
-1.91655
6.46951
1.80928
-3.72583
-3.24847
-3.70792
-1.38368
3.15481
-0.599703
-4.25543
-5.48653
4.16072
0.219874
-7.02402
7.83499
-0.810964
-4.00852
-0.696459
4.83571
-6.05193
0.485483
-3.96578
3.86921
4.78118
5.00105
-11.3539
-0.216006
-6.2064
1.12466
-7.33105
5.52655
-3.54314
7.68352
-10.336
6.89278
-9.21063
6.51237
-0.818685
6.2519
-4.06997
2.76751
-8.46705
-6.8601
5.48173
-2.7671
6.19871
-3.12816
9.32687
-5.80179
5.26851
4.05836
-1.01222
-4.16145
-5.26316
4.25094
0.00534801
4.14104
4.97965
-2.8721
4.65101
2.26688
-4.66012
-2.12972
-6.49462
1.8345
-3.34014
-1.92016
3.75465
3.16411
3.75246
1.23469
-3.34603
7.1845
-8.16636
-1.85196
-3.26203
5.24806
-0.997121
3.39133
-6.65335
-1.8572
4.80439
-0.784103
-4.02028
0.853307
-4.41332
1.66909
-6.08241
5.24603
-5.65213
2.22193
-9.75753
-5.18913
-5.1459
-2.25887
-5.23056
-7.57483
5.31596
-1.81174
5.50156
-8.51328
7.72917
-3.48346
8.79942
-5.42976
-1.05071
5.84643
1.31596
10.1154
0.207736
-4.72702
-1.90789
3.86613
-1.95825
1.21542
-3.50235
0.363784
2.48908
3.51599
-6.74364
-0.0043897
-4.73141
-3.91803
7.93774
5.61416
11.6037
1.23971
9.11992
-1.18218
10.3596
4.14086
4.37717
-2.99494
4.46781
0.981892
4.56419
-0.915414
2.82037
1.65949
1.74598
0.711899
2.3051
1.34463
3.14664
0.0953319
-2.01931
4.62326
-8.60361
-0.97031
-8.031
1.1295
5.71078
-4.58128
2.9791
-0.835436
1.02085
-0.0654823
-1.31644
1.38192
-2.76805
-1.9297
-0.439471
-1.68027
2.33698
1.86369
-1.89751
-0.870536
0.359064
-3.99412
3.15198
-3.13091
-0.310157
6.21524
-2.81791
0.261992
-1.14597
-2.34977
-2.86505
2.714
6.17604
0.293471
3.11294
5.19639
3.09931
0.227202
3.89962
-5.6779
-3.65739
-5.8939
-0.36735
4.46836
1.74955
7.96525
5.8079
4.81078
-1.84257
-10.0089
6.52669
-2.05888
5.19358
-1.1733
-4.90911
5.04036
2.36299
-5.69294
0.0408118
-4.8683
-6.92717
-0.513692
8.24287
-9.60169
8.55098
5.70562
1.36556
-4.40684
-0.739054
4.24021
0.136962
10.4966
-1.1281
-6.73826
7.86636
-4.58268
3.61237
0.764255
2.68757
2.14618
1.31074
-5.42752
-10.0088
-2.03034
-1.52322
-4.38993
0.530068
-2.39376
6.227
-2.61463
3.91487
5.25173
6.27258
-2.13607
-4.12021
6.43103
-2.51616
3.75642
)
;

boundaryField
{
    wall-4
    {
        type            calculated;
        value           uniform 0;
    }
    velocity-inlet-5
    {
        type            calculated;
        value           uniform -3.75095;
    }
    velocity-inlet-6
    {
        type            calculated;
        value           uniform -5.62643;
    }
    pressure-outlet-7
    {
        type            calculated;
        value           nonuniform List<scalar> 8(3.32886 7.7213 4.43342 9.73169 7.43746 5.14623 5.73745 8.97693);
    }
    wall-8
    {
        type            calculated;
        value           uniform 0;
    }
    frontAndBackPlanes
    {
        type            empty;
    }
}


// ************************************************************************* //
