/*--------------------------------*- C++ -*----------------------------------*\
  =========                 |
  \\      /  F ield         | OpenFOAM: The Open Source CFD Toolbox
   \\    /   O peration     | Website:  https://openfoam.org
    \\  /    A nd           | Version:  13
     \\/     M anipulation  |
\*---------------------------------------------------------------------------*/
FoamFile
{
    format      ascii;
    class       volVectorField;
    location    "61";
    object      U;
}
// * * * * * * * * * * * * * * * * * * * * * * * * * * * * * * * * * * * * * //

dimensions      [0 1 -1 0 0 0 0];

internalField   nonuniform List<vector> 
918
(
(0.985161 -0.000506544 0)
(0.00501433 2.96625 0)
(0.00751009 0.887541 0)
(0.979704 0.00214615 0)
(-0.0140066 2.05812 3.31031e-20)
(-0.00704606 2.9488 -2.46542e-18)
(0.818393 1.16102 4.48137e-19)
(0.14441 0.0803002 -1.49504e-20)
(0.999909 -0.000277542 0)
(0.0612092 0.735936 0)
(0.0135991 0.528926 0)
(0.735828 -0.0161673 0)
(0.011091 2.93038 0)
(0.00273722 2.79485 0)
(-0.0177423 3.15007 7.80595e-19)
(-0.0188445 1.91384 8.98122e-21)
(0.280046 0.0441322 1.0176e-18)
(0.188026 1.13743 3.18014e-19)
(0.962733 0.00501797 0)
(0.00837293 0.495198 0)
(-0.0091563 0.107813 -7.03869e-19)
(1.00197 -0.0049762 0)
(1.00022 -0.00978564 0)
(0.975736 -0.006439 0)
(0.59861 0.0123827 0)
(0.0149967 2.64131 0)
(-0.0148554 2.90999 9.07065e-19)
(0.0107479 0.938219 0)
(-0.0147202 1.18164 0)
(0.0119641 0.920176 0)
(-0.0166082 2.59488 0)
(-0.00282138 2.10887 -2.64359e-20)
(-0.00985823 1.89169 0)
(-0.0206116 2.9876 -8.86068e-23)
(-0.0166872 3.00529 1.91611e-18)
(0.00210079 3.00018 0)
(0.871286 -0.00964621 0)
(0.403043 0.933871 1.79418e-19)
(0.80292 1.17562 -5.11178e-19)
(0.954761 1.02024 5.54541e-19)
(0.671969 1.26732 -1.03733e-19)
(0.673261 1.24185 5.97819e-19)
(0.182666 0.135933 1.45855e-20)
(0.161964 0.0582149 0)
(1.15574 0.560977 0)
(0.157298 0.121678 6.6497e-20)
(0.121144 0.0751936 -6.89995e-20)
(0.919888 -0.0074555 0)
(1.00027 0.000160173 0)
(0.999909 0.000338088 0)
(1.00363 -0.00776118 0)
(1.00096 -0.000921001 0)
(1.00017 3.56603e-05 0)
(0.0734435 1.82561 -7.71934e-19)
(0.0277588 0.947214 0)
(0.0975234 0.809958 0)
(0.00875875 0.903032 0)
(0.0357304 0.664229 0)
(0.00664988 2.01129 0)
(-0.000584199 0.815457 0)
(0.0116288 0.546581 0)
(-0.00329795 0.808609 0)
(0.00831257 0.517798 0)
(0.841331 -0.0157444 0)
(0.839191 0.0329685 0)
(0.767082 -0.00902474 0)
(0.803595 0.0388017 0)
(0.702097 -0.00559275 0)
(0.0146876 3.0004 9.13852e-19)
(0.0114986 3.00801 0)
(0.00611654 3.00277 0)
(0.0135361 2.99735 1.03675e-23)
(0.00797297 2.95848 -1.35821e-18)
(0.014491 2.98205 0)
(0.0108454 2.9036 0)
(0.0245699 2.93085 2.07682e-24)
(0.00466227 2.82475 0)
(0.0301939 2.91645 0)
(-0.00508726 2.74533 0)
(0.305504 3.54338 0)
(-0.131614 3.62415 0)
(0.138028 3.24011 -7.26418e-19)
(-0.0133791 2.97797 0)
(-0.0223924 1.98347 0)
(-0.00782705 2.16363 -8.85811e-21)
(-0.0131574 1.92202 2.5941e-21)
(0.356147 0.145459 -3.53317e-19)
(0.308591 0.0262425 -3.43063e-19)
(0.314445 0.151911 -1.05779e-18)
(0.244322 0.0523206 -6.88867e-19)
(0.228822 0.981693 0)
(0.271962 1.28805 -3.68442e-19)
(0.365679 1.22479 6.14621e-19)
(0.987441 0.00856945 0)
(0.94187 0.00583004 0)
(1.0003 0.000580406 0)
(1.00286 0.00930872 0)
(1.00301 0.00846996 -2.74159e-18)
(0.991909 0.00969609 2.07035e-18)
(-0.00702204 0.795405 0)
(0.00781097 0.505285 0)
(-0.0422507 1.00725 0)
(-0.0209656 0.835823 0)
(0.00649968 0.493118 0)
(-0.00387845 0.120052 2.17208e-19)
(0.0787301 0.0889816 0)
(0.993551 -0.00837198 0)
(0.954459 -0.00652958 0)
(0.746288 0.0353209 0)
(0.68072 0.0284978 0)
(0.663561 0.00445142 0)
(0.969869 -0.00754644 0)
(0.597349 0.0735029 0)
(0.447207 -0.0118037 1.53787e-18)
(-0.037315 2.86209 6.69877e-19)
(0.0414124 2.90974 0)
(0.0534423 2.88609 0)
(-0.00419907 2.70023 0)
(-0.0133457 2.98517 8.58679e-19)
(-0.017862 2.89506 0)
(-0.0153876 2.98808 -2.66291e-18)
(-0.013336 2.92518 9.11533e-19)
(-0.0236316 1.34351 0)
(-0.00113015 1.37219 0)
(-0.00796371 2.12845 5.00287e-22)
(-0.00708912 2.0902 0)
(-0.0209459 1.90019 0)
(0.938537 -0.00741575 0)
(0.857386 -0.00996074 0)
(0.86327 0.00573307 0)
(0.949558 -0.00783581 0)
(0.884019 -0.00818421 0)
(0.514562 1.12691 -2.26616e-19)
(0.563722 1.178 0)
(0.367645 0.878814 3.35322e-20)
(0.310216 0.737514 0)
(0.915026 1.05841 -1.52813e-19)
(1.0321 0.867399 3.09632e-19)
(0.358937 1.35094 0)
(0.524475 1.32332 0)
(0.547363 1.26147 0)
(0.12073 0.184822 -3.01911e-19)
(0.205704 0.1345 0)
(0.189751 0.0726887 1.92224e-19)
(1.00321 0.922087 0)
(1.07658 0.776045 0)
(1.10164 0.717496 -2.45113e-19)
(1.13515 0.62049 0)
(1.18597 0.404548 5.6947e-20)
(0.957736 -0.00871579 0)
(0.9625 -0.0100421 0)
(0.90173 -0.00797893 0)
(0.9842 -0.00914878 0)
(0.974705 -0.00933748 0)
(0.937129 -0.00637129 0)
(1.00019 0.00233917 0)
(1.0009 0.0014132 0)
(0.99991 0.000854586 0)
(0.0353839 2.0739 4.2789e-19)
(0.118982 1.76854 0)
(0.0177982 2.18803 6.57308e-19)
(0.0462458 1.87945 -5.4808e-19)
(0.105134 1.14452 -2.60499e-19)
(0.0470526 1.02524 0)
(0.142619 0.972912 0)
(0.00207061 0.863938 0)
(0.0161593 0.611999 0)
(-0.00133994 2.24161 -8.32692e-22)
(0.015836 2.0161 0)
(-0.00216648 2.24352 -3.03023e-20)
(0.00824404 2.02011 4.74876e-20)
(0.00035793 0.840224 0)
(0.000661903 0.823992 0)
(0.00939162 0.575543 0)
(-0.00290212 0.800015 0)
(0.00142969 0.509567 0)
(0.938144 0.00971967 0)
(0.84977 -0.0147103 0)
(0.927394 0.000371917 0)
(0.842321 -0.0129238 0)
(0.812236 -0.00155771 0)
(0.899185 0.0218858 0)
(0.872731 0.0275535 0)
(0.788658 -0.00517765 0)
(0.00578712 3.06494 -8.51784e-21)
(0.0166929 3.05769 0)
(0.0147071 2.96903 0)
(0.00872076 2.87621 0)
(0.921184 3.95624 0)
(1.23473 3.28966 9.27584e-19)
(0.0693429 3.07016 0)
(-0.0290026 2.90262 0)
(-0.00899643 1.39338 0)
(-0.0262227 1.69418 0)
(-0.0147902 1.5291 0)
(-0.0290792 2.55551 -1.1849e-20)
(-0.0134758 2.24672 0)
(-0.018829 2.39332 0)
(-5.77883e-05 1.94787 7.19841e-22)
(-0.00410961 2.23695 -6.10326e-21)
(-0.00620826 2.19892 -2.78425e-21)
(-0.00757152 1.93355 0)
(0.407187 0.125829 5.3887e-19)
(0.356778 0.0150211 -5.28807e-19)
(0.259051 1.58514 0)
(0.277019 0.754759 -3.15527e-19)
(0.17715 1.67238 -1.04854e-18)
(0.226093 1.21885 1.05086e-18)
(0.902034 0.00637912 0)
(0.967405 0.0111221 0)
(0.97455 0.0108084 0)
(0.923312 0.00641901 0)
(-0.00773314 0.795488 0)
(-0.00896485 0.794385 0)
(0.00555529 0.500773 0)
(0.139809 0.110363 6.15696e-19)
(0.120522 0.0999525 -7.26916e-19)
(0.101054 0.0760978 0)
(1.09741 0.085782 2.71053e-20)
(1.07953 0.0391927 0)
(1.01214 0.0397931 0)
(0.906479 -0.00570005 0)
(0.456959 0.105438 0)
(0.516288 0.0867978 -2.45723e-18)
(0.40139 0.010335 9.18863e-19)
(0.00878414 2.98123 7.20412e-19)
(-0.032244 2.86573 4.79313e-20)
(0.00358279 3.05027 -1.8035e-20)
(0.0202091 3.04334 6.41164e-19)
(-0.0150073 2.99658 2.99355e-20)
(-0.0129276 2.94945 -1.20472e-22)
(-0.0172585 3.01195 -5.54095e-19)
(0.0148499 3.02385 4.01165e-19)
(0.00737359 3.03682 -6.35136e-19)
(0.933873 -0.00124895 0)
(0.939385 -0.00323149 0)
(0.845835 -0.0094586 0)
(0.956539 0.0119032 0)
(0.942676 0.0132389 0)
(0.881589 0.00586581 0)
(0.916819 0.0173794 0)
(0.925869 0.015058 0)
(0.838511 0.00229486 0)
(0.717073 1.40426 4.15109e-20)
(0.750395 1.51297 0)
(0.181952 0.316029 7.05196e-20)
(0.227932 0.668573 5.67859e-19)
(0.262319 0.720734 -3.31668e-19)
(0.263505 0.522581 6.5979e-19)
(0.345554 0.810172 1.58909e-18)
(0.140064 0.229812 3.75273e-19)
(0.273753 0.154305 7.29588e-19)
(0.237439 0.149252 1.89232e-19)
(0.214912 0.0638438 3.59079e-19)
(1.1751 0.462664 6.11094e-20)
(1.19107 0.256093 5.6464e-20)
(0.00990847 2.23656 2.53135e-19)
(0.0404477 1.94707 0)
(0.970046 0.0292068 0)
(0.942926 0.0138027 0)
(0.86849 -0.0179784 0)
(0.0112551 3.07417 0)
(0.0196764 2.94416 1.17401e-18)
(0.0164218 2.95626 0)
(0.00644772 2.85052 -1.16439e-18)
(0.00640123 3.09164 2.84807e-19)
(0.00713676 3.08251 0)
(0.78325 1.81456 -1.59443e-19)
(1.24259 2.49036 4.05625e-19)
(0.765234 1.95392 -1.23184e-18)
(0.0196 2.9805 -6.20162e-19)
(0.0352143 2.99931 0)
(-0.034624 2.87648 0)
(-0.00429069 2.22256 -1.30807e-20)
(-0.00356888 2.24341 8.77553e-21)
(0.00206041 1.9816 -7.25347e-21)
(0.278127 1.39407 1.02456e-18)
(0.23788 0.548591 -7.02547e-19)
(0.0637179 1.99849 7.6269e-19)
(0.135377 1.88465 -9.10309e-19)
(0.180318 1.51088 9.49084e-20)
(0.00477095 3.11795 -1.6504e-18)
(0.0151871 3.11832 1.77535e-18)
(-0.00926081 2.98057 7.90959e-19)
(-0.00361649 2.97717 -7.48302e-19)
(-0.02138 2.8811 -8.05572e-19)
(0.00859763 3.09862 -2.11554e-18)
(0.00180547 3.10682 2.08351e-18)
(0.281608 0.69485 0)
(0.248266 0.684101 -1.17988e-18)
(0.0958814 0.225334 5.23905e-19)
(0.357249 0.936959 1.1117e-18)
(0.195147 0.275619 -1.71395e-18)
(1.18334 0.17441 6.33749e-20)
(1.19156 0.310624 0)
(1.17171 0.122293 -7.08572e-21)
(0.00110879 2.25399 -1.47651e-21)
(0.0045128 2.24583 0)
(0.0246785 1.98224 0)
(0.34012 1.3029 -3.67951e-19)
(0.37435 1.14886 -7.99532e-19)
(0.209704 0.377244 1.42533e-18)
(1.00588 -0.0108342 0)
(1.00767 -0.00763702 5.05779e-19)
(-0.0208188 1.32414 0)
(-0.0360889 1.32196 0)
(1.00221 0.00351171 1.80966e-21)
(1.00366 0.00946547 1.03265e-18)
(-0.0198373 2.53981 1.50198e-20)
(-0.0244102 2.58215 0)
(0.0345328 3.17719 4.0921e-19)
(0.391073 3.48485 0)
(1.17251 0.661363 -5.8491e-20)
(1.01286 0.0131308 -2.13908e-21)
(1.02133 -0.0103041 0)
(1.0017 0.000126782 7.81166e-23)
(0.108746 1.36562 0)
(0.144195 2.57148 0)
(0.0246011 1.3076 0)
(-0.000710282 2.6234 2.86521e-20)
(-0.0216842 2.58027 4.78011e-21)
(0.998945 0.0269232 1.81614e-21)
(1.06295 0.00457125 0)
(1.0973 0.0249271 0)
(-0.0278758 1.73643 0)
(-0.018668 2.58181 0)
(-0.00468191 1.30813 0)
(0.312727 1.47926 -1.69341e-19)
(1.0113 -0.00962147 0)
(1.0094 -0.0149185 0)
(1.00237 0.000749835 6.46387e-19)
(1.00547 -0.00480312 -7.59694e-19)
(1.00118 -0.00097378 0)
(-0.0131762 1.46007 0)
(-0.00661463 1.37212 0)
(-0.00575078 1.41762 0)
(-0.00833754 1.2961 0)
(-0.0166469 1.28382 0)
(-0.00875293 1.26531 0)
(1.03498 -0.00608254 0)
(1.0198 0.0156209 -8.42189e-22)
(0.820341 1.27316 2.59674e-19)
(1.00223 0.000316469 -6.43799e-19)
(1.00406 0.00525796 7.53817e-19)
(1.00118 0.00207315 0)
(1.01274 0.0103511 6.40767e-19)
(1.00799 0.00830998 -7.76399e-19)
(1.00856 0.0146942 0)
(-0.0237731 2.60982 0)
(-0.0256662 2.58953 -1.95917e-20)
(-0.023228 2.60337 1.39015e-20)
(1.23632 0.266683 5.82398e-19)
(1.16154 0.0866489 0)
(0.0411154 3.07825 -9.14415e-19)
(0.0646943 2.85652 -6.65801e-20)
(0.138901 3.19252 1.39696e-18)
(0.134428 3.22011 -1.98112e-19)
(0.133591 3.2312 0)
(0.0190311 3.13722 2.36091e-19)
(0.0744922 3.16031 9.01892e-19)
(0.0675073 3.18524 -4.45082e-19)
(0.0217318 3.13002 0)
(0.597195 0.279402 0)
(0.523945 0.303065 0)
(1.14341 0.697419 1.34057e-19)
(1.13781 0.818855 -1.19057e-19)
(1.20042 0.584161 0)
(1.22847 0.518938 0)
(1.01606 0.0133662 -1.19439e-18)
(1.01498 0.0142774 1.4993e-18)
(1.02536 -0.00982376 0)
(1.02343 -0.0118632 0)
(1.00642 0.00261721 0)
(1.01041 0.00373269 0)
(1.00458 0.00185932 0)
(1.00979 0.00624131 0)
(1.00781 0.00596272 0)
(1.00451 0.00471213 0)
(0.0976009 1.36359 0)
(0.092224 1.32826 0)
(0.131106 1.40259 0)
(0.148313 1.40663 0)
(0.14577 2.59639 0)
(0.185596 2.66615 -4.23406e-19)
(0.101534 2.65204 0)
(0.0852194 2.65486 1.97653e-19)
(0.0384069 2.67776 -1.48624e-19)
(0.0166961 1.31908 0)
(0.0221669 1.24438 0)
(0.019419 1.32915 0)
(0.0336211 1.26717 0)
(0.00293341 1.98413 2.33912e-21)
(-0.0206004 2.60807 -1.74413e-20)
(-0.00902646 2.66484 1.4322e-20)
(-0.0187124 2.68356 0)
(-0.0233508 2.61388 -7.48822e-21)
(-0.0232638 2.60874 1.12065e-20)
(0.0118274 1.98264 9.85385e-22)
(-0.007626 2.39622 2.34006e-20)
(-0.0136821 2.41818 -1.62427e-20)
(1.00896 0.0383461 1.21045e-18)
(1.0053 0.0164369 -1.50901e-18)
(1.00278 0.0459388 -1.23307e-18)
(0.976527 0.0326119 1.55109e-18)
(1.06418 0.00837325 0)
(1.04932 -0.00829002 0)
(1.0943 0.0350698 0)
(1.07428 0.0129058 0)
(1.07209 0.000498693 0)
(1.14025 0.0828901 0)
(1.11169 0.0444819 0)
(1.11536 0.0323755 0)
(-0.0251654 2.43208 1.35572e-21)
(-0.0132197 2.01272 0)
(-0.0151235 2.21613 0)
(-0.0205869 2.6025 -1.05926e-20)
(-0.017703 2.61235 1.72751e-22)
(0.00330742 1.57108 -3.50258e-20)
(-0.00493343 1.4995 3.56813e-20)
(-0.0144488 1.38875 0)
(-0.0179324 1.39537 0)
(-0.02256 1.38998 0)
(-0.00316429 1.30914 0)
(0.00804231 1.23643 0)
(0.3873 1.49685 2.75708e-19)
(0.430259 1.49766 1.45072e-19)
(0.597674 2.44552 -2.40143e-19)
(0.398861 2.54275 7.06841e-19)
(0.350373 2.05512 7.12596e-20)
(1.02106 -0.00812104 0)
(1.0155 -0.00975141 0)
(1.01492 -0.0155042 0)
(1.00741 -0.00108726 0)
(1.00493 -0.000913639 0)
(1.00778 -0.00469635 0)
(1.00927 -0.00362006 0)
(1.01422 -0.00438324 0)
(1.02055 0.0163058 1.17003e-18)
(1.0177 0.0155621 -1.4964e-18)
(1.02084 0.0183157 -1.17888e-18)
(1.01845 0.0163613 1.47868e-18)
(0.783928 1.32423 0)
(0.720687 1.37419 2.46184e-19)
(0.895125 1.22351 9.69471e-20)
(0.940774 1.16832 -1.28979e-19)
(1.15484 2.60054 2.75577e-19)
(0.771796 0.122162 5.98639e-19)
(1.16332 0.108588 0)
(1.21187 0.193999 -4.6856e-19)
(1.19886 0.155022 -1.99216e-20)
(1.00637 0.156152 0)
(0.130168 2.95895 5.32014e-19)
(0.106689 2.86521 -1.1585e-18)
(0.0156138 2.37399 7.75324e-19)
(0.0937455 -0.136155 -3.33901e-19)
(0.336146 3.41485 -2.15175e-19)
(0.191599 3.30927 0)
(0.235008 3.34998 2.80235e-19)
(0.240448 3.03145 -1.77654e-18)
(0.333647 3.18956 0)
(0.00562462 3.1211 4.61163e-20)
(0.0163315 3.12963 -5.42581e-19)
(0.0142721 3.12572 7.98568e-19)
(0.0343745 3.13995 0)
(0.0326946 3.15027 0)
(1.21095 2.5983 0)
(0.544045 0.809218 -5.28039e-19)
(1.0642 0.992165 -7.08365e-21)
(0.998519 1.07727 0)
(0.851662 0.973494 -1.10192e-19)
(1.08909 0.8933 2.80398e-20)
(0.320432 0.344221 -8.62645e-19)
(0.663105 0.321543 -1.76593e-20)
(0.577396 0.222167 4.0954e-19)
(0.550674 0.339858 3.02013e-20)
(0.44353 0.28416 -1.21378e-18)
(0.625391 0.323816 0)
(0.705744 0.420551 6.9819e-19)
(0.710479 0.423403 0)
(0.588211 0.339368 0)
(0.524887 0.248434 0)
(0.821769 0.621803 4.12618e-19)
(1.23731 0.288948 -4.90482e-19)
(1.23698 0.427264 0)
(1.24558 0.368086 0)
(0.695955 0.195301 6.19596e-19)
(0.869899 0.550632 -3.78642e-19)
(0.767107 0.52096 6.7294e-19)
(0.96115 0.443193 -7.39297e-19)
(1.01927 0.0149299 8.02383e-19)
(1.01761 0.0143368 -8.07663e-19)
(1.0159 0.0154023 0)
(1.03645 -0.00562254 0)
(1.02988 -0.00839069 -7.56491e-19)
(1.02792 -0.0119724 7.48969e-19)
(1.02487 0.0104416 0)
(1.02339 0.0141742 0)
(1.01142 0.00414669 0)
(1.01421 0.00913797 0)
(1.01515 0.00415022 0)
(1.01426 0.00287743 0)
(0.0647027 1.34667 0)
(0.0687238 1.2954 0)
(0.146936 1.38512 1.26447e-20)
(0.282881 1.47765 9.09289e-20)
(0.177336 1.4489 1.91988e-19)
(0.210502 1.45367 -3.1254e-19)
(0.173032 1.40959 0)
(0.136955 1.60025 -7.08129e-20)
(0.119382 1.57821 0)
(0.347234 2.00534 -1.03611e-19)
(0.342822 2.34067 6.14585e-19)
(0.194307 1.46319 6.17239e-20)
(0.268718 1.39584 2.40489e-20)
(0.20303 1.38765 -1.94545e-20)
(0.279171 1.33891 -1.01887e-19)
(0.244192 1.58071 0)
(0.267994 1.6179 1.11415e-19)
(0.0309616 2.26253 -2.85638e-20)
(0.0434518 2.66701 0)
(0.0665895 2.3988 1.33708e-19)
(0.0631536 2.41967 0)
(0.0694905 2.66853 -2.19037e-19)
(0.048962 2.69702 0)
(0.0263439 1.42914 3.08608e-20)
(0.0340404 1.48122 0)
(0.028291 1.39691 0)
(0.0231115 1.40105 -3.48221e-20)
(-3.90444e-05 2.65109 -1.72877e-20)
(0.0293355 2.69636 1.668e-19)
(0.00990143 2.72122 1.17734e-21)
(0.0028279 1.83457 -1.75594e-21)
(-0.00287431 1.68731 -2.79395e-21)
(0.0139045 1.2995 0)
(0.0211907 1.22181 0)
(0.046629 1.58963 -2.73484e-20)
(0.0298796 1.46291 -3.32305e-20)
(0.0361988 1.52773 4.16375e-20)
(0.039935 1.61387 0)
(-0.0295442 2.27044 9.53609e-20)
(-0.0306142 2.54946 -4.01927e-20)
(-0.0162356 2.4469 3.81183e-21)
(-0.00357982 1.85086 2.12751e-21)
(-0.0254081 2.49888 1.56252e-21)
(-0.0206752 2.44234 2.33301e-21)
(1.01866 0.0212131 -8.03235e-19)
(1.01421 0.0275369 8.02243e-19)
(1.01347 0.0173567 0)
(1.0114 0.0712619 1.12457e-18)
(0.991578 0.058581 -1.26216e-18)
(0.950209 0.0543596 1.41055e-18)
(1.01396 0.112524 -1.50245e-19)
(1.04287 -0.00562243 0)
(1.05124 -0.00126596 7.21462e-19)
(1.03914 -0.00979107 -7.22958e-19)
(1.07165 0.0427138 -4.29007e-20)
(1.06482 0.0240364 3.69941e-19)
(1.06343 0.056836 0)
(1.05372 0.0502534 -1.33051e-19)
(1.03258 0.0432921 0)
(1.02559 0.0397807 0)
(1.02783 0.0135313 0)
(1.02383 0.0161749 0)
(1.04019 0.0327704 2.7409e-19)
(1.03912 0.0277662 -6.06093e-19)
(1.05114 0.0344683 -2.90428e-19)
(1.04829 0.0345019 -3.19965e-19)
(1.07146 0.0651174 6.23942e-19)
(1.09692 0.0527653 0)
(1.10573 0.0968324 0)
(-0.0249779 2.27562 5.40922e-20)
(-0.0235044 2.01792 9.34235e-22)
(-0.0196297 2.02531 0)
(-0.0272199 2.44508 -5.3848e-20)
(-0.0221186 2.40119 -2.22508e-21)
(-0.0326032 2.47285 5.68345e-21)
(-0.0207352 2.62133 -1.01356e-20)
(-0.023176 2.56307 -2.04777e-23)
(-0.0213191 2.51463 -2.64797e-21)
(-0.0159487 2.61533 9.41078e-21)
(-0.0208422 2.61723 -9.95706e-21)
(-0.00533917 1.49211 -5.27169e-22)
(0.00401666 1.61971 -3.27735e-20)
(0.372558 1.44496 -1.16785e-19)
(0.372021 1.38138 3.51477e-20)
(0.661409 1.42461 -2.38105e-19)
(0.52928 1.49076 -1.42723e-19)
(0.587558 1.45689 0)
(0.593507 2.42245 2.06878e-19)
(0.661785 2.41758 3.37443e-19)
(0.411424 2.5123 8.76856e-20)
(0.402853 2.53679 -6.09215e-19)
(0.510595 2.47814 6.13256e-19)
(0.55336 2.4593 0)
(0.488336 2.5169 -5.59231e-19)
(0.248746 2.58965 1.14345e-18)
(0.354977 2.56156 -7.76913e-20)
(0.284256 2.65133 -1.58615e-18)
(0.947976 2.37528 7.26063e-19)
(0.838246 2.38048 0)
(1.01106 0.000517281 2.62194e-20)
(1.01534 -0.00538687 -2.12707e-20)
(1.01767 -0.00349911 -3.88494e-19)
(1.01502 -0.000858783 3.90552e-19)
(1.01244 0.00123384 0)
(0.646952 1.28932 0)
(0.66902 1.18395 0)
(0.782609 1.10307 0)
(0.661952 1.1472 0)
(1.18488 2.61412 5.97838e-20)
(1.07297 2.36124 0)
(0.834706 2.16709 3.81697e-21)
(0.8241 2.43216 0)
(0.92201 2.52568 -4.21083e-19)
(0.957238 2.4818 2.80118e-19)
(0.799688 0.181494 0)
(0.746197 0.154713 1.62544e-19)
(0.910527 0.151299 9.4599e-19)
(0.826187 0.155205 -3.54793e-19)
(0.782551 0.0906412 -1.09213e-18)
(1.08188 0.240042 -8.92071e-19)
(0.999259 0.301941 -1.7176e-20)
(0.929508 0.305331 8.60488e-19)
(1.00787 0.23255 7.20754e-19)
(0.949345 0.197333 -1.2524e-18)
(0.912603 0.201738 1.5662e-19)
(0.951594 0.267214 -3.32282e-19)
(0.928006 0.228519 0)
(0.995566 0.193524 6.17598e-19)
(1.04724 0.193253 0)
(1.04475 0.22133 0)
(1.1072 0.120777 2.89652e-19)
(1.07132 0.180224 -1.49563e-20)
(1.07553 0.240224 -1.5766e-19)
(1.10179 0.20642 0)
(1.02332 0.0469347 6.16791e-19)
(1.03931 0.0602116 7.70896e-19)
(1.03444 0.046133 -6.11906e-19)
(1.04328 0.0675777 -5.1668e-19)
(1.02127 0.0757659 -7.91955e-19)
(0.986571 0.160338 0)
(0.992631 0.106239 0)
(0.964585 0.0718594 -5.01347e-19)
(0.906209 0.097434 1.99158e-19)
(1.03972 0.107496 7.15298e-19)
(1.06955 0.124325 -8.35482e-19)
(1.07596 0.15666 7.46082e-19)
(1.03072 0.149215 0)
(1.07532 0.111837 0)
(1.05491 0.0930193 -3.42401e-19)
(1.04341 0.0968871 -5.84347e-19)
(0.578747 1.0576 1.38932e-19)
(0.605281 1.38452 -4.04835e-20)
(1.15472 2.73007 -2.25851e-19)
(1.22056 3.07226 1.55222e-21)
(1.2466 2.71301 -1.21113e-19)
(1.2753 2.69635 -3.32617e-20)
(1.20281 2.33668 -1.0987e-20)
(1.20817 2.97613 -9.19874e-20)
(1.2282 2.94157 2.32194e-19)
(1.21084 3.22521 -1.4368e-19)
(1.37066 2.95621 1.98559e-19)
(1.35958 2.87432 0)
(0.560123 0.817814 -5.01387e-20)
(0.113862 1.23004 5.69038e-19)
(0.552586 0.371762 5.62685e-19)
(0.390786 0.118848 6.13195e-19)
(0.485162 0.324503 6.87123e-19)
(0.543116 0.440127 -1.10788e-18)
(0.545366 0.437019 9.06514e-19)
(0.469962 0.329653 -3.44268e-19)
(0.354812 0.258802 7.81095e-19)
(0.71678 0.267394 -3.57574e-19)
(0.677411 0.291054 0)
(0.626161 0.208166 7.1075e-21)
(0.740257 0.505617 3.67637e-19)
(0.7161 0.476437 -1.33781e-18)
(0.620133 0.448636 1.19943e-20)
(0.620198 0.438407 0)
(0.689385 0.719438 3.97068e-19)
(0.850367 0.777639 3.96104e-19)
(0.774468 0.860811 -4.63471e-19)
(0.897086 0.8155 -1.55231e-19)
(0.928615 0.860512 -3.75644e-20)
(0.935688 0.860431 3.84681e-20)
(0.863407 0.656924 -6.83251e-19)
(0.943639 0.71089 1.44164e-19)
(1.00348 0.726736 0)
(0.994356 0.703381 -1.9497e-19)
(1.02872 0.341953 2.1278e-19)
(1.14849 0.304907 2.8852e-19)
(1.06959 0.277239 3.64664e-19)
(1.01754 0.374259 -4.31489e-19)
(1.06613 0.436753 0)
(1.12194 0.420064 0)
(0.923694 0.377466 2.15136e-21)
(0.841198 0.31321 0)
(0.884979 0.309259 4.06411e-19)
(0.911047 0.313571 -7.49313e-21)
(0.954959 0.446311 2.0595e-18)
(0.915209 0.501513 5.30721e-19)
(0.920791 0.46863 -5.65374e-19)
(0.838058 0.454115 6.06168e-19)
(0.821375 0.446444 3.63452e-19)
(0.791336 0.428735 -3.57531e-19)
(1.02737 -0.000240976 6.47132e-19)
(1.01999 5.92103e-05 0)
(1.01852 0.000986897 4.21966e-19)
(1.02173 -0.00155583 -9.55866e-19)
(1.02235 0.00447752 4.64358e-19)
(1.02032 0.0114914 -9.72402e-19)
(1.02123 0.0108582 0)
(1.02048 0.0110749 -2.02672e-19)
(1.01594 0.00783084 5.08452e-19)
(1.01661 0.010611 -2.53708e-19)
(1.01731 0.00996122 1.8684e-19)
(0.0272533 1.32095 0)
(0.0336787 1.37058 0)
(0.0432299 1.32242 0)
(0.0474809 1.27334 0)
(0.0719075 1.39528 -5.22939e-20)
(0.0788267 1.36332 2.2818e-20)
(0.117874 1.53972 -1.2078e-20)
(0.101262 1.38645 -7.8207e-21)
(0.035144 1.46864 1.62049e-20)
(0.0391787 1.46242 -1.23672e-20)
(0.0630698 1.38026 -9.15216e-21)
(0.0546047 1.38128 4.55135e-20)
(0.0474039 1.35593 6.67445e-21)
(0.0385392 1.37856 3.44412e-21)
(0.10796 2.36776 -1.47575e-19)
(0.0969026 2.41551 0)
(0.171737 2.04251 1.07276e-19)
(0.114154 1.7091 3.81899e-20)
(0.234473 2.03697 -8.93887e-20)
(0.201511 2.42808 0)
(0.26338 2.37797 -6.04424e-19)
(0.30359 2.37559 4.27237e-19)
(0.230879 1.99786 -2.47746e-19)
(0.156244 2.15689 1.69169e-19)
(0.142388 2.2642 0)
(0.0182508 1.87949 6.53573e-21)
(-0.000318806 2.39289 -3.41978e-20)
(0.00580466 2.14984 0)
(0.0112314 2.45568 -1.36026e-20)
(0.0282592 2.29938 8.39903e-21)
(0.0155295 1.40942 -6.49912e-21)
(0.0143341 1.3934 1.09866e-19)
(0.0138089 1.39918 -3.59473e-20)
(0.0207267 1.40164 -3.09651e-20)
(0.0250536 1.43286 0)
(0.00989987 1.381 0)
(0.00198691 1.29459 -4.39593e-20)
(0.00617309 1.37253 1.23288e-20)
(0.00944352 1.37276 0)
(0.00865411 1.28781 -3.31701e-20)
(0.0179097 1.21289 6.72776e-20)
(1.04077 0.0120232 0)
(1.04694 0.00826208 -6.76896e-20)
(1.03864 0.022103 -4.88638e-19)
(1.0484 0.020973 0)
(1.05241 0.020866 0)
(1.03632 0.0122226 -6.82136e-21)
(1.03096 0.0120414 7.85375e-19)
(1.03167 0.0169995 9.52088e-19)
(1.02544 0.0208837 0)
(1.0222 0.0212417 0)
(1.03513 0.025886 4.87346e-19)
(1.02548 0.0275202 0)
(1.02354 0.027654 0)
(-0.0185007 2.02237 0)
(0.00113024 1.65023 -4.31628e-21)
(-0.0044972 1.75847 -3.03423e-20)
(6.4017e-06 1.38256 0)
(-0.00674544 1.55057 -1.73211e-20)
(-0.00804338 1.45997 1.11833e-20)
(-0.00348174 1.39583 0)
(0.389655 1.64667 0)
(0.374822 1.30852 -6.96072e-20)
(0.302137 1.34268 0)
(0.427441 1.30628 4.66551e-21)
(0.477039 1.46818 0)
(0.457541 1.4134 2.59123e-20)
(1.03656 2.67627 -1.5348e-20)
(0.968479 2.40407 -9.12563e-19)
(0.921486 2.1921 1.02394e-18)
(0.852243 2.37237 2.41888e-19)
(0.847954 2.48608 0)
(0.917756 2.48223 0)
(0.931319 2.36884 0)
(0.910257 2.35797 -9.43591e-19)
(0.68739 2.45032 -3.93853e-19)
(0.800399 2.43986 -9.75444e-20)
(0.810731 2.41395 7.41303e-20)
(0.695725 2.39072 0)
(0.800872 2.38593 0)
(0.759078 2.39936 -3.68494e-19)
(0.767919 2.47597 0)
(0.627673 1.09362 0)
(0.480551 0.903487 -5.08678e-19)
(0.564547 0.94615 -3.22233e-20)
(0.519115 1.03632 0)
(0.519466 0.980518 7.62111e-19)
(0.795184 0.883804 -1.30188e-19)
(0.806029 1.02043 0)
(0.780943 0.986841 1.86162e-19)
(0.663677 1.0338 0)
(0.665425 0.936138 0)
(1.16373 2.75293 -2.29003e-19)
(1.14116 2.81629 -9.64722e-20)
(0.929353 2.33123 9.92693e-20)
(0.897206 2.31051 -8.29896e-20)
(1.12928 2.72589 0)
(1.0831 2.69537 9.98457e-20)
(1.08926 2.47924 -3.13311e-19)
(0.983761 2.23196 -3.04161e-20)
(0.492832 1.33262 0)
(0.508154 1.06211 -1.22459e-19)
(0.575397 1.16747 0)
(0.854831 0.247108 0)
(0.764618 0.196435 0)
(0.681834 0.155506 0)
(0.845673 0.24896 -6.39697e-19)
(0.737957 0.239599 3.73008e-19)
(0.922886 0.0877971 -4.10932e-19)
(0.929934 0.131683 0)
(0.916303 0.140707 1.77167e-19)
(0.851966 0.118688 7.08852e-19)
(0.816206 0.0789585 -4.44555e-19)
(1.15633 3.35024 -7.19852e-19)
(1.20519 3.2697 0)
(1.15397 3.3791 -1.49012e-18)
(0.642176 3.54051 1.26461e-18)
(0.864337 3.10911 7.34133e-20)
(0.520861 0.807388 6.0358e-19)
(0.424886 0.804153 0)
(0.312261 0.402991 -1.49271e-19)
(0.469264 0.655054 8.56969e-19)
(0.555463 0.374756 -1.97762e-19)
(0.513375 0.471146 2.32039e-19)
(0.672009 0.513693 4.96277e-19)
(0.709686 0.549386 0)
(0.660228 0.58077 0)
(0.623332 0.529992 0)
(1.00512 0.613108 8.95507e-20)
(0.920141 0.551311 -5.16678e-19)
(0.945364 0.583319 3.89611e-19)
(0.976836 0.522862 -3.99585e-19)
(1.08414 0.493153 0)
(1.09265 0.583441 -9.75995e-20)
(0.858455 0.407129 -8.32476e-19)
(0.858005 0.396451 -1.03245e-18)
(0.794768 0.391167 6.48858e-19)
(0.804092 0.368297 -6.59454e-19)
(0.846314 0.331748 -5.20437e-19)
(0.794929 0.333095 6.3702e-19)
(1.02667 0.00604345 -4.93365e-19)
(1.02637 0.00626582 1.00318e-18)
(1.02943 0.000203162 6.27112e-19)
(1.03365 0.00111385 -7.55241e-19)
(1.03378 0.00924284 0)
(1.03004 0.00994098 -1.22984e-18)
(0.0639986 1.64461 1.94083e-20)
(0.0486464 1.58827 0)
(0.0891187 1.69481 1.16664e-19)
(0.0989925 1.67667 -1.02292e-19)
(0.0919007 1.54709 2.26325e-20)
(0.0914546 1.54197 0)
(0.0109762 1.68342 0)
(-0.00373617 1.48994 6.59049e-21)
(-0.00196701 1.43579 -5.92722e-21)
(-0.00725492 1.54719 5.42468e-21)
(0.00162481 1.88307 9.87232e-21)
(-0.0103323 1.93612 -1.26478e-21)
(0.49722 1.35907 -2.74235e-19)
(0.490736 1.35998 3.01246e-19)
(0.4541 1.30155 -3.00723e-20)
(0.437151 1.28591 7.70311e-21)
(0.639127 1.30719 0)
(0.555548 1.397 1.05892e-19)
(0.570646 1.40462 -1.03079e-19)
(0.467826 1.28992 2.92885e-20)
(0.521353 1.24068 0)
(0.572945 1.20317 0)
(0.654389 2.40994 5.78572e-19)
(0.669859 2.45127 1.25928e-18)
(0.714316 2.46198 -8.67643e-19)
(0.610578 2.43606 -2.01784e-19)
(0.560444 2.52634 2.83382e-19)
(0.509627 2.50105 -7.56031e-19)
(0.978277 2.37546 -5.72978e-19)
(1.0126 2.38768 0)
(0.925795 2.17007 -6.58977e-19)
(1.05402 2.6744 0)
(1.0563 2.661 0)
(0.600635 2.25967 -1.23167e-19)
(1.03747 3.15493 1.31702e-19)
(0.908519 3.02536 -3.55213e-20)
(0.266667 0.857315 0)
(0.295049 0.703231 -3.16775e-19)
(0.463912 0.6623 -3.17981e-19)
(0.380327 2.00437 0)
(0.462566 2.77965 -5.11029e-20)
(0.416654 2.54226 0)
(0.711473 0.669243 -8.39346e-19)
(0.794857 0.683125 1.12767e-18)
(0.816119 0.625343 -1.11429e-18)
(0.690031 0.632544 -1.07827e-19)
(0.744768 0.589068 -4.42701e-19)
(1.00103 2.75463 -1.00161e-19)
(1.04137 2.81519 -1.62674e-19)
(0.633021 2.12551 6.8901e-19)
(0.585915 1.69329 -4.91033e-19)
(0.694473 1.89142 -4.04277e-19)
(0.987069 2.43832 -1.12917e-19)
(0.99381 2.43146 2.94249e-19)
(0.651231 1.82603 2.80797e-20)
(0.442268 1.31348 1.4344e-19)
)
;

boundaryField
{
    wall-4
    {
        type            noSlip;
    }
    velocity-inlet-5
    {
        type            fixedValue;
        value           uniform (1 0 0);
    }
    velocity-inlet-6
    {
        type            fixedValue;
        value           uniform (0 3 0);
    }
    pressure-outlet-7
    {
        type            zeroGradient;
    }
    wall-8
    {
        type            noSlip;
    }
    frontAndBackPlanes
    {
        type            empty;
    }
}


// ************************************************************************* //
