/*--------------------------------*- C++ -*----------------------------------*\
  =========                 |
  \\      /  F ield         | OpenFOAM: The Open Source CFD Toolbox
   \\    /   O peration     | Website:  https://openfoam.org
    \\  /    A nd           | Version:  13
     \\/     M anipulation  |
\*---------------------------------------------------------------------------*/
FoamFile
{
    format      ascii;
    class       volScalarField;
    location    "3";
    object      T;
}
// * * * * * * * * * * * * * * * * * * * * * * * * * * * * * * * * * * * * * //

dimensions      [0 0 0 1 0 0 0];

internalField   nonuniform List<scalar> 
1000
(
3.02592e-72
4.53028e-72
8.27799e-72
1.61057e-71
3.18368e-71
6.31265e-71
1.25141e-70
2.47818e-70
4.90144e-70
9.68162e-70
1.90985e-69
3.76251e-69
7.40251e-69
1.45447e-68
2.85401e-68
5.59278e-68
1.09452e-67
2.13915e-67
4.17523e-67
8.13845e-67
1.58425e-66
3.07982e-66
5.97925e-66
1.15928e-65
2.24465e-65
4.34037e-65
8.38153e-65
1.61636e-64
3.11292e-64
5.98709e-64
1.14995e-63
2.20576e-63
4.22526e-63
8.08282e-63
1.54414e-62
2.94594e-62
5.61272e-62
1.06791e-61
2.02914e-61
3.85034e-61
7.29622e-61
1.38073e-60
2.60932e-60
4.92445e-60
9.28104e-60
1.74681e-59
3.28324e-59
6.16265e-59
1.15515e-58
2.16232e-58
4.04209e-58
7.54568e-58
1.40669e-57
2.61879e-57
4.86866e-57
9.03903e-57
1.67586e-56
3.10283e-56
5.73695e-56
1.05927e-55
1.95314e-55
3.59636e-55
6.61291e-55
1.21429e-54
2.22666e-54
4.0774e-54
7.45612e-54
1.36157e-53
2.48295e-53
4.52159e-53
8.22266e-53
1.49324e-52
2.70798e-52
4.90406e-52
8.86874e-52
1.60163e-51
2.88841e-51
5.20173e-51
9.35472e-51
1.67999e-50
3.01284e-50
5.39556e-50
9.64916e-50
1.72319e-49
3.07304e-49
5.4726e-49
9.73215e-49
1.72828e-48
3.06484e-48
5.42737e-48
9.59753e-48
1.69479e-47
2.98856e-47
5.26252e-47
9.25361e-47
1.62485e-46
2.84907e-46
4.98858e-46
8.72238e-46
1.52292e-45
2.65523e-45
4.62286e-45
8.03715e-45
1.39532e-44
2.41897e-44
4.18761e-44
7.23907e-44
1.24963e-43
2.15405e-43
3.70777e-43
6.37306e-43
1.09386e-42
1.8748e-42
3.20866e-42
5.48365e-42
9.35822e-42
1.59475e-41
2.71374e-41
4.61125e-41
7.82428e-41
1.3257e-40
2.24295e-40
3.78936e-40
6.39274e-40
1.07691e-39
1.81153e-39
3.04287e-39
5.10379e-39
8.54817e-39
1.42963e-38
2.3875e-38
3.98138e-38
6.62969e-38
1.10235e-37
1.83028e-37
3.03446e-37
5.02358e-37
8.30446e-37
1.37081e-36
2.25948e-36
3.71882e-36
6.11177e-36
1.00298e-35
1.64356e-35
2.68931e-35
4.394e-35
7.16873e-35
1.16785e-34
1.89974e-34
3.08577e-34
5.00488e-34
8.1056e-34
1.3108e-33
2.11665e-33
3.41288e-33
5.4948e-33
8.83369e-33
1.41805e-32
2.27299e-32
3.63799e-32
5.81411e-32
9.27816e-32
1.47842e-31
2.35227e-31
3.73709e-31
5.92836e-31
9.39055e-31
1.48526e-30
2.34567e-30
3.699e-30
5.82446e-30
9.15756e-30
1.43766e-29
2.25364e-29
3.52747e-29
5.51309e-29
8.60352e-29
1.34063e-28
2.08588e-28
3.24057e-28
5.02692e-28
7.78631e-28
1.20423e-27
1.85967e-27
2.86753e-27
4.41498e-27
6.78728e-27
1.04186e-26
1.59687e-26
2.44385e-26
3.73444e-26
5.69798e-26
8.68082e-26
1.32052e-25
2.00573e-25
3.0419e-25
4.60637e-25
6.96491e-25
1.05151e-24
1.5851e-24
2.38583e-24
3.58561e-24
5.38056e-24
8.06181e-24
1.20608e-23
1.80162e-23
2.68712e-23
4.00175e-23
5.95048e-23
8.83471e-23
1.3097e-22
1.93859e-22
2.8651e-22
4.22794e-22
6.22954e-22
9.1647e-22
1.34622e-21
1.97447e-21
2.89148e-21
4.22789e-21
6.17252e-21
8.99778e-21
1.30961e-20
1.90319e-20
2.76156e-20
4.00093e-20
5.78761e-20
8.35931e-20
1.20552e-19
1.73583e-19
2.49559e-19
3.58236e-19
5.13448e-19
7.34773e-19
1.04988e-18
1.49781e-18
2.13356e-18
3.03445e-18
4.30907e-18
6.10965e-18
8.64923e-18
1.22255e-17
1.72537e-17
2.43123e-17
3.42056e-17
4.80502e-17
6.73936e-17
9.43776e-17
1.31961e-16
1.84224e-16
2.56787e-16
3.57376e-16
4.96595e-16
6.88976e-16
9.54399e-16
1.32002e-15
1.82286e-15
2.51333e-15
3.45996e-15
4.75569e-15
6.52649e-15
8.94269e-15
1.22343e-14
1.67114e-14
2.27912e-14
3.10344e-14
4.2193e-14
5.72742e-14
7.76245e-14
1.05041e-13
1.41919e-13
1.91444e-13
2.57847e-13
3.46739e-13
4.65547e-13
6.24084e-13
8.35299e-13
1.11625e-12
1.48935e-12
1.98405e-12
2.63892e-12
3.50444e-12
4.64653e-12
6.15116e-12
8.13024e-12
1.07292e-11
1.41367e-11
1.85971e-11
2.44265e-11
3.20327e-11
4.19414e-11
5.48289e-11
7.15635e-11
9.3259e-11
1.2134e-10
1.57629e-10
2.04449e-10
2.64757e-10
3.42316e-10
4.41898e-10
5.6955e-10
7.32922e-10
9.41671e-10
1.20797e-09
1.54713e-09
1.9784e-09
2.5259e-09
3.21984e-09
4.09795e-09
5.20731e-09
6.60656e-09
8.36859e-09
1.05839e-08
1.33644e-08
1.68489e-08
2.12084e-08
2.66537e-08
3.34444e-08
4.18989e-08
5.2408e-08
6.54496e-08
8.16076e-08
1.01594e-07
1.26277e-07
1.56708e-07
1.94167e-07
2.402e-07
2.96679e-07
3.6586e-07
4.50462e-07
5.53753e-07
6.79658e-07
8.32875e-07
1.01902e-06
1.24482e-06
1.51824e-06
1.84882e-06
2.24782e-06
2.72864e-06
3.3071e-06
4.00189e-06
4.83503e-06
5.83244e-06
7.02456e-06
8.44704e-06
1.01416e-05
1.21571e-05
1.45502e-05
1.73871e-05
2.07445e-05
2.47114e-05
2.93909e-05
3.49017e-05
4.13809e-05
4.89863e-05
5.78987e-05
6.83258e-05
8.05047e-05
9.47065e-05
0.00011124
0.000130456
0.000152753
0.000178583
0.000208456
0.000242947
0.000282706
0.00032846
0.000381029
0.000441325
0.000510372
0.000589309
0.000679403
0.000782062
0.000898844
0.00103147
0.00118185
0.00135207
0.00154443
0.00176146
0.0020059
0.00228077
0.00258934
0.00293517
0.00332213
0.00375438
0.00423642
0.00477311
0.00536963
0.00603158
0.00676491
0.00757596
0.00847148
0.00945864
0.010545
0.0117386
0.0130477
0.0144813
0.0160485
0.0177589
0.0196226
0.0216498
0.0238514
0.0262382
0.0288216
0.0316131
0.0346246
0.0378679
0.041355
0.0450981
0.0491092
0.0534005
0.0579838
0.0628709
0.0680733
0.0736021
0.0794679
0.085681
0.092251
0.0991868
0.106497
0.114188
0.122267
0.130739
0.139609
0.148879
0.158552
0.168629
0.179108
0.189988
0.201265
0.212935
0.22499
0.237423
0.250224
0.263382
0.276885
0.290718
0.304866
0.319313
0.334039
0.349025
0.36425
0.379693
0.395329
0.411136
0.427089
0.443161
0.459327
0.475561
0.491834
0.50812
0.524393
0.540623
0.556785
0.572852
0.588797
0.604595
0.620221
0.63565
0.65086
0.665828
0.680532
0.694953
0.709072
0.722871
0.736334
0.749447
0.762196
0.774568
0.786554
0.798145
0.809332
0.82011
0.830472
0.840416
0.849939
0.859039
0.867717
0.875972
0.883806
0.891223
0.898224
0.904814
0.910997
0.916778
0.922162
0.927154
0.931759
0.935985
0.939835
0.943315
0.94643
0.949186
0.951587
0.953637
0.955339
0.956697
0.957713
0.95839
0.958728
0.958728
0.95839
0.957713
0.956697
0.955339
0.953637
0.951587
0.949186
0.94643
0.943315
0.939835
0.935985
0.931759
0.927154
0.922162
0.916778
0.910997
0.904814
0.898224
0.891223
0.883806
0.875972
0.867717
0.859039
0.849939
0.840416
0.830472
0.82011
0.809332
0.798145
0.786554
0.774568
0.762196
0.749447
0.736334
0.722871
0.709072
0.694953
0.680532
0.665828
0.65086
0.63565
0.620221
0.604595
0.588797
0.572852
0.556785
0.540623
0.524393
0.50812
0.491834
0.475561
0.459327
0.443161
0.427089
0.411136
0.395329
0.379693
0.36425
0.349025
0.334039
0.319313
0.304866
0.290718
0.276885
0.263382
0.250224
0.237423
0.22499
0.212935
0.201265
0.189988
0.179108
0.168629
0.158552
0.148879
0.139609
0.130739
0.122267
0.114188
0.106497
0.0991868
0.092251
0.085681
0.0794679
0.0736021
0.0680733
0.0628709
0.0579838
0.0534005
0.0491092
0.0450981
0.041355
0.0378679
0.0346246
0.0316131
0.0288216
0.0262382
0.0238514
0.0216498
0.0196226
0.0177589
0.0160485
0.0144813
0.0130477
0.0117386
0.010545
0.00945864
0.00847148
0.00757596
0.00676491
0.00603158
0.00536963
0.00477311
0.00423642
0.00375438
0.00332213
0.00293517
0.00258934
0.00228077
0.0020059
0.00176146
0.00154443
0.00135207
0.00118185
0.00103147
0.000898844
0.000782062
0.000679403
0.000589309
0.000510372
0.000441325
0.000381029
0.00032846
0.000282706
0.000242947
0.000208456
0.000178583
0.000152753
0.000130456
0.00011124
9.47065e-05
8.05047e-05
6.83258e-05
5.78987e-05
4.89863e-05
4.13809e-05
3.49017e-05
2.93909e-05
2.47114e-05
2.07445e-05
1.73871e-05
1.45502e-05
1.21571e-05
1.01416e-05
8.44704e-06
7.02456e-06
5.83244e-06
4.83503e-06
4.00189e-06
3.3071e-06
2.72864e-06
2.24782e-06
1.84882e-06
1.51824e-06
1.24482e-06
1.01902e-06
8.32875e-07
6.79658e-07
5.53753e-07
4.50462e-07
3.6586e-07
2.96679e-07
2.402e-07
1.94167e-07
1.56708e-07
1.26277e-07
1.01594e-07
8.16076e-08
6.54496e-08
5.2408e-08
4.18989e-08
3.34444e-08
2.66537e-08
2.12084e-08
1.68489e-08
1.33644e-08
1.05839e-08
8.36859e-09
6.60656e-09
5.20731e-09
4.09795e-09
3.21984e-09
2.5259e-09
1.9784e-09
1.54713e-09
1.20797e-09
9.41671e-10
7.32922e-10
5.6955e-10
4.41898e-10
3.42316e-10
2.64757e-10
2.04449e-10
1.57629e-10
1.2134e-10
9.3259e-11
7.15635e-11
5.48289e-11
4.19414e-11
3.20327e-11
2.44265e-11
1.85971e-11
1.41367e-11
1.07292e-11
8.13024e-12
6.15116e-12
4.64653e-12
3.50444e-12
2.63892e-12
1.98405e-12
1.48935e-12
1.11625e-12
8.35299e-13
6.24084e-13
4.65547e-13
3.46739e-13
2.57847e-13
1.91444e-13
1.41919e-13
1.05041e-13
7.76245e-14
5.72742e-14
4.2193e-14
3.10344e-14
2.27912e-14
1.67114e-14
1.22343e-14
8.94269e-15
6.52649e-15
4.75569e-15
3.45996e-15
2.51333e-15
1.82286e-15
1.32002e-15
9.54399e-16
6.88976e-16
4.96595e-16
3.57376e-16
2.56787e-16
1.84224e-16
1.31961e-16
9.43776e-17
6.73936e-17
4.80502e-17
3.42056e-17
2.43123e-17
1.72537e-17
1.22255e-17
8.64923e-18
6.10965e-18
4.30907e-18
3.03445e-18
2.13356e-18
1.49781e-18
1.04988e-18
7.34773e-19
5.13448e-19
3.58236e-19
2.49559e-19
1.73583e-19
1.20552e-19
8.35931e-20
5.78761e-20
4.00093e-20
2.76156e-20
1.90319e-20
1.30961e-20
8.99778e-21
6.17252e-21
4.22789e-21
2.89148e-21
1.97447e-21
1.34622e-21
9.1647e-22
6.22954e-22
4.22794e-22
2.8651e-22
1.93859e-22
1.3097e-22
8.83471e-23
5.95048e-23
4.00175e-23
2.68712e-23
1.80162e-23
1.20608e-23
8.06181e-24
5.38056e-24
3.58561e-24
2.38583e-24
1.5851e-24
1.05151e-24
6.96491e-25
4.60637e-25
3.0419e-25
2.00573e-25
1.32052e-25
8.68082e-26
5.69798e-26
3.73444e-26
2.44385e-26
1.59687e-26
1.04186e-26
6.78728e-27
4.41498e-27
2.86753e-27
1.85967e-27
1.20423e-27
7.78631e-28
5.02692e-28
3.24057e-28
2.08588e-28
1.34063e-28
8.60352e-29
5.51309e-29
3.52747e-29
2.25364e-29
1.43766e-29
9.15756e-30
5.82446e-30
3.699e-30
2.34567e-30
1.48526e-30
9.39055e-31
5.92836e-31
3.73709e-31
2.35227e-31
1.47842e-31
9.27816e-32
5.81411e-32
3.63799e-32
2.27299e-32
1.41805e-32
8.83369e-33
5.4948e-33
3.41288e-33
2.11665e-33
1.3108e-33
8.1056e-34
5.00488e-34
3.08577e-34
1.89974e-34
1.16785e-34
7.16873e-35
4.394e-35
2.68931e-35
1.64356e-35
1.00298e-35
6.11177e-36
3.71882e-36
2.25948e-36
1.37081e-36
8.30446e-37
5.02358e-37
3.03446e-37
1.83028e-37
1.10235e-37
6.62969e-38
3.98138e-38
2.3875e-38
1.42963e-38
8.54817e-39
5.10379e-39
3.04287e-39
1.81153e-39
1.07691e-39
6.39274e-40
3.78936e-40
2.24295e-40
1.3257e-40
7.82428e-41
4.61125e-41
2.71374e-41
1.59475e-41
9.35822e-42
5.48365e-42
3.20866e-42
1.8748e-42
1.09386e-42
6.37306e-43
3.70777e-43
2.15405e-43
1.24963e-43
7.23907e-44
4.18761e-44
2.41897e-44
1.39532e-44
8.03715e-45
4.62286e-45
2.65523e-45
1.52292e-45
8.72238e-46
4.98858e-46
2.84907e-46
1.62485e-46
9.25361e-47
5.26252e-47
2.98856e-47
1.69479e-47
9.59753e-48
5.42737e-48
3.06484e-48
1.72828e-48
9.73215e-49
5.4726e-49
3.07304e-49
1.72319e-49
9.64916e-50
5.39556e-50
3.01284e-50
1.67999e-50
9.35472e-51
5.20173e-51
2.88841e-51
1.60163e-51
8.86874e-52
4.90406e-52
2.70798e-52
1.49324e-52
8.22266e-53
4.52159e-53
2.48295e-53
1.36157e-53
7.45612e-54
4.0774e-54
2.22666e-54
1.21429e-54
6.61291e-55
3.59636e-55
1.95314e-55
1.05927e-55
5.73695e-56
3.10283e-56
1.67586e-56
9.03903e-57
4.86866e-57
2.61879e-57
1.40669e-57
7.54568e-58
4.04209e-58
2.16232e-58
1.15515e-58
6.16265e-59
3.28324e-59
1.74681e-59
9.28104e-60
4.92445e-60
2.60932e-60
1.38073e-60
7.29622e-61
3.85034e-61
2.02914e-61
1.06791e-61
5.61272e-62
2.94594e-62
1.54414e-62
8.08282e-63
4.22526e-63
2.20576e-63
1.14995e-63
5.98709e-64
3.11292e-64
1.61636e-64
8.38153e-65
4.34037e-65
2.24465e-65
1.15928e-65
5.97925e-66
3.07982e-66
1.58425e-66
8.13845e-67
4.17523e-67
2.13915e-67
1.09452e-67
5.59278e-68
2.85401e-68
1.45447e-68
7.40251e-69
3.76251e-69
1.90985e-69
9.68162e-70
4.90144e-70
2.47818e-70
1.25141e-70
6.31265e-71
3.18368e-71
1.61057e-71
8.27799e-72
4.53028e-72
3.02592e-72
)
;

boundaryField
{
    sides
    {
        type            zeroGradient;
    }
    empty
    {
        type            empty;
    }
}


// ************************************************************************* //
