/*--------------------------------*- C++ -*----------------------------------*\
  =========                 |
  \\      /  F ield         | OpenFOAM: The Open Source CFD Toolbox
   \\    /   O peration     | Website:  https://openfoam.org
    \\  /    A nd           | Version:  13
     \\/     M anipulation  |
\*---------------------------------------------------------------------------*/
FoamFile
{
    format      ascii;
    class       surfaceScalarField;
    location    "21";
    object      phi;
}
// * * * * * * * * * * * * * * * * * * * * * * * * * * * * * * * * * * * * * //

dimensions      [0 3 -1 0 0 0 0];

internalField   nonuniform List<scalar> 
1300
(
3.75095
5.62643
-5.92339
3.75095
-5.84259
5.62643
-4.54346
4.54346
-1.22284
1.22284
1.87669
1.87426
-2.78821
2.78821
-3.44032
3.44032
-2.63498
2.63498
-5.2464
5.2464
-5.06762
5.06762
4.68328
-4.68328
-4.72755
4.72755
-1.69308
1.69308
-3.88857
3.88857
3.17024
-3.17024
-4.50481
4.50481
-0.423366
0.423366
-0.553411
4.30436
3.19754
3.19754
-2.33533
2.33533
-4.85478
4.85478
6.2182
-6.2182
8.96646
-8.96646
-3.04307
-3.43097
1.3337
-8.28175
-4.50889
-4.50889
-8.44042
8.44042
-2.81399
2.81244
2.94322
-2.94322
-1.76179
1.76179
-4.47979
-0.063662
-4.47979
4.54356
-0.000104964
4.54356
-1.35431
0.131473
-1.35431
4.00285
-4.00285
1.07012
0.152724
1.07012
3.06417
-3.06417
-1.8769
3.7536
1.87405
-1.87162
6.17599
-1.87933
3.75359
-5.87246
5.87246
-3.10246
0.314251
-3.10246
2.5505
0.237711
2.5505
-5.23958
5.23958
-2.97086
-0.469464
-2.97086
3.84118
-0.400856
3.84117
2.87034
-2.87034
-2.67558
0.0406061
-2.67558
2.58372
0.0512532
2.58372
0.353581
5.27285
-5.98001
8.79245
-5.27285
0.0264484
5.20848
0.0379194
5.20848
-5.10592
0.038296
-5.10592
5.01087
0.0567529
5.01087
4.7782
-0.094916
4.7782
-4.79544
0.11216
-4.79544
-3.33609
-3.51888
-4.82616
0.0986073
-4.82616
-1.68388
-0.00919899
-1.68388
1.67408
0.0189984
1.67408
-3.48784
3.48784
-4.28518
0.396609
-4.28518
3.12522
0.0450193
3.12522
1.86856
1.88239
5.61952
-5.61952
2.44928
-4.42195
-0.082852
-4.42195
-4.60675
-4.35971
4.60675
-0.101942
-0.711623
0.288257
-0.711623
3.15936
0.0381831
3.15936
2.50038
0.0833396
-2.50038
0.165053
3.32741
-3.32741
1.7082
0.627126
1.7082
-5.571
5.571
4.9499
0.0609648
-4.9499
0.0951265
6.15679
0.0614177
6.15679
-6.19956
-0.0186414
-6.19956
3.3244
-6.75537
-3.47503
4.61325
0.114302
-4.61325
0.104355
2.90993
0.0332865
2.90993
-2.92328
2.92328
-2.98154
0.0383207
-2.98154
-2.17751
0.415721
-2.17751
1.44345
0.318343
1.44345
-4.33794
-0.141851
-4.33794
-4.4608
0.175627
4.4608
0.0827573
0.955783
-0.955783
-1.49072
0.136411
-1.49072
-4.15727
-0.180669
4.15727
-0.154426
-3.8906
-0.11225
-3.8906
-3.02252
0.0409864
3.02252
0.0416417
3.11216
0.0471978
-3.11216
0.0479957
-1.87093
3.75332
-1.88003
3.75408
-5.49326
-0.379202
-5.49326
6.08144
-0.208982
6.08144
3.49259
0.395975
-3.49259
0.39013
2.44766
0.10284
2.44766
-5.51268
0.273095
-5.51268
5.05724
0.18234
5.05724
2.59597
-0.148312
-2.59597
-0.374883
4.11708
-0.275908
4.11708
2.92179
-0.0514502
2.92179
-2.84804
-0.0222997
-2.84804
2.79719
-2.79719
2.72706
0.070133
-2.72706
0.0514739
-11.1327
11.114
-0.0349856
-11.0977
5.1735
5.1735
4.20639
0.571808
4.20639
-5.00637
0.210925
-5.00637
3.29058
-6.76561
3.49931
-6.8354
3.50059
-11.7823
3.3804
-6.89928
5.00751
-5.00751
4.92264
0.0848672
-4.92264
0.0964844
-1.7116
0.0277203
-1.7116
-2.87256
-0.61528
-2.87256
4.1594
-0.671559
4.1594
-3.03199
3.03199
-3.07977
0.047778
3.07977
0.0454442
4.30154
-0.184453
-4.30154
-0.120418
0.902465
0.167651
-0.902465
0.190842
3.53826
-0.210851
3.53826
-3.12984
-0.197566
-3.12984
-1.71607
0.0044736
1.71607
-0.00786771
-5.81758
0.24658
-5.81758
-11.1907
0.0930585
-11.1528
-6.1065
-6.1065
2.33391
11.1264
-2.86973
0.0216904
2.86973
0.0402014
2.97951
0.0524804
-2.97951
0.0562362
-2.86417
0.0669775
2.86417
0.0591108
-2.56502
0.387511
-2.56502
-1.03056
1.03056
-1.21397
0.183413
1.21397
0.229474
1.19387
-0.238084
1.19387
1.5974
0.0766778
-1.5974
0.106676
-3.80064
-0.0899627
-3.80064
6.03784
0.0435995
6.03784
-3.00454
-0.125304
3.00454
-0.0827505
-0.0333113
11.1473
-5.14018
0.0342681
5.14018
-11.2087
11.243
-3.24649
0.681464
3.24649
0.959903
5.29423
0.276769
-5.29423
0.287863
5.0675
-0.0102557
-5.0675
0.0599876
-2.37236
-0.5002
-2.37236
-4.89624
-0.597015
4.89624
-0.736843
-11.4756
-0.20169
11.6773
-11.4188
6.01927
0.137517
-6.01927
11.3805
-0.918901
-0.036882
0.918901
0.11166
1.5157
-0.32183
1.5157
3.71113
-0.172866
-3.71113
-0.08951
-5.87114
0.358461
5.87114
0.166702
-1.93083
-0.441531
1.93083
-0.415131
-4.26642
4.3046
1.90957
-3.25311
-3.50226
-7.61282
1.85252
1.90079
4.30181
-7.30833
-4.47401
-7.20397
7.27261
-6.98475
-9.30104
9.20612
7.51764
-7.62989
-5.78515
5.8306
6.48162
-6.43998
1.87826
1.87534
7.4111
-7.09685
-15.6663
15.2871
6.96071
-7.43017
15.517
-15.2439
-15.3437
15.3334
-5.76824
5.80885
-6.65131
6.62901
-6.83827
6.75552
-3.1945
-3.6409
9.68487
-9.58627
11.3724
-11.4553
-8.40958
8.80619
3.38239
0.922212
3.42959
-1.88233
3.76058
-1.87126
3.78083
3.51149
-6.70599
3.25412
-6.75638
5.98801
5.38441
-5.88607
-1.72674
-5.90217
5.93546
-5.82279
5.88191
8.93327
-8.99693
-1.88591
3.76125
-1.86816
3.76896
-3.42494
-2.36022
3.37992
0.921888
5.84387
3.84101
-5.95817
-1.24581
-7.72404
7.55117
-8.00725
7.80968
-0.4524
5.82437
-5.37197
4.40238
-1.55356
7.37793
5.71904
5.92997
5.86833
-5.59156
1.11642
-6.48838
-6.39326
-2.56546
2.70187
2.56215
-2.40943
5.91467
1.60298
5.76024
-5.497
-2.13289
-5.58696
3.82025
2.01035
3.86803
4.07695
2.40467
4.11794
3.0308
-3.03622
0.00541416
-3.05567
6.08647
0.725039
-5.41588
-4.494
4.06705
3.34406
4.30476
-5.3426
-1.75426
-4.95247
-9.43305
-6.23328
-10.0301
10.1025
5.18464
9.89351
-12.0709
12.2377
5.32529
1.63541
4.92444
-3.99169
-3.43848
-4.36657
12.0388
-0.895558
-11.1433
-9.47522
-5.86847
9.29288
6.22411
8.86389
6.46954
8.92388
3.34245
8.69639
-9.56655
3.69808
-3.86351
-1.90474
-3.81203
3.74249
2.06636
3.79374
-4.16382
-2.48748
-4.14213
-4.20025
-2.63802
4.2517
2.37731
-4.30194
-3.70531
4.42724
2.32828
3.25488
-7.72889
3.6444
-7.2853
-6.92443
-2.66183
-6.82795
4.35741
2.37833
-6.73573
-2.34859
10.8317
-5.4473
9.10496
-6.80292
-4.65235
-6.92334
-6.81608
-1.5935
-6.64046
-8.82714
8.32694
-9.11926
8.4477
12.6953
-5.64883
-7.04646
-3.96807
-2.47192
3.92007
-0.490483
-3.71158
3.71699
0.0490008
3.82983
4.75205
4.26156
-3.88612
-1.93667
-3.82988
3.82936
2.05255
3.89634
6.75881
2.17445
6.75871
-6.39921
-2.59771
-6.54107
9.09674
-8.68102
2.96899
-2.96452
5.22317
2.58652
-5.01232
-2.71172
6.04556
-3.02853
-3.01703
-12.2217
10.5912
1.63054
-4.84378
-0.44141
-0.0180436
-5.51229
-3.78875
5.40013
0.529837
11.121
7.33226
-5.51446
5.76104
6.16281
6.22378
-0.169477
5.85656
-5.1751
5.2827
-2.28922
-2.99348
5.25532
-5.43599
-1.28574
-5.23727
3.95152
0.324249
1.87083
-1.58257
-2.05343
-0.512029
-1.94675
1.57559
0.986559
1.74324
0.984785
1.71708
-2.94428
0.560873
2.3834
-1.95949
-1.84855
-3.56939
-1.02938
4.59877
5.49887
2.0523
-5.40936
-0.177596
2.72894
-2.70994
-0.698759
-2.87063
2.17247
-2.87123
-3.50539
-1.9229
5.42829
-3.36877
-0.461112
3.31629
0.551737
-3.82201
-2.08016
3.78369
0.334246
-3.12562
6.19826
-3.07264
-5.06229
2.52891
3.55756
4.53926
-4.78945
2.44505
2.3444
-1.23189
3.18622
1.11854
3.28906
-6.94174
5.18748
5.68861
3.11758
-6.08458
1.13211
-5.80963
8.5504
-7.48862
-1.06178
3.6697
4.8807
7.16846
5.52683
-5.77239
12.9408
-1.27087
-6.21774
7.0805
-3.96292
4.7809
-8.74382
-10.3077
4.08999
-10.1056
12.269
-2.16343
-3.40848
-8.66247
13.5141
-1.27464
-12.2394
8.61887
-6.11776
-3.19914
9.31691
-7.01332
6.63763
-2.96314
-3.67449
-10.2344
-5.00945
9.87598
2.36167
-9.01879
12.7169
-0.322393
4.98726
-0.0628175
4.71135
4.53771
-6.05977
1.52205
2.47561
-5.43875
2.25704
-8.31681
-5.42787
10.0407
-4.61279
-8.0897
-7.72773
-0.361977
1.50889
11.208
-7.97844
5.54693
2.43151
3.30778
0.588554
-3.37791
-0.434119
0.343118
4.49959
-4.84271
4.13686
4.2202
3.40071
1.09888
3.80962
2.12584
-3.84982
-0.292314
-4.11059
1.47258
-1.73329
-3.63863
5.11121
-4.05967
0.421043
-2.71219
-3.55931
6.27149
-4.61692
3.04872
3.14953
5.10127
-4.95014
1.39084
-2.44108
-2.50906
2.66883
-4.40212
1.95117
3.16003
4.27945
0.57414
5.26523
4.77543
-7.64356
0.358258
8.61644
-7.37063
2.25571
6.66817
-7.80264
0.0749149
-6.75303
0.829298
-6.2766
-5.90643
5.14898
-6.74247
-3.59484
6.17431
0.584397
-6.25707
-0.383388
-5.97433
-2.85281
-6.41586
-3.04921
-6.07005
-8.82159
-1.64161
-7.17999
6.68533
-6.57379
-3.45627
7.31063
1.13707
-7.35152
7.31464
-7.43295
7.11112
0.0949791
3.62202
4.35654
1.88462
-2.39012
4.27475
-5.05175
7.22621
-8.44151
3.38976
3.92251
-6.52022
-4.51901
5.02664
4.0701
5.34499
8.94672
-10.5769
1.63015
-10.8632
12.1938
-1.33063
-16.6345
5.77125
-7.68774
2.70192
0.267069
2.72964
0.675999
2.41217
-3.08817
-2.28852
-2.29639
-2.26837
-3.32083
5.5892
1.11505
-3.32661
2.21156
-3.45366
4.56871
-0.0781276
-3.24848
5.22705
-2.81488
5.49412
-3.53178
1.96234
3.23068
5.51685
-2.28617
4.25703
-1.67051
1.77553
-4.0617
-1.5453
-3.01508
5.08144
-3.25642
3.67746
-0.238728
3.91619
-4.0102
0.981673
-0.609496
3.61071
3.77576
4.18972
-3.09084
2.88901
-4.55952
-1.17268
-3.98538
-0.825352
-0.356982
-3.7031
4.06008
6.06142
-6.41841
-5.30447
9.61507
-4.3106
7.74142
-5.43089
-2.31053
-4.28541
-4.39561
3.8979
1.95867
9.70009
0.20346
-5.63435
-4.97164
-4.01173
3.23346
2.04924
-2.06536
3.69591
2.08341
-0.212578
0.57323
1.17001
1.92126
-1.34803
0.221715
1.69955
-1.36086
1.99467
0.734273
-2.07135
0.124597
-1.30387
3.47635
1.07953
-2.06609
0.718056
1.09467
-3.38389
4.67272
-2.39018
-2.28254
5.76738
1.16116
-3.55134
4.0761
-3.75185
2.26509
-3.29447
-1.28625
-5.03811
-3.43513
-2.45757
4.66913
-3.13163
5.18393
1.16374
-5.00633
6.17007
-3.5407
1.6178
-3.00084
3.73512
-1.028
-1.97284
2.75659
2.67171
-2.89135
0.0207188
-0.134763
2.3073
-2.44207
-0.563931
-2.52342
-4.57215
4.90639
-2.10727
4.55233
2.16747
-1.91199
6.46432
1.81453
-3.72652
-3.24776
-3.70887
-1.38212
3.15713
-1.25191
-3.11466
-4.9264
3.26297
0.0260843
-6.78704
6.96347
-0.176437
-3.44298
-1.7445
5.4142
-6.24116
0.802414
-3.98412
2.97936
4.0979
4.12398
-11.6859
-0.553497
-6.50129
0.915273
-7.41656
5.79598
-3.66051
7.7505
-10.4174
6.96112
-9.28033
6.68872
-0.727841
6.80771
-5.28566
4.33557
-9.34502
-6.98335
5.87076
-4.23535
5.80794
-4.75917
10.5671
-5.08156
6.96956
3.59755
-1.73794
-5.1854
-6.31106
4.57311
0.658504
5.36985
4.94569
-2.81985
4.65337
2.23623
-4.67731
-2.16589
-6.5476
1.87028
-3.39806
-1.91594
3.78622
3.18533
3.77388
1.27716
-3.33977
7.37869
-7.74066
-2.7659
-3.14054
6.53266
-1.95955
4.39629
-7.53682
-1.88032
4.89256
-0.809564
-4.083
0.756263
-4.3511
1.59629
-5.9474
5.14618
-5.52957
2.18035
-9.86808
-5.17117
-5.05951
-2.2404
-5.19255
-7.65526
5.41486
-1.88401
5.43063
-8.68226
7.87269
-3.51158
8.92644
-5.37742
-1.03844
5.79255
1.31856
10.245
0.105737
-4.62474
-1.8074
3.92324
-2.11584
1.42606
-3.59736
0.325882
2.45583
3.31156
-6.40735
-0.112873
-4.73762
-3.9104
7.9805
5.70467
11.7661
1.18922
9.19729
-1.21679
10.3865
4.1282
4.35767
-2.96741
4.59756
1.09267
4.48243
-0.854441
2.81678
1.8752
1.866
0.843941
2.30527
1.47048
3.28695
0.198776
-2.09761
4.65967
-8.67141
-0.97468
-8.0996
1.10652
5.74451
-4.63798
3.16083
-1.1116
1.04499
0.178826
-1.79907
1.62024
-2.81465
-2.01165
-0.3121
-1.64439
2.36244
1.83196
-2.05034
-0.764305
0.314808
-3.74994
2.97966
-2.95894
-0.287237
5.88283
-2.69888
0.256818
-1.08108
-2.2666
-2.77863
2.65404
6.1793
0.285015
3.10666
5.19141
3.11125
0.291402
3.94453
-6.10796
-4.37228
-6.66146
-0.865483
4.54871
3.16458
8.0434
6.76213
4.80258
-2.73424
-10.4749
6.57168
-1.97412
5.24105
-1.15805
-4.78934
4.9703
2.25591
-5.5547
0.0251261
-4.76422
-6.73834
-0.529651
8.40234
-9.71535
8.67691
5.8241
1.35588
-4.37033
-0.689182
4.18692
0.170752
10.5573
-1.13004
-6.89883
8.02887
-4.61447
3.63979
0.90141
2.7945
2.52165
1.41006
-5.48878
-10.1268
-1.83435
-1.54953
-4.11689
0.481879
-2.31384
6.28133
-2.64155
3.9708
5.38733
6.43232
-2.19873
-4.21968
6.50933
-2.53853
3.8938
)
;

boundaryField
{
    wall-4
    {
        type            calculated;
        value           uniform 0;
    }
    velocity-inlet-5
    {
        type            calculated;
        value           uniform -3.75095;
    }
    velocity-inlet-6
    {
        type            calculated;
        value           uniform -5.62643;
    }
    pressure-outlet-7
    {
        type            calculated;
        value           nonuniform List<scalar> 8(5.92339 5.84259 6.47404 6.94805 6.85497 6.79943 6.78989 6.88099);
    }
    wall-8
    {
        type            calculated;
        value           uniform 0;
    }
    frontAndBackPlanes
    {
        type            empty;
    }
}


// ************************************************************************* //
