/*--------------------------------*- C++ -*----------------------------------*\
  =========                 |
  \\      /  F ield         | OpenFOAM: The Open Source CFD Toolbox
   \\    /   O peration     | Website:  https://openfoam.org
    \\  /    A nd           | Version:  13
     \\/     M anipulation  |
\*---------------------------------------------------------------------------*/
FoamFile
{
    format      ascii;
    class       volVectorField;
    location    "21";
    object      U;
}
// * * * * * * * * * * * * * * * * * * * * * * * * * * * * * * * * * * * * * //

dimensions      [0 1 -1 0 0 0 0];

internalField   nonuniform List<vector> 
918
(
(0.98515 -0.000533937 0)
(0.00500182 2.96626 0)
(-0.0114646 1.57832 0)
(0.979691 0.00216781 0)
(-0.00313665 1.55745 5.49134e-21)
(-0.00703202 2.94878 -1.847e-18)
(0.855524 1.19932 7.40757e-19)
(0.413006 0.187252 -8.70708e-21)
(0.999905 -0.000322713 0)
(0.0718933 0.809338 0)
(-0.0535843 0.997851 0)
(0.761365 -0.0115126 0)
(0.0111189 2.93031 0)
(0.00200774 2.79452 0)
(-0.0176099 3.16742 1.09497e-18)
(-0.00284502 1.44113 4.48118e-21)
(0.534428 0.0833854 5.46067e-19)
(0.193125 1.2039 6.54118e-19)
(0.962989 0.00514388 0)
(0.00360836 1.29379 0)
(0.13693 0.246093 -4.66502e-19)
(1.00208 -0.00499552 0)
(1.00023 -0.0097527 0)
(0.975757 -0.00645095 0)
(0.67329 -0.0377094 0)
(0.0174049 2.63245 0)
(-0.0150504 2.91013 6.36082e-19)
(-0.0250747 1.58912 0)
(-0.0305926 1.72616 0)
(-0.0250529 1.58053 0)
(-0.00602445 1.85231 0)
(0.00216828 1.58054 -4.34326e-21)
(-0.00258764 1.45614 0)
(-0.0206226 2.98758 -6.45073e-23)
(-0.0167039 3.00531 1.4357e-18)
(0.00210817 3.00021 0)
(0.870866 -0.00913159 0)
(0.394359 0.93151 -3.90463e-20)
(0.835709 1.21717 -1.0398e-18)
(0.982072 1.05358 9.73731e-19)
(0.702296 1.31294 -1.71758e-19)
(0.698948 1.30252 9.63295e-19)
(0.447379 0.275166 8.49521e-21)
(0.441293 0.173301 0)
(1.16403 0.562029 0)
(0.414973 0.286036 3.98842e-20)
(0.373447 0.189023 -4.13897e-20)
(0.919493 -0.00744508 0)
(1.00028 5.62687e-05 0)
(0.99991 0.000305895 0)
(1.00352 -0.00778799 0)
(1.00094 -0.00106154 0)
(1.00017 -8.19062e-06 0)
(0.0505088 1.81817 -2.96728e-19)
(0.039023 0.949115 0)
(0.0806381 0.91272 0)
(0.0142358 0.86309 0)
(0.00892177 0.729151 0)
(0.00432491 1.53528 0)
(-0.0669126 1.04649 0)
(-0.0510924 0.853737 0)
(-0.0471337 1.18674 0)
(-0.0350414 1.11599 0)
(0.842157 -0.00411843 0)
(0.861372 0.010724 0)
(0.774657 -0.00268444 0)
(0.854407 0.0159202 0)
(0.7476 -0.013143 0)
(0.0147056 3.00039 6.75738e-19)
(0.0115355 3.00789 0)
(0.00614017 3.00285 0)
(0.0135544 2.99733 7.52841e-24)
(0.00799681 2.95845 -1.00431e-18)
(0.0144847 2.98204 0)
(0.0107778 2.90365 0)
(0.0252991 2.93019 1.33868e-24)
(0.00410747 2.82496 0)
(0.0317891 2.91538 0)
(-0.00668015 2.74475 0)
(0.311435 3.56787 0)
(-0.132436 3.65014 0)
(0.141215 3.25819 -1.01903e-18)
(-0.0111745 2.9902 0)
(-0.0234758 1.82759 0)
(0.00760763 1.61804 -4.4203e-21)
(-0.00290486 1.44819 9.2217e-21)
(0.586879 0.151394 -1.87721e-19)
(0.52883 0.0514687 -1.82829e-19)
(0.575305 0.181325 -5.66493e-19)
(0.523686 0.112873 -3.8094e-19)
(0.20736 0.893817 0)
(0.271945 1.34907 -6.75353e-19)
(0.39779 1.3034 1.10865e-18)
(0.98754 0.00847071 0)
(0.942383 0.00595533 0)
(1.00029 0.000561398 0)
(1.00288 0.0092785 0)
(1.00306 0.00849658 -1.03317e-18)
(0.99195 0.0096627 7.80209e-19)
(-0.0106581 1.45671 0)
(-0.0064647 1.27892 0)
(-0.0336081 1.59563 0)
(-0.0199119 1.49951 0)
(-0.00258292 1.32816 0)
(0.202927 0.257227 1.43839e-19)
(0.249084 0.234514 0)
(0.993559 -0.00827005 0)
(0.95439 -0.00640959 0)
(0.823069 0.0245806 0)
(0.790119 0.0365036 0)
(0.725419 -0.0283804 0)
(0.990542 -0.00374624 0)
(0.732435 0.0514911 0)
(0.583773 -0.0169752 7.26619e-19)
(-0.0354912 2.86649 3.16908e-19)
(0.0434016 2.90829 0)
(0.0566423 2.88307 0)
(-0.00510587 2.69673 0)
(-0.0131985 2.98516 5.83617e-19)
(-0.0182861 2.89539 0)
(-0.0154188 2.98812 -1.84869e-18)
(-0.0134085 2.92521 6.38898e-19)
(-0.02833 1.81322 0)
(-0.0238178 1.81271 0)
(0.00250165 1.59909 2.21116e-22)
(0.00388332 1.57421 0)
(-0.00529045 1.45153 0)
(0.936623 -0.00600029 0)
(0.855205 -0.00938024 0)
(0.864522 0.00859645 0)
(0.948617 -0.00724 0)
(0.88338 -0.00840114 0)
(0.508194 1.12732 3.77254e-20)
(0.56011 1.18276 0)
(0.353922 0.869204 3.27922e-21)
(0.297174 0.730782 0)
(0.942015 1.08992 -2.81588e-19)
(1.05386 0.888215 5.7702e-19)
(0.394969 1.4017 0)
(0.554954 1.37948 0)
(0.556267 1.33242 0)
(0.0980739 0.149741 -1.19703e-19)
(0.490482 0.259407 0)
(0.474463 0.158974 1.0868e-19)
(1.02352 0.941079 0)
(1.08912 0.783814 0)
(1.11507 0.726336 -5.05496e-19)
(1.14413 0.621279 0)
(1.19543 0.404302 5.80986e-20)
(0.956996 -0.00896893 0)
(0.962185 -0.0102311 0)
(0.900929 -0.0080988 0)
(0.984201 -0.00912758 0)
(0.97453 -0.00935858 0)
(0.936879 -0.00625919 0)
(1.0002 0.00231823 0)
(1.00086 0.00129723 0)
(0.999931 0.000862562 0)
(0.00924081 2.02566 1.78078e-19)
(0.126034 1.71839 0)
(-0.03459 2.07641 1.98855e-19)
(-0.0182781 1.85512 -1.10224e-19)
(0.133856 1.19707 -5.42164e-19)
(0.0723292 1.04701 0)
(0.105178 1.04797 0)
(0.00609102 0.82277 0)
(-0.0108249 0.699441 0)
(-0.00628629 1.75773 2.18815e-21)
(-0.0638398 1.62686 0)
(0.0533678 1.70871 1.28757e-19)
(-0.00272539 1.46462 -2.22872e-19)
(-0.024038 0.819805 0)
(-0.054503 0.91231 0)
(-0.0352737 0.746347 0)
(-0.0349491 1.29932 0)
(-0.021896 1.19134 0)
(0.933458 0.015246 0)
(0.863477 -0.000860051 0)
(0.9173 0.00585693 0)
(0.83572 -0.00782427 0)
(0.811012 0.00531198 0)
(0.90253 0.0151942 0)
(0.881262 0.0133582 0)
(0.786705 0.00342667 0)
(0.00588828 3.06485 -5.92037e-21)
(0.016365 3.05795 0)
(0.014662 2.96915 0)
(0.00855597 2.87639 0)
(0.929612 3.98806 0)
(1.24546 3.3177 1.01828e-18)
(0.0714927 3.08242 0)
(-0.0266233 2.91068 0)
(-0.0294735 1.80296 0)
(-0.0321373 1.82094 0)
(-0.027626 1.81007 0)
(-0.0105778 1.84063 5.79769e-21)
(-0.0239595 1.83884 0)
(-0.0182717 1.83458 0)
(0.00869075 1.46285 -2.49961e-20)
(0.0227981 1.65804 -4.11698e-20)
(0.0109652 1.63487 -9.25479e-21)
(-0.000815829 1.45624 0)
(0.616624 0.124714 2.76674e-19)
(0.547747 0.021646 -2.69411e-19)
(0.267036 1.5267 0)
(0.259051 0.663753 -2.07132e-19)
(0.183259 1.6142 -6.97141e-19)
(0.244643 1.16118 6.98892e-19)
(0.90383 0.00671138 0)
(0.967807 0.0106783 0)
(0.974934 0.0105977 0)
(0.924395 0.00662324 0)
(-0.027723 1.38134 0)
(-0.0176216 1.43145 0)
(-0.0149882 1.23997 0)
(0.372795 0.290284 3.68996e-19)
(0.316106 0.27249 -4.51065e-19)
(0.32297 0.210565 0)
(1.11459 0.0849525 -4.63283e-21)
(1.0999 0.0391295 0)
(1.02714 0.0387174 0)
(0.930087 0.00464975 0)
(0.641966 0.0931757 0)
(0.673121 0.0678981 -1.16989e-18)
(0.563142 0.00600415 4.47397e-19)
(0.00978199 2.98224 4.08736e-19)
(-0.0322013 2.86762 4.81098e-20)
(0.00377353 3.05023 -1.28087e-20)
(0.0199732 3.04347 4.60607e-19)
(-0.0150016 2.99654 2.12608e-20)
(-0.0129851 2.94941 -8.60821e-23)
(-0.0172964 3.01201 -4.03619e-19)
(0.0148137 3.02402 2.921e-19)
(0.00731611 3.03682 -4.5601e-19)
(0.924261 -0.000233696 0)
(0.933562 -0.00200527 0)
(0.840417 -0.00752809 0)
(0.957363 0.0115181 0)
(0.944054 0.0133771 0)
(0.883447 0.00727222 0)
(0.918569 0.014424 0)
(0.927787 0.0145475 0)
(0.8393 0.00774866 0)
(0.716837 1.41297 3.38265e-19)
(0.75257 1.52434 0)
(0.221877 0.362209 2.439e-20)
(0.18214 0.585197 1.95556e-19)
(0.266007 0.689928 -1.07808e-19)
(0.22766 0.573194 1.96035e-19)
(0.291383 0.699692 6.96055e-19)
(0.104122 0.179884 2.11336e-19)
(0.552947 0.218111 4.09491e-19)
(0.520935 0.241478 1.01005e-19)
(0.500747 0.141827 2.05945e-19)
(1.18472 0.461317 3.04032e-19)
(1.20237 0.256082 3.18052e-19)
(-0.0583727 2.05394 3.59356e-20)
(-0.0175336 1.83663 0)
(0.978336 0.0287148 0)
(0.945873 0.0190512 0)
(0.889509 -0.00214804 0)
(0.0111494 3.07471 0)
(0.0200899 2.94424 7.8762e-19)
(0.0165109 2.95652 0)
(0.00607633 2.85066 -7.81275e-19)
(0.00617141 3.09202 1.86492e-19)
(0.00713138 3.08214 0)
(0.786615 1.82975 -2.42292e-19)
(1.25257 2.51359 6.68187e-19)
(0.769533 1.97111 -1.50371e-18)
(0.0210261 2.98453 -2.9421e-19)
(0.036971 3.00691 0)
(-0.0324887 2.88205 0)
(0.0751847 1.67123 1.87361e-20)
(0.0445435 1.68983 1.43684e-19)
(0.0372842 1.46031 -1.06249e-21)
(0.279015 1.33715 6.70528e-19)
(0.218603 0.444523 -4.62662e-19)
(0.0566816 1.94575 4.631e-19)
(0.133944 1.82324 -5.8041e-19)
(0.204301 1.46332 8.26548e-20)
(0.00574483 3.11845 -9.75743e-19)
(0.0119289 3.11911 1.06548e-18)
(-0.00881391 2.98079 5.05745e-19)
(-0.00366517 2.9777 -4.44919e-19)
(-0.0216359 2.88161 -5.15093e-19)
(0.00856418 3.09932 -1.36371e-18)
(0.00180778 3.10532 1.36767e-18)
(0.225452 0.6179 0)
(0.178035 0.601758 -3.84755e-19)
(0.121224 0.204647 1.71842e-19)
(0.320904 0.821068 6.34467e-19)
(0.170928 0.224992 -9.68864e-19)
(1.19826 0.171312 -6.10372e-20)
(1.20199 0.308398 0)
(1.18692 0.119549 1.25576e-19)
(-0.0435562 1.88763 2.37567e-21)
(-0.0391995 1.99046 0)
(-0.0503242 1.75789 0)
(0.33 1.22004 -2.43883e-19)
(0.350682 1.0375 -5.19578e-19)
(0.190114 0.320135 8.90454e-19)
(1.00584 -0.0110676 0)
(1.00759 -0.00761505 1.88615e-19)
(-0.0295405 1.79448 0)
(-0.037588 1.8006 0)
(1.00221 0.00337834 1.67305e-21)
(1.00354 0.00923758 3.8784e-19)
(-0.0115289 1.84821 -7.61369e-21)
(-0.00766575 1.85039 0)
(0.0390727 3.18339 1.0294e-19)
(0.40043 3.50283 0)
(1.11771 0.645255 6.88434e-20)
(1.01313 0.01276 -2.07971e-21)
(1.02119 -0.0105093 0)
(1.00173 -4.25748e-05 1.80502e-24)
(0.162708 1.24567 0)
(0.191729 2.58089 0)
(-0.227771 1.24039 0)
(-0.217798 2.54482 -1.67337e-19)
(-0.151833 2.18834 3.28741e-20)
(1.00659 0.0128437 3.06577e-21)
(1.04964 0.00786895 0)
(1.07469 0.0307752 0)
(-0.0342168 1.82329 0)
(-0.0325374 1.90827 0)
(-0.0520025 1.74359 0)
(0.285759 1.45358 -4.49825e-19)
(1.01109 -0.00960749 0)
(1.00947 -0.0153066 0)
(1.00238 0.000393178 2.38925e-19)
(1.0055 -0.00500234 -2.83799e-19)
(1.00123 -0.0010907 0)
(-0.043495 1.8094 0)
(-0.0336662 1.79205 0)
(-0.0348112 1.80217 0)
(-0.0429537 1.74897 0)
(-0.0319773 1.76744 0)
(-0.0363807 1.76358 0)
(1.03268 -0.0120902 0)
(1.02069 0.0158526 -1.15626e-21)
(0.781685 1.26476 5.28635e-19)
(1.00244 0.000256184 -2.39947e-19)
(1.00375 0.00533396 2.82866e-19)
(1.00127 0.00213274 0)
(1.01303 0.010079 2.33173e-19)
(1.00828 0.0083094 -2.90308e-19)
(1.00865 0.0144642 0)
(-0.029674 1.90438 0)
(-0.0176957 1.87421 2.00516e-21)
(-0.0162463 1.87635 5.10035e-22)
(1.19006 0.256437 -9.06324e-20)
(1.1286 0.0897826 0)
(0.0524448 3.078 -5.02936e-19)
(0.0681944 2.85118 -4.05256e-20)
(0.147545 3.19739 7.93213e-19)
(0.141611 3.22642 5.30304e-21)
(0.140083 3.24243 0)
(0.021017 3.13853 1.07926e-19)
(0.080319 3.16216 4.90019e-19)
(0.0729658 3.18952 -2.08987e-19)
(0.0250738 3.12855 0)
(0.664067 0.325214 0)
(0.603235 0.367709 0)
(1.09065 0.671817 -2.61196e-19)
(1.08791 0.81231 4.01373e-19)
(1.14628 0.561383 0)
(1.17767 0.502961 0)
(1.01601 0.0130131 -4.30431e-19)
(1.01461 0.0139804 5.37751e-19)
(1.02515 -0.0104983 0)
(1.02336 -0.0121328 0)
(1.00689 0.00275276 0)
(1.01023 0.00313399 0)
(1.00493 0.00156575 0)
(1.00987 0.00580991 0)
(1.00824 0.00635915 0)
(1.0042 0.00462671 0)
(0.181806 1.24782 0)
(0.126649 1.09319 0)
(0.20961 1.33557 0)
(0.124712 1.33609 0)
(0.167741 2.59159 0)
(0.204672 2.63444 -2.07581e-19)
(0.0951522 2.65689 0)
(0.083987 2.6413 -1.08797e-20)
(-0.0972061 2.70929 2.0817e-19)
(-0.189902 1.30204 0)
(-0.181196 1.33958 0)
(-0.210896 1.2241 0)
(-0.147377 1.07183 0)
(-0.399174 2.2276 2.37755e-19)
(-0.22339 2.32631 -7.81545e-20)
(-0.209177 2.53024 -1.7303e-19)
(-0.168377 2.42422 0)
(-0.14016 2.18281 -5.11829e-20)
(-0.0829716 2.11438 3.36209e-20)
(-0.430694 2.1974 -2.20572e-19)
(-0.31859 2.25961 1.02408e-19)
(-0.296287 2.39273 2.30967e-19)
(1.01645 0.0254096 4.24504e-19)
(1.01193 0.0129374 -5.20936e-19)
(1.00812 0.0229771 -4.45163e-19)
(0.99179 0.012456 5.66837e-19)
(1.04968 0.00849837 0)
(1.03633 -0.0114102 0)
(1.07126 0.0392439 0)
(1.05569 0.0180509 0)
(1.05424 0.0120816 0)
(1.11217 0.077385 0)
(1.08457 0.0485524 0)
(1.08757 0.0391904 0)
(-0.0276937 1.8534 -1.65296e-21)
(-0.0413994 1.84038 0)
(-0.0297909 1.8417 0)
(-0.0439801 1.94071 5.2044e-21)
(-0.0350448 1.95595 1.09773e-22)
(-0.0748107 1.81507 1.01755e-20)
(-0.0521748 1.80902 -1.03205e-20)
(-0.0629407 1.76878 0)
(-0.0486345 1.78763 0)
(-0.0461628 1.78977 0)
(-0.0714658 1.72135 0)
(-0.0530152 1.67082 0)
(0.39013 1.47188 8.50327e-19)
(0.409518 1.48652 3.29953e-19)
(0.588677 2.43211 -1.52514e-19)
(0.403827 2.52099 4.28074e-19)
(0.341419 2.09023 -4.40205e-20)
(1.02067 -0.00872732 0)
(1.01515 -0.00985407 0)
(1.01485 -0.015706 0)
(1.00752 -0.00123692 0)
(1.00464 -0.00149756 0)
(1.00745 -0.00472663 0)
(1.00956 -0.0039978 0)
(1.01376 -0.00461831 0)
(1.02216 0.0162744 4.07689e-19)
(1.01737 0.0156248 -5.23923e-19)
(1.0238 0.0200835 -4.14627e-19)
(1.01751 0.0207795 5.19538e-19)
(0.756374 1.31169 0)
(0.687577 1.36983 6.27487e-19)
(0.858066 1.20279 3.66275e-19)
(0.898894 1.16076 -4.87396e-19)
(1.14876 2.61685 -5.73451e-19)
(0.835567 0.108126 2.83075e-19)
(1.1283 0.101173 0)
(1.17348 0.180597 7.77236e-20)
(1.15935 0.156942 3.40689e-21)
(0.982048 0.122392 0)
(0.14791 2.96707 1.17534e-19)
(0.125389 2.87306 -6.49856e-19)
(0.0377772 2.35628 4.71865e-19)
(0.103131 0.0957954 -1.98222e-19)
(0.345134 3.43096 -4.49581e-19)
(0.199398 3.32177 0)
(0.240769 3.36634 5.85496e-19)
(0.255769 3.0407 -7.16135e-19)
(0.34984 3.20017 0)
(0.00770301 3.12048 2.58039e-20)
(0.0189076 3.12938 -3.28707e-19)
(0.0165589 3.12531 4.8382e-19)
(0.0377784 3.13973 0)
(0.0361336 3.15177 0)
(1.21572 2.61847 0)
(0.510271 0.854382 -2.27206e-19)
(1.01925 0.987551 -2.07884e-19)
(0.954369 1.05371 0)
(0.798238 0.949347 5.922e-20)
(1.04047 0.861258 3.05172e-20)
(0.408032 0.455525 -5.30782e-19)
(0.701154 0.33624 -2.22193e-20)
(0.688081 0.280072 2.17135e-19)
(0.614919 0.398591 1.73871e-20)
(0.552948 0.385331 -7.15889e-19)
(0.674565 0.359323 0)
(0.708539 0.424409 3.54126e-19)
(0.705908 0.421772 0)
(0.640872 0.388154 0)
(0.624795 0.32992 0)
(0.765697 0.587139 1.2382e-19)
(1.18863 0.272237 5.98618e-20)
(1.18497 0.402959 0)
(1.19703 0.358158 0)
(0.766552 0.198337 3.27978e-19)
(0.820487 0.520772 -1.77199e-19)
(0.737746 0.492917 2.87975e-19)
(0.913456 0.41886 -2.65894e-19)
(1.01928 0.014492 2.82058e-19)
(1.01763 0.0138377 -2.89795e-19)
(1.01506 0.0155326 0)
(1.03427 -0.00889968 0)
(1.02905 -0.0094895 -2.5786e-19)
(1.02681 -0.0124033 2.54942e-19)
(1.02595 0.00794286 0)
(1.02467 0.0130636 0)
(1.0115 0.00395296 0)
(1.01427 0.00902092 0)
(1.01515 0.00366844 0)
(1.01389 0.00206093 0)
(0.13908 1.05973 0)
(0.0539909 0.960558 0)
(0.270091 1.37774 4.19026e-19)
(0.260819 1.45007 2.61386e-19)
(0.196687 1.43293 5.97185e-19)
(0.202549 1.42717 -9.54852e-19)
(0.219268 1.41009 0)
(0.209533 1.60908 2.48666e-19)
(0.243947 1.61371 0)
(0.328343 2.03967 6.39461e-20)
(0.340138 2.37916 2.26686e-19)
(0.204906 1.46731 -2.26061e-19)
(0.243395 1.39318 2.00345e-19)
(0.223123 1.38633 -1.60629e-19)
(0.255054 1.33634 3.28623e-19)
(0.19732 1.58326 0)
(0.281398 1.61153 -2.0713e-19)
(-0.019978 2.52135 1.88546e-19)
(-0.0702709 2.73617 0)
(0.104417 2.51016 -3.01296e-19)
(0.0276753 2.59114 0)
(0.051342 2.7057 1.06288e-20)
(-0.0282491 2.73715 0)
(-0.380889 1.5475 3.51541e-19)
(-0.420886 1.69063 0)
(-0.247659 1.33888 0)
(-0.302983 1.3382 -3.96352e-19)
(-0.221477 2.62843 -7.36934e-20)
(-0.16844 2.72114 -2.75105e-19)
(-0.181006 2.68488 -1.77119e-21)
(-0.396441 2.02196 -3.51128e-20)
(-0.439579 1.97897 -8.22043e-20)
(-0.156729 1.42951 0)
(-0.111847 1.46252 0)
(-0.178421 1.85243 -7.18267e-19)
(-0.202986 1.40631 -6.97203e-19)
(-0.255347 1.65483 8.83021e-19)
(0.0787238 1.81433 0)
(-0.088385 1.8841 -2.33113e-20)
(-0.0766523 1.9229 7.52656e-21)
(-0.0913554 1.94574 -1.80728e-21)
(-0.330056 1.92024 4.10131e-20)
(-0.150056 2.05125 1.87334e-21)
(-0.182455 2.10855 1.79401e-20)
(1.02048 0.0237703 -2.78479e-19)
(1.01893 0.0239318 2.77254e-19)
(1.01447 0.0209175 0)
(1.00528 0.0481956 4.04986e-19)
(0.993801 0.034518 -4.76265e-19)
(0.965453 0.0229405 5.52278e-19)
(1.00615 0.082586 -5.23904e-20)
(1.03805 -0.0111962 0)
(1.03946 -0.00753742 2.30024e-19)
(1.03135 -0.0202409 -2.32112e-19)
(1.05708 0.0433844 -1.2615e-20)
(1.05521 0.0262626 1.1288e-19)
(1.05421 0.0513799 0)
(1.04667 0.0434963 -4.23432e-20)
(1.03862 0.0278272 0)
(1.03413 0.0230562 0)
(1.02926 0.0112253 0)
(1.02772 0.0151538 0)
(1.04642 0.0265203 8.8243e-20)
(1.04678 0.0193291 -1.99969e-19)
(1.04931 0.0285552 -8.85909e-20)
(1.04717 0.0286374 -1.03166e-19)
(1.05502 0.0572897 1.83891e-19)
(1.07692 0.0508113 0)
(1.0805 0.0932576 0)
(-0.0818623 1.87919 -9.96048e-21)
(-0.0523654 1.84347 -1.57382e-21)
(-0.0641968 1.85231 0)
(-0.0541469 1.88289 9.96954e-21)
(-0.0338912 1.85831 3.09479e-21)
(-0.0402599 1.8699 -2.06575e-21)
(-0.0685778 2.08464 -3.90697e-20)
(-0.0967484 1.97996 -6.5524e-22)
(-0.114541 2.01191 5.37453e-22)
(-0.0460609 2.00582 5.04317e-21)
(-0.0470657 2.02524 -4.83809e-21)
(-0.0981832 1.78854 -8.43734e-23)
(-0.0959369 1.81804 1.3412e-20)
(0.387781 1.39675 -4.36308e-19)
(0.365746 1.37703 -4.27062e-19)
(0.640681 1.41781 -6.03862e-19)
(0.51893 1.47918 -3.2633e-19)
(0.557815 1.45606 0)
(0.587591 2.40528 1.2046e-19)
(0.653816 2.38949 2.22034e-19)
(0.408164 2.49614 7.74572e-20)
(0.405384 2.55312 -1.60864e-19)
(0.515682 2.51652 2.56765e-19)
(0.542242 2.44493 0)
(0.482857 2.48722 -3.48336e-19)
(0.258112 2.55185 6.04427e-19)
(0.343721 2.53711 -7.34615e-20)
(0.287833 2.61424 -9.19155e-19)
(0.924548 2.37247 2.08541e-19)
(0.832058 2.36324 0)
(1.01046 0.000488499 9.40449e-21)
(1.01539 -0.00572967 -7.78254e-21)
(1.018 -0.0040478 -1.40047e-19)
(1.01507 -0.000482346 1.40023e-19)
(1.01231 0.00102989 0)
(0.623158 1.2581 0)
(0.621563 1.17418 0)
(0.729907 1.07785 0)
(0.6197 1.12359 0)
(1.17939 2.63343 5.62276e-20)
(1.0626 2.36664 0)
(0.831692 2.23351 -1.86004e-21)
(0.829556 2.47938 0)
(0.917564 2.56219 2.21464e-20)
(0.950001 2.51807 -1.48375e-20)
(0.843354 0.14593 0)
(0.812224 0.151093 8.16679e-20)
(0.927941 0.126 4.13975e-19)
(0.866814 0.116494 -1.66661e-19)
(0.852246 0.0666733 -5.02507e-19)
(1.03379 0.213682 -2.25448e-19)
(0.954624 0.273104 -1.59669e-20)
(0.901051 0.271339 3.75521e-19)
(0.968427 0.197821 2.76995e-19)
(0.935334 0.158947 -5.18456e-19)
(0.909676 0.172767 6.73521e-20)
(0.934929 0.235139 -1.30667e-19)
(0.912047 0.193993 0)
(0.970416 0.158926 2.47598e-19)
(1.00934 0.163008 0)
(1.0056 0.189464 0)
(1.07329 0.109029 7.67754e-20)
(1.03335 0.154043 -1.29632e-20)
(1.02777 0.216183 -4.29695e-20)
(1.06412 0.189127 0)
(1.0237 0.0273406 2.11025e-19)
(1.04051 0.0473927 2.49821e-19)
(1.03907 0.0319444 -2.09509e-19)
(1.0372 0.0517951 -1.68245e-19)
(1.01698 0.0533091 -2.84943e-19)
(0.975036 0.123788 0)
(0.984042 0.076517 0)
(0.968729 0.0429741 -1.99087e-19)
(0.936016 0.0576615 8.35334e-20)
(1.02445 0.0824779 2.37108e-19)
(1.03979 0.110391 -2.36416e-19)
(1.04283 0.135178 2.16294e-19)
(1.00805 0.123035 0)
(1.04906 0.0968376 0)
(1.03638 0.0793704 -9.91228e-20)
(1.03405 0.0801005 -1.90148e-19)
(0.56773 1.07561 -1.05034e-19)
(0.614565 1.45051 2.04891e-19)
(1.15435 2.76251 1.15542e-19)
(1.2231 3.09794 -7.35842e-20)
(1.24453 2.73529 5.81995e-19)
(1.27793 2.71893 -3.49073e-19)
(1.20359 2.35262 -7.77029e-21)
(1.20885 3.0017 2.05916e-19)
(1.22621 2.96677 -2.33317e-19)
(1.21539 3.25108 -2.73135e-19)
(1.37767 2.98218 3.78252e-19)
(1.37099 2.89871 0)
(0.514096 0.863119 -1.16635e-20)
(0.161362 1.2901 3.66498e-19)
(0.526696 0.531396 3.49713e-19)
(0.360623 0.301083 3.81672e-19)
(0.561463 0.419667 4.00756e-19)
(0.562388 0.48686 -6.39035e-19)
(0.56458 0.50504 5.26576e-19)
(0.525693 0.456196 -2.10011e-19)
(0.474721 0.393751 4.81092e-19)
(0.774053 0.256038 -1.83642e-19)
(0.729454 0.303831 0)
(0.720073 0.247384 1.03454e-20)
(0.7303 0.509048 1.84485e-19)
(0.70174 0.472098 -6.8142e-19)
(0.627138 0.483297 1.9098e-20)
(0.642168 0.45656 0)
(0.637865 0.731394 1.44398e-19)
(0.783659 0.751888 4.86928e-20)
(0.710472 0.838621 -6.53772e-20)
(0.831197 0.788754 -1.40229e-20)
(0.868086 0.829779 1.52125e-20)
(0.876707 0.832935 -1.55749e-20)
(0.805348 0.622551 -2.1149e-19)
(0.88014 0.678717 1.30303e-20)
(0.939123 0.694845 0)
(0.927669 0.671655 -1.04496e-20)
(0.98067 0.310547 5.76293e-20)
(1.09596 0.280103 -2.99878e-21)
(1.01863 0.247364 9.19618e-20)
(0.965016 0.346617 -1.34729e-19)
(1.01636 0.403651 0)
(1.05604 0.390322 0)
(0.88686 0.356989 5.53939e-21)
(0.82289 0.287003 0)
(0.846382 0.272613 1.9538e-19)
(0.879355 0.279138 -5.91528e-21)
(0.906493 0.421397 7.25892e-19)
(0.868566 0.475431 1.8407e-19)
(0.874553 0.444448 -2.39303e-19)
(0.804167 0.428876 2.56677e-19)
(0.790583 0.426741 1.76002e-19)
(0.75659 0.410587 -1.73098e-19)
(1.02767 -0.00219519 2.24894e-19)
(1.01981 -0.000412058 0)
(1.01827 0.000462246 1.49196e-19)
(1.02202 -0.00113711 -3.35482e-19)
(1.02139 0.0035104 1.62036e-19)
(1.02082 0.0101825 -3.40755e-19)
(1.02189 0.00960846 0)
(1.02058 0.0106604 -7.19656e-20)
(1.01624 0.00747005 1.80633e-19)
(1.01694 0.0103252 -9.06757e-20)
(1.01762 0.00950957 6.63801e-20)
(-0.142759 1.09554 0)
(-0.201806 1.27736 0)
(-0.0336387 1.03411 0)
(-0.0513754 0.945891 0)
(0.243367 1.32783 -1.02916e-18)
(0.243846 1.26247 3.43026e-19)
(0.283551 1.55913 2.12202e-19)
(0.283732 1.32829 -2.11391e-19)
(-0.0539822 1.47414 8.40101e-19)
(0.0245483 1.46038 -6.22472e-19)
(0.218206 1.25223 6.59564e-21)
(0.140472 1.18085 6.66613e-19)
(0.0284375 1.14756 9.42455e-20)
(-0.0755424 1.2094 9.52548e-20)
(0.132302 2.46272 3.08518e-19)
(0.117741 2.48043 0)
(0.232109 2.10312 -2.90309e-20)
(0.235884 1.77978 -1.21953e-19)
(0.229788 2.0817 1.97136e-20)
(0.217034 2.44441 0)
(0.26107 2.4058 -1.39533e-19)
(0.297743 2.4095 9.90784e-20)
(0.228895 2.00603 5.5488e-20)
(0.185865 2.19591 2.76807e-20)
(0.164283 2.32957 0)
(-0.211356 2.30453 7.50598e-19)
(-0.287275 2.57505 5.06249e-19)
(-0.320627 2.44243 0)
(-0.150333 2.63987 -1.959e-20)
(-0.0775336 2.56302 -3.60155e-19)
(-0.348126 1.50133 -2.65886e-20)
(-0.267344 1.5411 4.00573e-19)
(-0.281385 1.61531 -9.21368e-20)
(-0.390138 1.60114 -1.59376e-19)
(-0.391796 1.54355 0)
(-0.249966 1.60922 0)
(-0.0988775 1.64678 -1.02391e-20)
(-0.161329 1.68008 4.62553e-21)
(-0.207142 1.63196 0)
(-0.126745 1.54483 -1.27376e-20)
(-0.0699593 1.57673 1.875e-20)
(1.03713 0.000582025 0)
(1.04121 -0.00141035 -2.14566e-20)
(1.0477 0.0145539 -1.58493e-19)
(1.04996 0.0140075 0)
(1.05042 0.0126104 0)
(1.04235 0.00363989 -6.93484e-21)
(1.03623 0.0039477 2.63742e-19)
(1.03823 0.0113266 3.18557e-19)
(1.02917 0.0185472 0)
(1.0282 0.0190209 0)
(1.04254 0.0203629 1.59669e-19)
(1.03428 0.0196081 0)
(1.03153 0.0191684 0)
(-0.162687 1.89336 0)
(-0.121822 1.81966 1.24592e-21)
(-0.134574 1.8749 6.07195e-21)
(-0.132992 1.70235 0)
(-0.155094 1.79365 -7.47785e-22)
(-0.119365 1.77049 -5.25228e-21)
(-0.112381 1.74388 0)
(0.402353 1.68752 0)
(0.360018 1.30132 6.84314e-19)
(0.285631 1.35897 0)
(0.432353 1.27113 -8.73412e-19)
(0.481168 1.43956 0)
(0.441885 1.38085 4.12202e-19)
(1.02513 2.70132 -3.95133e-21)
(0.947234 2.40571 -2.63202e-19)
(0.87971 2.15157 3.18462e-19)
(0.845611 2.35628 1.12592e-19)
(0.842758 2.51943 0)
(0.904882 2.51197 0)
(0.891746 2.37012 0)
(0.89544 2.33929 -4.18868e-19)
(0.697408 2.50027 -4.67495e-21)
(0.806771 2.48802 -1.07837e-20)
(0.817239 2.46134 8.23841e-21)
(0.686248 2.3687 0)
(0.794773 2.36567 0)
(0.750493 2.37684 -2.26079e-19)
(0.775988 2.50483 0)
(0.583054 1.08606 0)
(0.478217 0.931723 1.68916e-20)
(0.52062 0.962341 -2.02341e-22)
(0.505532 1.05142 0)
(0.507347 1.00766 -2.28466e-20)
(0.733132 0.865827 1.77877e-20)
(0.756675 1.00178 0)
(0.728602 0.958883 -6.98314e-20)
(0.611569 1.02414 0)
(0.613701 0.934589 0)
(1.15807 2.78078 6.44371e-20)
(1.13622 2.84579 1.30791e-19)
(0.927406 2.3749 -2.96517e-19)
(0.895275 2.34783 3.80832e-20)
(1.12079 2.74947 0)
(1.0721 2.71945 -4.56563e-20)
(1.07796 2.49156 -6.7108e-20)
(0.969991 2.22533 -2.96853e-20)
(0.482961 1.37229 0)
(0.488803 1.06697 9.25371e-20)
(0.541402 1.15012 0)
(0.857455 0.215267 0)
(0.821364 0.175937 0)
(0.78089 0.157874 0)
(0.849925 0.219765 -3.07045e-19)
(0.797173 0.213815 1.9174e-19)
(0.941597 0.0513476 -1.7212e-19)
(0.952313 0.10155 0)
(0.925453 0.104493 7.79304e-20)
(0.887683 0.0802815 3.19706e-19)
(0.881804 0.0482044 -1.96262e-19)
(1.16615 3.37629 -9.92526e-19)
(1.21193 3.29591 0)
(1.16655 3.40269 -1.95264e-18)
(0.6532 3.56324 1.67656e-18)
(0.879837 3.12814 3.9221e-19)
(0.49584 0.884818 2.09541e-19)
(0.431295 0.869926 0)
(0.357819 0.560044 -8.18637e-20)
(0.43555 0.701535 3.68608e-19)
(0.531792 0.5321 -1.10426e-19)
(0.516557 0.554945 1.26758e-19)
(0.664898 0.528336 2.62101e-19)
(0.687646 0.539637 0)
(0.635862 0.629371 0)
(0.595165 0.557011 0)
(0.935632 0.58256 -5.48458e-20)
(0.86908 0.521554 -1.77966e-19)
(0.890198 0.554147 7.91714e-20)
(0.925048 0.495844 -1.2986e-19)
(1.0217 0.467165 0)
(1.03116 0.55742 -3.23113e-21)
(0.82405 0.388175 -3.90038e-19)
(0.823991 0.373158 -4.51818e-19)
(0.777142 0.383939 3.06296e-19)
(0.773196 0.353398 -3.47549e-19)
(0.82047 0.314747 -2.5821e-19)
(0.778257 0.314789 3.1771e-19)
(1.02627 0.00366818 -1.66793e-19)
(1.02624 0.00341347 3.38952e-19)
(1.02979 -0.00241561 2.13549e-19)
(1.03106 -0.00338289 -2.5709e-19)
(1.03566 -0.000964753 0)
(1.03273 0.000699535 -4.12884e-19)
(0.147906 1.84649 -1.35015e-19)
(0.133348 1.78342 0)
(0.231937 1.80787 -6.58826e-19)
(0.232451 1.78283 5.85771e-19)
(0.264972 1.64707 -3.96456e-19)
(0.293824 1.65182 0)
(-0.305898 1.91686 0)
(-0.273281 1.74065 4.73726e-21)
(-0.215951 1.73836 -4.30189e-21)
(-0.18185 1.79621 5.16591e-21)
(-0.196558 1.91118 -4.39697e-21)
(-0.232694 1.91999 -1.49685e-21)
(0.487359 1.38192 4.38484e-19)
(0.495656 1.38409 -4.70798e-19)
(0.447221 1.27323 4.32796e-19)
(0.439252 1.28986 -2.70354e-20)
(0.613527 1.2924 0)
(0.538653 1.36498 5.5618e-19)
(0.552111 1.38603 -5.38575e-19)
(0.454008 1.2611 -4.15445e-19)
(0.496896 1.22138 0)
(0.546462 1.18664 0)
(0.664561 2.45812 6.88221e-21)
(0.673319 2.47527 5.1159e-19)
(0.724332 2.49378 -3.51346e-19)
(0.629388 2.48184 -1.17109e-19)
(0.565359 2.57732 9.28183e-20)
(0.513518 2.55019 -2.84593e-19)
(0.96096 2.36606 -1.71771e-19)
(1.00312 2.3913 0)
(0.895265 2.13649 -2.31938e-19)
(1.04092 2.6999 0)
(1.04018 2.68521 0)
(0.623451 2.29546 2.56684e-19)
(1.04489 3.1772 4.95577e-19)
(0.917051 3.04641 -4.4529e-19)
(0.294239 0.975023 0)
(0.347681 0.847153 -1.47082e-19)
(0.492005 0.793779 -5.85745e-20)
(0.409523 2.05161 0)
(0.47375 2.79486 -2.7307e-19)
(0.436326 2.56156 0)
(0.654027 0.67274 -2.98477e-19)
(0.726233 0.653796 3.79795e-19)
(0.760327 0.601413 -3.70942e-19)
(0.656908 0.633557 -4.45869e-20)
(0.717113 0.581427 -1.82457e-19)
(1.00668 2.78432 -3.76739e-19)
(1.03769 2.84169 3.04353e-19)
(0.652947 2.19862 2.66417e-20)
(0.602846 1.73756 -5.13518e-20)
(0.704003 1.93006 1.32411e-19)
(0.990492 2.46765 -6.50308e-20)
(0.992657 2.47139 -1.8234e-19)
(0.675095 1.88383 -6.51897e-21)
(0.456975 1.34894 -9.02902e-20)
)
;

boundaryField
{
    wall-4
    {
        type            noSlip;
    }
    velocity-inlet-5
    {
        type            fixedValue;
        value           uniform (1 0 0);
    }
    velocity-inlet-6
    {
        type            fixedValue;
        value           uniform (0 3 0);
    }
    pressure-outlet-7
    {
        type            zeroGradient;
    }
    wall-8
    {
        type            noSlip;
    }
    frontAndBackPlanes
    {
        type            empty;
    }
}


// ************************************************************************* //
