/*--------------------------------*- C++ -*----------------------------------*\
  =========                 |
  \\      /  F ield         | OpenFOAM: The Open Source CFD Toolbox
   \\    /   O peration     | Website:  https://openfoam.org
    \\  /    A nd           | Version:  13
     \\/     M anipulation  |
\*---------------------------------------------------------------------------*/
FoamFile
{
    format      ascii;
    class       volScalarField;
    location    "74";
    object      p;
}
// * * * * * * * * * * * * * * * * * * * * * * * * * * * * * * * * * * * * * //

dimensions      [0 2 -2 0 0 0 0];

internalField   nonuniform List<scalar> 
918
(
0.556973
1.17858
0.000513231
0.556431
-0.00951193
1.14556
-0.512583
0.653291
0.537179
-0.107311
-0.0558326
0.539536
1.00636
0.772344
-1.12416
-0.0117777
0.651365
-0.382327
0.5363
-0.0629201
0.68249
0.543713
0.546737
0.537314
0.596878
0.745093
0.887672
0.0262571
0.0133215
0.0061854
-0.0145301
-0.0360312
-0.0308938
1.0292
1.0803
1.103
0.504903
0.33355
-0.378159
-0.451519
-0.43804
-0.543279
0.653626
0.653911
-0.215589
0.655574
0.65567
0.524189
0.536548
0.537461
0.538474
0.537463
0.538841
0.402815
-0.108221
-0.139599
-0.087914
-0.0812958
0.0504581
-0.0562248
-0.0583865
-0.0545403
-0.0536001
0.453994
0.533891
0.530326
0.54384
0.553035
1.11813
1.09005
1.11619
1.0299
1.04636
0.984334
0.956988
0.792775
0.814876
0.758066
0.743766
-1.55465
-2.50345
-0.53559
-0.28554
-0.0153367
-0.0102182
-0.00473513
0.648714
0.649848
0.650885
0.652696
1.07866
-0.379716
-0.480843
0.536444
0.535255
0.543566
0.544268
0.540289
0.539379
-0.0539627
-0.050914
-0.0531539
-0.058299
-0.0564743
0.664589
0.667161
0.537842
0.534843
0.560598
0.58106
0.571169
0.276904
0.607958
0.623986
0.579426
0.738336
0.732286
0.741042
0.861284
0.825513
0.92453
0.947658
0.0185089
-0.00168174
-0.0164425
-0.0198226
-0.0187834
0.500729
0.493263
0.52095
0.508344
0.510855
0.250496
0.117428
0.418379
0.44317
-0.297683
-0.365129
-0.430477
-0.460997
-0.568844
0.613024
0.654199
0.652965
-0.225056
-0.153362
-0.287282
-0.0802547
-0.143443
0.514439
0.521464
0.516456
0.532026
0.526489
0.528454
0.540823
0.537891
0.539452
0.464904
0.588398
0.329078
0.293549
-0.243468
-0.154996
-0.242809
-0.0712152
-0.0688254
0.0645854
0.0902976
0.0371328
0.0252329
-0.0649381
-0.059773
-0.0621457
-0.0524837
-0.0518967
0.446718
0.435453
0.466697
0.474267
0.520204
0.52172
0.526236
0.524264
0.907736
0.930145
0.93771
0.911385
-3.49041
-6.26751
0.0381047
0.173981
-0.00666683
-0.0109798
0.00442792
-0.0106705
-0.00347522
-0.00458447
-0.0100998
-0.0112245
-0.00586487
-0.00476596
0.643217
0.644175
1.00108
1.00839
0.9764
0.92934
0.524682
0.526744
0.532233
0.528118
-0.050914
-0.0503719
-0.0502
0.657945
0.66218
0.660247
0.238238
0.148139
0.328169
0.35744
0.636717
0.625744
0.635069
0.640169
0.676934
0.955074
0.973296
0.97149
0.979816
1.02379
1.04014
1.0056
0.480118
0.490131
0.485061
0.523881
0.521728
0.522591
0.519062
0.519994
0.518247
-0.0327437
-0.412014
0.490624
0.507176
0.492837
0.494939
0.693105
0.771661
0.652103
0.653124
0.652957
-0.0106421
-0.0691562
0.248626
0.214338
0.386044
0.422588
0.401487
0.879099
0.839113
0.889386
0.862572
0.823803
0.849962
-0.363633
-1.86036
-0.981049
0.522546
0.337528
0.424707
0.00705284
-0.00959326
-0.00506263
1.00114
1.07315
0.644203
0.819229
0.821684
0.710882
0.73933
0.799864
0.72667
0.76083
0.793665
0.771111
0.568899
0.503812
0.520078
0.840581
0.896151
0.117626
0.055401
0.0116628
0.109435
0.16703
0.140937
1.03307
0.949687
1.01969
0.534605
0.535329
-0.00505316
-0.0176683
0.539585
0.539642
-0.0171968
-0.00459502
0.407127
-0.831949
0.0958085
0.528181
0.518043
0.535196
-0.093292
0.354296
-0.0564989
0.04616
-0.0103433
0.529592
0.465132
0.424146
-0.00151264
-0.0212343
-0.053346
-0.213697
0.532275
0.53058
0.534664
0.535602
0.536284
-0.0196057
-0.0151212
-0.0105344
-0.0499825
-0.0419418
-0.0550753
0.499066
0.518514
-0.171747
0.534811
0.536948
0.536765
0.530038
0.535664
0.533919
-0.0124463
-0.0179961
-0.0192943
0.218093
0.351001
0.645141
0.730514
0.618238
0.394684
0.160416
0.549324
0.611779
0.518439
0.670921
0.64963
0.651742
0.161298
0.0108248
0.170363
0.112234
0.526047
0.524784
0.516294
0.51325
0.530065
0.528182
0.532737
0.529766
0.532715
0.534094
-0.0499471
-0.0757971
-0.0854268
-0.151961
0.309088
0.570108
0.253759
0.283023
0.140358
-0.0502446
-0.0521037
-0.0537324
-0.0606708
-0.000256802
-0.0262864
0.0408418
0.0409534
0.0129504
-0.0127046
-0.0106912
-0.0217784
-0.0159017
0.522864
0.52288
0.527266
0.535984
0.474809
0.478598
0.443357
0.464174
0.449374
0.38792
0.423411
0.398551
-0.00936264
4.61296e-05
-0.0062745
-0.0192591
-0.0152805
-0.0352481
-0.0319821
-0.0274818
-0.0231584
-0.0301298
-0.0477999
-0.0509059
-0.171714
-0.287587
0.987704
0.907962
0.137322
0.521417
0.527879
0.524637
0.529576
0.532704
0.533497
0.531202
0.527747
0.518753
0.520256
0.516951
0.517978
-0.10281
-0.244691
-0.073011
-0.148161
0.145611
0.627795
0.362888
0.297901
0.293351
0.522749
0.914155
0.696599
0.663829
0.659162
-0.344724
0.0433477
-0.281279
0.332712
0.160785
0.646325
0.693838
0.713663
0.66317
0.617053
-0.0999119
0.555632
-0.0761766
-0.0234986
0.178591
0.0533768
0.654271
0.638216
0.645691
0.64544
0.65707
0.640273
0.621971
0.622414
0.641095
0.646658
0.481045
0.248728
0.19913
0.160667
0.642743
0.514276
0.562933
0.488318
0.521393
0.523901
0.522559
0.503905
0.511505
0.507018
0.513574
0.517238
0.525787
0.526275
0.521518
0.523646
-0.0564447
-0.0624047
-0.0259615
-0.136027
-0.128651
-0.190924
-0.0598673
0.074008
0.035686
0.236648
0.339929
0.051266
-0.0575191
-0.0303244
0.012056
0.17923
0.208032
0.0732018
0.160516
0.152197
0.13307
0.236003
0.239223
-0.0315262
-0.0327633
-0.0377695
-0.040611
0.0173026
0.0886891
0.0980449
-0.00964132
-0.0148186
-0.048422
-0.0489321
-0.0238274
-0.0288358
-0.0239822
0.00339553
-0.0538077
-0.0216609
-0.00787646
-0.0075074
-0.00758697
-0.0129829
0.517715
0.519425
0.51967
0.528055
0.540162
0.554843
0.521121
0.497069
0.487838
0.490848
0.463797
0.474068
0.469935
0.483494
0.504692
0.513307
0.51159
0.514404
0.496729
0.49851
0.484984
0.488619
0.463821
0.44436
0.432349
-0.0439731
-0.00628011
-0.0138594
-0.0397707
-0.0110371
-0.0226186
-0.0124103
0.00630879
-0.0103172
-0.0110561
-0.0208797
-0.0278817
-0.0275617
-0.0736294
0.0132266
-0.18554
-0.220632
-0.294112
0.889944
1.01417
0.808888
0.581669
0.602365
0.845945
0.930064
0.541943
0.734385
0.757506
0.587751
0.854755
0.526271
0.525863
0.523464
0.522942
0.524164
-0.00734369
0.0994389
0.0965859
0.160766
0.277393
0.388798
0.320669
0.195045
0.324891
0.327321
0.620739
0.632786
0.588516
0.612441
0.61318
0.424606
0.500216
0.551979
0.513158
0.565429
0.587221
0.540934
0.574132
0.523209
0.478548
0.474713
0.424257
0.443875
0.419358
0.402484
0.516198
0.493248
0.504049
0.494379
0.515925
0.543149
0.540231
0.56226
0.577396
0.497596
0.452536
0.461923
0.492115
0.45361
0.469182
0.485066
0.233605
0.135995
0.218709
-0.0659102
0.00388022
-0.00827845
-0.0571376
-0.00535092
0.278716
-0.411647
-0.388637
-1.01499
0.504774
0.952423
0.582874
0.56027
0.658481
0.645908
0.652339
0.669156
0.664834
0.631268
0.639932
0.644629
0.592044
0.612915
0.631533
0.6274
0.523941
0.380074
0.38011
0.327134
0.197368
0.237573
0.433059
0.357455
0.282702
0.282773
0.455734
0.342046
0.412497
0.445228
0.376432
0.331183
0.534181
0.600574
0.593521
0.567342
0.476947
0.488823
0.513404
0.546843
0.570168
0.603415
0.513012
0.518965
0.520198
0.517664
0.514927
0.518037
0.518326
0.520926
0.521494
0.524529
0.52361
-0.0533433
-0.0394455
-0.0509464
-0.0627069
-0.0186715
-0.0214827
0.0220927
0.0099624
-0.0167357
-0.0125717
-0.0339462
-0.0379377
-0.0347035
-0.0270384
0.102271
0.114941
0.0998232
0.0595098
0.249835
0.379835
0.454113
0.328927
0.22322
0.24768
0.266252
-0.0137396
0.0120236
-0.000538436
0.0387836
0.0308009
-0.0409417
-0.0451132
-0.0413
-0.0327943
-0.0247549
-0.041446
-0.0470213
-0.0377184
-0.0425527
-0.0456011
-0.0497444
0.499345
0.492824
0.494411
0.488343
0.487069
0.501313
0.505631
0.50758
0.51302
0.51538
0.505426
0.510834
0.514827
-0.0137448
-0.0369084
-0.040203
-0.0321552
-0.0336577
-0.0309957
-0.0326095
0.123526
0.054557
0.0582512
0.0109967
-0.121708
-0.063632
0.492375
0.491194
0.480262
0.72133
0.570527
0.491591
0.588788
0.69442
0.276439
0.472811
0.308171
0.888167
0.785076
0.931306
0.542016
0.246326
0.411417
0.453074
0.267232
0.343536
0.323606
0.212817
0.243434
0.282323
0.380948
0.266495
0.243561
-8.21118e-05
0.190964
0.30236
0.284289
0.408406
0.468872
0.267795
0.187365
0.142259
0.604838
0.624644
0.638027
0.610031
0.632613
0.581257
0.573359
0.588674
0.596679
0.590688
-0.743339
-0.449546
-1.39684
-0.720635
-0.264558
0.535332
0.508522
0.769454
0.644534
0.676666
0.661095
0.620881
0.59113
0.616757
0.638268
0.338264
0.448751
0.423885
0.429956
0.332873
0.262843
0.561365
0.558989
0.591808
0.615778
0.587755
0.61808
0.510816
0.510538
0.510006
0.506243
0.504501
0.506852
0.057757
0.0251149
0.0663882
0.0485693
0.0263045
0.0147087
-0.0135512
-0.0237066
-0.0302023
-0.0294511
-0.014929
-0.0110196
0.172593
0.109553
0.0299616
0.0587124
-0.00222023
-0.0707101
-0.0900849
0.0158637
0.112078
0.102254
0.405355
0.654402
0.474492
0.641946
0.484835
0.540485
0.468556
0.459665
0.484491
0.380271
0.460738
0.252904
-0.255662
-0.164975
0.795373
0.805534
0.580995
0.407085
0.174427
0.350897
0.539736
0.468938
0.504341
0.573413
0.560173
0.0317188
0.0883834
0.37823
0.604969
0.242059
0.232934
0.226331
0.411615
0.329272
)
;

boundaryField
{
    wall-4
    {
        type            zeroGradient;
    }
    velocity-inlet-5
    {
        type            zeroGradient;
    }
    velocity-inlet-6
    {
        type            zeroGradient;
    }
    pressure-outlet-7
    {
        type            fixedValue;
        value           uniform 0;
    }
    wall-8
    {
        type            zeroGradient;
    }
    frontAndBackPlanes
    {
        type            empty;
    }
}


// ************************************************************************* //
