/*--------------------------------*- C++ -*----------------------------------*\
  =========                 |
  \\      /  F ield         | OpenFOAM: The Open Source CFD Toolbox
   \\    /   O peration     | Website:  https://openfoam.org
    \\  /    A nd           | Version:  13
     \\/     M anipulation  |
\*---------------------------------------------------------------------------*/
FoamFile
{
    format      ascii;
    class       surfaceScalarField;
    location    "74";
    object      phi;
}
// * * * * * * * * * * * * * * * * * * * * * * * * * * * * * * * * * * * * * //

dimensions      [0 3 -1 0 0 0 0];

internalField   nonuniform List<scalar> 
1300
(
3.75095
5.62643
-3.31872
3.75095
-7.73462
5.62643
-4.39506
4.39506
-0.33816
0.33816
1.87639
1.87457
-2.68958
2.68958
-2.05309
2.05309
-2.52211
2.52211
-5.24644
5.24644
-5.06845
5.06845
4.65349
-4.65349
-6.31541
6.31541
-0.939021
0.939021
-3.68466
3.68466
3.1696
-3.1696
-2.03957
2.03957
0.0570508
-0.0570508
-0.553471
4.30442
3.19748
3.19748
-2.01196
2.01196
-4.86914
4.86914
6.21804
-6.21804
5.29786
-5.29786
-1.97915
-2.45904
1.78613
-11.4957
-5.94849
-5.94849
-8.44039
8.44039
-2.81396
2.81247
2.94635
-2.94635
-1.77149
1.77149
-4.35764
-0.0374214
-4.35764
4.36473
0.0303371
4.36473
-0.441147
0.102987
-0.441147
4.00207
-4.00207
0.244142
0.0940175
0.244142
3.06537
-3.06537
-1.87712
3.7535
1.87384
-1.8719
6.17632
-1.87905
3.75362
-6.01418
6.01418
-2.93422
0.244633
-2.93422
2.47674
0.212841
2.47674
-6.85033
6.85033
-2.09207
0.0389738
-2.09207
2.02532
0.0277777
2.02532
2.88168
-2.88168
-2.62922
0.107102
-2.62922
2.39229
0.129822
2.39229
0.353521
5.27291
-5.97995
8.79242
-5.27291
0.0264689
5.20838
0.0380641
5.20838
-5.10585
0.0373953
-5.10585
5.01307
0.0553816
5.01307
4.73811
-0.0846115
4.73811
-4.77193
0.118433
-4.77193
-3.38604
-4.05095
-6.46624
0.150822
-6.46624
-1.03179
0.0927714
-1.03179
0.822454
0.116567
0.822454
-3.68657
3.68657
-4.10556
0.420898
-4.10556
3.12396
0.0456407
3.12396
1.86849
1.88247
5.61944
-5.61944
2.44984
-2.00544
-0.0341348
-2.00544
-2.11211
-3.18575
2.11211
-0.0725396
-0.164339
0.22139
-0.164339
3.15944
0.0380388
3.15944
2.2368
0.155495
-2.2368
0.224835
3.278
-3.278
1.33853
0.673428
1.33853
-5.56459
5.56459
4.95613
0.0569406
-4.95613
0.0869924
6.15614
0.0618975
6.15614
-6.19951
-0.0185368
-6.19951
2.53139
-4.99043
-2.62724
6.13274
0.182673
-6.13274
0.184254
2.91831
0.0280403
2.91831
-2.9194
2.9194
-2.98479
0.0384397
-2.98479
-2.17008
0.398589
-2.17008
1.47329
0.298204
1.47329
-4.25971
-0.0979347
-4.25971
-4.25424
0.14868
4.25424
0.110485
1.13067
-1.13067
-0.578386
0.137239
-0.578386
-4.12552
-0.134187
4.12552
-0.123453
-3.89149
-0.11058
-3.89149
-3.02458
0.039789
3.02458
0.0407949
3.1129
0.0465475
-3.1129
0.0475217
-1.87082
3.75328
-1.88014
3.75397
-5.63469
-0.379487
-5.63469
6.32502
-0.310835
6.32502
3.32656
0.358108
-3.32656
0.392339
2.30605
0.170693
2.30605
-6.81165
-0.0386782
-6.81165
6.83606
0.0142602
6.83606
2.17904
0.127012
-2.17904
0.086971
2.00463
0.0206828
2.00463
2.90186
-0.0201761
2.90186
-2.87571
-0.00596692
-2.87571
2.79198
-2.79198
2.71696
0.0750141
-2.71696
0.0877476
-11.1331
11.1145
-0.0352269
-11.0978
5.17315
5.17315
4.16432
0.573786
4.16432
-4.98982
0.217896
-4.98982
2.68431
-5.31155
3.06885
-6.45488
4.66213
-16.1578
4.30136
-8.35231
6.70462
-6.70462
6.59451
0.110109
-6.59451
0.128271
-1.15019
0.118395
-1.15019
-3.08488
-0.601692
-3.08488
4.32831
-0.641731
4.32831
-3.02812
3.02812
-3.07741
0.0492882
3.07741
0.0465472
1.994
0.0106351
-1.994
-0.0114402
0.188788
0.0553541
-0.188788
0.0244489
3.49186
-0.213865
3.49186
-3.07933
-0.198664
-3.07933
-1.24904
0.0988527
1.24904
0.089495
-5.81463
0.250034
-5.81463
-11.1908
0.0929417
-11.1527
-6.10656
-6.10656
2.33382
11.1262
-2.89365
0.0179359
2.89365
0.0246603
2.97516
0.0529592
-2.97516
0.0557629
-2.8589
0.0669257
2.8589
0.0604974
-2.54475
0.374668
-2.54475
-1.07253
1.07253
-1.2375
0.164971
1.2375
0.235791
1.40301
-0.27234
1.40301
0.705787
0.116667
-0.705787
0.127401
-3.79113
-0.100362
-3.79113
6.56011
-0.235097
6.56011
-2.96407
-0.11526
2.96407
-0.0622154
-0.0333221
11.1479
-5.13983
0.0339775
5.13983
-11.2097
11.2437
-3.21499
0.670236
3.21499
0.949333
5.28368
0.280913
-5.28368
0.293858
6.7874
0.0486671
-6.7874
0.082782
-2.59241
-0.49247
-2.59241
-5.05326
-0.581429
5.05326
-0.724957
-11.475
-0.203004
11.678
-11.4196
6.01763
0.138512
-6.01763
11.3822
-1.03096
-0.099708
1.03096
0.0415641
1.73061
-0.327598
1.73061
3.68879
-0.196932
-3.68879
-0.102333
-6.71455
-0.0971002
6.71455
-0.154435
-2.14759
-0.444818
2.14759
-0.416985
-4.26712
4.30516
1.9092
-2.38472
-2.60571
-5.57047
1.85185
1.90143
4.30169
-10.1409
-6.01694
-9.95663
7.26141
-6.96755
-9.2407
9.15608
7.89653
-8.00711
-5.78481
5.83136
6.48292
-6.44213
1.87882
1.87469
8.02065
-7.77602
-15.5924
15.2129
7.56124
-7.52227
15.7392
-15.7778
-17.8179
17.8666
-5.70652
5.81362
-6.74053
6.73456
-6.97622
6.91401
-2.84
-3.61489
13.0948
-12.944
8.58548
-8.61962
-8.61881
9.03971
3.3826
0.922563
3.42915
-1.88214
3.76096
-1.87148
3.78068
2.72116
-5.56116
2.59039
-5.1961
4.36148
4.224
-4.28894
-1.28152
-5.92486
5.9529
-5.81291
5.87341
9.13954
-9.17697
-1.88517
3.75986
-1.8688
3.77024
-3.42502
-2.3598
3.37938
0.922313
8.05984
5.03496
-8.24251
-1.71412
-8.04312
7.84619
-8.23212
8.03346
-0.433634
5.81898
-5.38535
4.43551
-1.5626
7.38158
5.69881
5.91671
5.8661
-5.58519
1.10145
-6.4868
-6.3998
-2.24594
2.38318
2.16199
-2.06798
6.14555
1.75099
6.02209
-5.76419
-2.24293
-5.86455
3.82062
2.01075
3.8699
4.07847
2.40445
4.11826
3.03043
-3.03597
0.0055383
-3.05664
6.08707
0.723888
-5.41644
-4.49412
4.9762
3.04445
5.18904
-5.55415
-2.22186
-5.16182
-9.53206
-6.06033
-10.1135
10.0743
5.13857
9.76349
-11.9432
11.7888
4.81313
2.74811
4.84091
-4.95588
-2.56638
-4.86891
11.6315
-2.63846
-8.99309
-10.3019
-7.51599
10.2876
5.45151
10.9434
6.92312
11.0262
4.41747
7.21408
-9.86899
2.353
-3.86816
-1.83836
-3.78042
3.67419
2.13943
3.80402
-4.21757
-2.52296
-4.19963
-4.29592
-2.6803
4.3161
2.41846
-4.41753
-3.81459
4.53279
2.38122
4.03304
-10.05
4.31927
-7.93415
-9.18094
-3.76304
-9.05267
3.5236
2.61178
-6.13538
-2.03756
8.51519
-4.29119
7.23367
-5.1835
-3.43612
-5.19494
-6.88378
-1.73503
-6.7351
-8.87345
8.38099
-9.1693
8.52757
12.505
-5.64014
-6.86483
-3.96845
-2.47367
3.92093
-0.491787
-3.71047
3.71601
0.0504884
3.83117
4.75373
4.26195
-3.88408
-1.92883
-3.82832
3.82395
2.04946
3.89087
6.83998
2.29957
6.87032
-6.61377
-2.5632
-6.7117
9.03421
-8.63562
2.8336
-2.73474
5.39931
2.63415
-5.18545
-2.85768
6.21063
-3.2192
-2.99143
-12.1985
10.5273
1.67119
-4.8169
-0.381394
-0.438445
-5.48794
-3.75276
5.36951
0.547199
11.0745
7.32173
-5.51194
5.76198
6.16608
6.22302
-0.176785
5.80339
-5.13315
5.2532
-2.6049
-2.6483
5.4755
-5.60969
-1.23621
-5.5249
4.2887
0.412406
1.46859
-1.2472
-1.77623
-0.469712
-1.64883
1.26367
0.898324
1.31902
0.954553
1.42863
-2.95728
0.536361
2.42092
-2.00272
-1.53162
-3.82924
-1.14689
4.97613
5.74071
2.10548
-5.63838
-0.226167
2.52155
-2.40498
-0.783452
-3.04579
2.25467
-3.03812
-3.66966
-2.08463
5.75429
-3.36957
-0.458755
3.31661
0.553298
-3.82722
-2.09763
3.78878
0.329478
-3.12863
6.19136
-3.06272
-5.05746
2.52754
3.55953
4.53829
-4.7895
2.44771
2.34179
-1.22997
4.24638
0.942655
4.41708
-6.93587
4.71401
5.80443
3.23527
-6.16254
1.00073
-5.93515
8.55317
-7.37661
-1.17656
4.17315
4.38003
7.05875
5.44623
-5.67072
12.7295
-1.20707
-6.16955
7.14222
-3.90694
4.85046
-8.7574
-10.2967
4.12714
-9.12776
10.8983
-1.77055
-3.61887
-8.32433
12.7466
-1.20407
-11.5426
8.55942
-4.28472
-4.39326
8.67798
-6.92318
6.95964
-1.99508
-4.96457
-10.0901
-5.68768
10.1872
1.60151
-9.9254
12.2784
-2.71133
4.12104
0.719875
4.14172
3.30333
-5.48428
2.18094
3.61984
-5.61492
2.08383
-7.56811
-6.71897
12.0515
-5.33253
-10.482
-9.50018
-0.981829
2.53383
9.74457
-9.45695
7.41653
2.04042
3.30034
0.590529
-3.37536
-0.40506
0.236575
4.51703
-4.75361
4.04059
4.19608
3.26735
1.24969
3.84555
2.10735
-3.87021
-0.329428
-4.16418
1.48388
-1.74572
-3.69433
5.1782
-4.06746
0.373129
-2.74518
-3.4973
6.24248
-4.58353
3.03545
3.15591
5.08491
-4.91275
1.41545
-2.39253
-2.52022
2.65201
-4.39772
1.99347
3.18474
4.37468
0.560092
5.86923
6.18227
-8.48102
0.546864
11.2172
-9.50312
2.46069
8.56552
-9.87722
0.377037
-8.67563
0.998185
-5.28938
-5.13719
5.1948
-6.92983
-3.56261
6.21427
0.656044
-6.32476
-0.410344
-6.0316
-2.84186
-6.47642
-3.04112
-6.12819
-8.71183
-1.6511
-7.06073
6.72988
-6.67708
-3.43641
7.40204
1.12553
-7.40644
7.30673
-7.48505
7.15745
0.095421
3.62059
4.35737
1.88369
-2.39062
4.27431
-5.12093
7.42049
-8.72108
3.60015
4.20355
-6.76675
-4.51753
5.01927
4.01494
5.31747
8.87712
-10.3411
1.46395
-10.6441
11.9777
-1.33364
-16.4012
5.75712
-7.52409
2.43479
0.398809
2.55318
0.542229
2.49724
-3.03947
-2.19252
-2.10302
-2.44005
-3.46556
5.90561
1.08824
-3.53017
2.44193
-3.56648
4.65473
-0.216501
-3.31367
5.26957
-2.77233
5.66838
-3.78298
1.8854
3.4383
5.75372
-2.31542
4.39507
-1.76092
1.92817
-4.24359
-1.53739
-2.959
5.09843
-3.28348
3.65661
-0.344819
4.00143
-4.04765
0.828449
-0.780303
3.41578
3.64062
4.31686
-3.06717
2.91816
-4.67908
-1.32543
-4.11899
-0.934255
-0.256836
-3.69826
3.9551
5.97497
-6.23181
-5.23131
9.52188
-4.29058
7.68887
-5.37865
-2.31022
-4.24965
-4.38597
3.87498
1.9284
9.61728
0.209015
-5.58767
-4.92414
-3.9748
3.10024
2.15296
-1.73976
3.41095
2.1782
-0.709609
0.423783
0.89524
1.78305
-1.35927
0.327514
1.45554
-0.919689
1.70867
0.812875
-1.82534
0.176512
-1.31741
3.57208
1.10351
-2.00183
0.642559
0.974518
-3.57942
5.06156
-2.68966
-2.37189
6.03608
1.13817
-3.82784
4.38673
-3.97432
2.39245
-3.53934
-1.43538
-5.40971
-3.65872
-2.51936
4.96129
-3.38625
5.49173
1.29163
-5.26556
6.55719
-3.72795
1.64332
-3.05315
3.86602
-0.926777
-2.12637
2.90346
2.85083
-3.07875
0.0329661
-0.175298
2.40966
-2.58496
-0.628461
-2.63118
-4.57355
4.90303
-2.10521
4.55292
2.1691
-1.91716
6.47008
1.80873
-3.72588
-3.24874
-3.70749
-1.38409
3.15419
-0.577138
-4.29177
-5.54171
4.16476
0.252312
-7.05745
7.87783
-0.820377
-4.013
-0.701015
4.87416
-6.08732
0.472402
-4.00349
3.87434
4.81699
5.0693
-11.3239
-0.218689
-6.18531
1.12354
-7.30884
5.50356
-3.53704
7.66418
-10.318
6.88155
-9.19243
6.48762
-0.821227
6.23886
-4.05792
2.75423
-8.44191
-6.8404
5.54481
-2.7967
6.26469
-3.16995
9.43464
-5.88128
5.33273
4.10191
-1.03166
-4.16327
-5.32181
4.29014
0.0109182
4.15264
4.98032
-2.87297
4.6509
2.26978
-4.66232
-2.12794
-6.49568
1.83337
-3.33978
-1.92109
3.75446
3.16382
3.75435
1.23424
-3.34929
7.19158
-8.17341
-1.85905
-3.27814
5.30444
-1.01429
3.42106
-6.69921
-1.86832
4.78941
-0.780826
-4.00858
0.850736
-4.41334
1.67469
-6.08804
5.25513
-5.66548
2.22188
-9.74597
-5.18456
-5.14299
-2.25845
-5.22661
-7.5649
5.30646
-1.80779
5.49895
-8.49781
7.71699
-3.47992
8.78638
-5.4264
-1.05001
5.84339
1.31406
10.1004
0.221648
-4.73918
-1.91909
3.84268
-1.92359
1.18115
-3.47661
0.366068
2.49212
3.54396
-6.78082
0.0140667
-4.72511
-3.9154
7.93034
5.60649
11.5815
1.24039
9.11033
-1.17999
10.3507
4.13748
4.37327
-2.98583
4.44978
0.969267
4.56942
-0.927101
2.8125
1.62608
1.71885
0.686128
2.30229
1.33832
3.13074
0.0912697
-2.01175
4.61957
-8.59437
-0.968101
-8.02058
1.1355
5.7068
-4.5713
2.93786
-0.784895
1.01426
-0.115793
-1.22129
1.33709
-2.76409
-1.9309
-0.475362
-1.6987
2.34126
1.87338
-1.8659
-0.898196
0.357387
-4.01611
3.18196
-3.14899
-0.298159
6.25903
-2.81875
0.233788
-1.17543
-2.3974
-2.86711
2.6906
6.17612
0.293955
3.1134
5.19698
3.09935
0.226377
3.88356
-5.65411
-3.68455
-5.8728
-0.369235
4.50493
1.7625
7.98207
5.86441
4.85012
-1.84908
-10.0225
6.51262
-2.06284
5.17898
-1.1704
-4.91764
5.04792
2.37257
-5.70397
0.0384877
-4.87915
-6.94199
-0.512213
8.2292
-9.58823
8.53821
5.69636
1.36437
-4.40274
-0.740251
4.23777
0.135499
10.4862
-1.12903
-6.71357
7.8426
-4.57777
3.60967
0.740994
2.66995
2.07808
1.29318
-5.42038
-9.99169
-2.06341
-1.51601
-4.43531
0.540822
-2.4142
6.2196
-2.60993
3.90938
5.23267
6.24693
-2.12977
-4.10203
6.42035
-2.51097
3.73597
)
;

boundaryField
{
    wall-4
    {
        type            calculated;
        value           uniform 0;
    }
    velocity-inlet-5
    {
        type            calculated;
        value           uniform -3.75095;
    }
    velocity-inlet-6
    {
        type            calculated;
        value           uniform -5.62643;
    }
    pressure-outlet-7
    {
        type            calculated;
        value           nonuniform List<scalar> 8(3.31872 7.73462 4.43819 9.70956 7.43699 5.15863 5.75315 8.96349);
    }
    wall-8
    {
        type            calculated;
        value           uniform 0;
    }
    frontAndBackPlanes
    {
        type            empty;
    }
}


// ************************************************************************* //
