/*--------------------------------*- C++ -*----------------------------------*\
  =========                 |
  \\      /  F ield         | OpenFOAM: The Open Source CFD Toolbox
   \\    /   O peration     | Website:  https://openfoam.org
    \\  /    A nd           | Version:  13
     \\/     M anipulation  |
\*---------------------------------------------------------------------------*/
FoamFile
{
    format      ascii;
    class       volVectorField;
    location    "74";
    object      U;
}
// * * * * * * * * * * * * * * * * * * * * * * * * * * * * * * * * * * * * * //

dimensions      [0 1 -1 0 0 0 0];

internalField   nonuniform List<vector> 
918
(
(0.98516 -0.000507801 0)
(0.00501546 2.96625 0)
(0.00542171 0.884872 0)
(0.979704 0.00214537 0)
(-0.0146661 2.06168 3.29806e-20)
(-0.00704751 2.9488 -2.4518e-18)
(0.820758 1.16533 4.5076e-19)
(0.0987483 0.0653853 -1.45777e-20)
(0.999909 -0.000275766 0)
(0.0664872 0.734675 0)
(0.0112718 0.484492 0)
(0.732173 0.00263936 0)
(0.0110973 2.93037 0)
(0.0029051 2.7948 0)
(-0.0178086 3.14824 7.81008e-19)
(-0.0183038 1.92002 1.03404e-20)
(0.285523 0.0553634 1.01768e-18)
(0.188859 1.14341 3.17313e-19)
(0.962718 0.00501564 0)
(0.00782972 0.461139 0)
(-0.0136894 0.0564174 -6.82898e-19)
(1.00197 -0.00497468 0)
(1.00023 -0.00978384 0)
(0.97574 -0.0064388 0)
(0.598722 0.0288693 0)
(0.0138717 2.64222 0)
(-0.0147991 2.90995 9.01131e-19)
(0.0109391 0.932003 0)
(-0.0180738 1.18284 0)
(0.0117296 0.914899 0)
(-0.0174693 2.58897 0)
(-0.00347544 2.11251 -2.634e-20)
(-0.010221 1.89927 0)
(-0.0206084 2.9876 -8.80761e-23)
(-0.0166849 3.00529 1.90548e-18)
(0.00210173 3.00018 0)
(0.871444 -0.00965877 0)
(0.402189 0.932109 1.80514e-19)
(0.806774 1.17919 -5.15749e-19)
(0.957942 1.02552 5.60623e-19)
(0.674811 1.27099 -1.04631e-19)
(0.675338 1.24478 6.01317e-19)
(0.131319 0.119838 1.42207e-20)
(0.13215 0.0555864 0)
(1.1636 0.56468 0)
(0.103505 0.0913904 6.436e-20)
(0.0677616 0.0474339 -6.67883e-20)
(0.919921 -0.00745872 0)
(1.00027 0.000162008 0)
(0.999909 0.000338918 0)
(1.00363 -0.0077582 0)
(1.00096 -0.000919026 0)
(1.00017 3.76943e-05 0)
(0.0729748 1.82596 -7.69984e-19)
(0.0326072 0.947486 0)
(0.0980907 0.814712 0)
(0.014843 0.896436 0)
(0.0417143 0.651418 0)
(0.00726035 2.01527 0)
(-0.00310846 0.780549 0)
(0.0125465 0.502279 0)
(-0.00856505 0.775083 0)
(0.00963047 0.472935 0)
(0.842025 -0.015661 0)
(0.84179 0.0278117 0)
(0.759215 -0.000151484 0)
(0.801065 0.0289505 0)
(0.700849 0.0159986 0)
(0.0146859 3.0004 9.08623e-19)
(0.0114981 3.00803 0)
(0.00611395 3.00276 0)
(0.0135402 2.99735 1.0306e-23)
(0.0079678 2.95848 -1.35044e-18)
(0.0144866 2.98203 0)
(0.0108467 2.90362 0)
(0.0247429 2.93071 2.05891e-24)
(0.00460472 2.82475 0)
(0.0304291 2.91633 0)
(-0.00531605 2.746 0)
(0.304506 3.54035 0)
(-0.131548 3.62089 0)
(0.137444 3.23808 -7.26797e-19)
(-0.0135601 2.9766 0)
(-0.0227264 1.98333 0)
(-0.00755097 2.16872 -1.01986e-20)
(-0.0123073 1.92799 4.8385e-21)
(0.339931 0.139981 -3.5347e-19)
(0.316819 0.0323609 -3.43505e-19)
(0.294423 0.144518 -1.05794e-18)
(0.247745 0.0626956 -6.87105e-19)
(0.229513 0.98439 0)
(0.272426 1.29361 -3.68785e-19)
(0.36628 1.22825 6.1517e-19)
(0.98743 0.00857497 0)
(0.941846 0.00582481 0)
(1.0003 0.000581383 0)
(1.00286 0.00930995 0)
(1.00301 0.00847275 -2.74405e-18)
(0.991907 0.0096952 2.0722e-18)
(-0.0111502 0.774902 0)
(0.00930334 0.467583 0)
(-0.0488408 1.00787 0)
(-0.0281687 0.821026 0)
(0.00409156 0.464431 0)
(-0.0583856 0.0949777 2.11773e-19)
(0.0498599 0.055805 0)
(0.993555 -0.00836927 0)
(0.954471 -0.00653353 0)
(0.744708 0.027946 0)
(0.679455 0.0267229 0)
(0.660542 0.0241554 0)
(0.97217 -0.00717738 0)
(0.589963 0.0731847 0)
(0.454605 -0.00597992 1.54115e-18)
(-0.0372427 2.86221 6.62696e-19)
(0.0414359 2.90996 0)
(0.0535418 2.88605 0)
(-0.00438399 2.70075 0)
(-0.0134411 2.98508 8.52825e-19)
(-0.0178482 2.89494 0)
(-0.0154323 2.98807 -2.64532e-18)
(-0.0133165 2.92516 9.05663e-19)
(-0.0289187 1.34658 0)
(-0.00351753 1.37554 0)
(-0.00807623 2.13331 5.33683e-22)
(-0.00730925 2.09495 0)
(-0.0207148 1.90775 0)
(0.938683 -0.00736139 0)
(0.857635 -0.00997608 0)
(0.863221 0.00501564 0)
(0.949654 -0.0077912 0)
(0.884122 -0.00819907 0)
(0.513475 1.12493 -2.27913e-19)
(0.562649 1.17591 0)
(0.366919 0.877169 3.36526e-20)
(0.309691 0.735895 0)
(0.919822 1.06204 -1.54825e-19)
(1.03877 0.87179 3.15845e-19)
(0.359283 1.3554 0)
(0.527095 1.32655 0)
(0.549415 1.26505 0)
(0.121292 0.185181 -3.02718e-19)
(0.162778 0.124209 0)
(0.175914 0.0803577 1.90337e-19)
(1.00961 0.926161 0)
(1.08403 0.779974 0)
(1.10927 0.721658 -2.52193e-19)
(1.14299 0.624115 0)
(1.19343 0.407662 5.75966e-20)
(0.957795 -0.00868529 0)
(0.962535 -0.0100229 0)
(0.901793 -0.00798937 0)
(0.984209 -0.0091413 0)
(0.974723 -0.00932412 0)
(0.937149 -0.00637507 0)
(1.00019 0.0023407 0)
(1.0009 0.00141594 0)
(0.999909 0.000855938 0)
(0.03554 2.07275 4.26799e-19)
(0.118647 1.76898 0)
(0.0181315 2.18632 6.55546e-19)
(0.0460314 1.88026 -5.46096e-19)
(0.10641 1.14887 -2.59845e-19)
(0.0494159 1.02787 0)
(0.142988 0.980473 0)
(0.00794706 0.85145 0)
(0.0212317 0.585568 0)
(-0.000807241 2.24171 -7.9292e-22)
(0.0162867 2.01914 0)
(-0.00173577 2.24421 -2.71652e-20)
(0.0088383 2.02504 4.1124e-20)
(0.0033625 0.821366 0)
(0.00167502 0.79541 0)
(0.0144882 0.535968 0)
(-0.00936469 0.770209 0)
(0.00441687 0.466554 0)
(0.93876 0.0098424 0)
(0.850742 -0.0145888 0)
(0.927856 0.000480542 0)
(0.842823 -0.0128643 0)
(0.810939 -0.00202283 0)
(0.898783 0.0220413 0)
(0.874614 0.0255389 0)
(0.784815 -0.00231055 0)
(0.00578194 3.06496 -8.46142e-21)
(0.0166617 3.05762 0)
(0.0146777 2.96903 0)
(0.00873806 2.87624 0)
(0.919606 3.95194 0)
(1.23275 3.28559 9.25165e-19)
(0.0690435 3.0689 0)
(-0.0293727 2.9017 0)
(-0.0097284 1.39901 0)
(-0.0264952 1.69675 0)
(-0.0153686 1.5333 0)
(-0.0292676 2.55026 -1.23585e-20)
(-0.0136689 2.24392 0)
(-0.0193475 2.38974 0)
(0.000583522 1.95305 7.15097e-22)
(-0.00396843 2.2407 -9.23726e-21)
(-0.00594963 2.20339 -5.07966e-21)
(-0.00666445 1.93932 0)
(0.392569 0.123173 5.40071e-19)
(0.364817 0.0199847 -5.29945e-19)
(0.258629 1.5854 0)
(0.277915 0.757549 -3.15593e-19)
(0.176898 1.67261 -1.04707e-18)
(0.225823 1.22055 1.04935e-18)
(0.901972 0.00628711 0)
(0.967373 0.0111496 0)
(0.974529 0.0108179 0)
(0.923267 0.00639911 0)
(-0.0107074 0.768076 0)
(-0.0117764 0.769279 0)
(0.00581618 0.462222 0)
(0.0941683 0.0719335 5.94232e-19)
(0.0878217 0.0537805 -7.0308e-19)
(0.0479166 0.041432 0)
(1.10088 0.0868513 2.6962e-20)
(1.08292 0.0398612 0)
(1.01443 0.040288 0)
(0.90817 -0.0052079 0)
(0.446104 0.104028 0)
(0.506238 0.0869935 -2.46295e-18)
(0.409038 0.0138721 9.21185e-19)
(0.00864557 2.98118 7.13787e-19)
(-0.0322924 2.86549 4.72441e-20)
(0.00357675 3.05032 -1.79218e-20)
(0.0201984 3.04329 6.36855e-19)
(-0.0149937 2.99658 2.9749e-20)
(-0.0129247 2.94944 -1.19705e-22)
(-0.0172658 3.01194 -5.50748e-19)
(0.0148754 3.02378 3.99048e-19)
(0.00740156 3.03689 -6.31618e-19)
(0.934193 -0.00116129 0)
(0.939601 -0.00316012 0)
(0.846192 -0.00945284 0)
(0.956469 0.0120233 0)
(0.942455 0.0135808 0)
(0.881567 0.00557215 0)
(0.915942 0.0185288 0)
(0.925355 0.0157314 0)
(0.838084 0.00110693 0)
(0.715833 1.40185 3.91403e-20)
(0.749118 1.51043 0)
(0.180869 0.314283 7.06203e-20)
(0.22933 0.669379 5.681e-19)
(0.262415 0.719993 -3.31933e-19)
(0.262642 0.519613 6.60646e-19)
(0.346593 0.812363 1.5929e-18)
(0.140949 0.230716 3.75916e-19)
(0.249533 0.14632 7.26861e-19)
(0.205617 0.141274 1.88432e-19)
(0.213303 0.0719095 3.56724e-19)
(1.18238 0.465697 6.6692e-20)
(1.19749 0.25799 6.18261e-20)
(0.0103092 2.2348 2.52009e-19)
(0.0403369 1.94839 0)
(0.971388 0.0295406 0)
(0.943836 0.0140424 0)
(0.869737 -0.0177922 0)
(0.0113206 3.07422 0)
(0.0197388 2.94421 1.16533e-18)
(0.016398 2.95631 0)
(0.00642436 2.8505 -1.15581e-18)
(0.00641342 3.09179 2.82747e-19)
(0.00701941 3.08233 0)
(0.781867 1.81165 -1.58355e-19)
(1.24061 2.48673 4.01928e-19)
(0.763787 1.95089 -1.22656e-18)
(0.0194508 2.98049 -6.1371e-19)
(0.0348833 2.99868 0)
(-0.0348885 2.876 0)
(-0.00386814 2.22398 -1.30436e-20)
(-0.00329504 2.24508 1.50452e-20)
(0.00263545 1.98747 -7.17783e-21)
(0.278293 1.3948 1.02431e-18)
(0.239377 0.552528 -7.0232e-19)
(0.0637216 1.99769 7.6108e-19)
(0.135124 1.88407 -9.08772e-19)
(0.180069 1.51188 9.50801e-20)
(0.0057831 3.11811 -1.57259e-18)
(0.0125468 3.11888 1.71966e-18)
(-0.0093664 2.98045 7.85379e-19)
(-0.00410495 2.97712 -7.41494e-19)
(-0.021403 2.88066 -7.99896e-19)
(0.00840108 3.09885 -2.09925e-18)
(0.0015358 3.10616 2.11311e-18)
(0.282829 0.69614 0)
(0.249006 0.684849 -1.18201e-18)
(0.0959988 0.225209 5.24764e-19)
(0.358085 0.939544 1.11323e-18)
(0.196032 0.276789 -1.7164e-18)
(1.18832 0.175848 6.21359e-20)
(1.19785 0.312786 0)
(1.17673 0.123342 -5.1742e-21)
(0.0016413 2.25323 -1.44638e-21)
(0.00501939 2.24477 0)
(0.0247783 1.98437 0)
(0.340028 1.30379 -3.67739e-19)
(0.375079 1.15128 -7.99882e-19)
(0.210738 0.378896 1.42643e-18)
(1.00588 -0.0108251 0)
(1.00767 -0.00763203 5.0619e-19)
(-0.0258582 1.32772 0)
(-0.0384628 1.32779 0)
(1.00221 0.00351573 1.81253e-21)
(1.00366 0.00947291 1.03359e-18)
(-0.0203437 2.53466 1.56681e-20)
(-0.0245852 2.57677 0)
(0.0339053 3.17663 4.04084e-19)
(0.38972 3.4829 0)
(1.17751 0.665981 -5.59288e-20)
(1.01285 0.0131477 -2.12915e-21)
(1.02135 -0.0102739 0)
(1.0017 0.00013134 7.86833e-23)
(0.112428 1.37061 0)
(0.143224 2.56735 0)
(0.0322085 1.31717 0)
(0.000272019 2.6181 2.64053e-20)
(-0.0209509 2.57479 1.9558e-21)
(0.998959 0.0308433 2.31979e-21)
(1.06329 0.00482815 0)
(1.09794 0.0253891 0)
(-0.0282771 1.73979 0)
(-0.0180477 2.57633 0)
(-0.00725284 1.31608 0)
(0.31132 1.48273 -1.68666e-19)
(1.01131 -0.00961069 0)
(1.0094 -0.0149146 0)
(1.00237 0.000755467 6.46911e-19)
(1.00547 -0.00479692 -7.6034e-19)
(1.00118 -0.00096523 0)
(-0.0150535 1.46693 0)
(-0.00619335 1.37901 0)
(-0.00673028 1.42418 0)
(-0.0110934 1.3034 0)
(-0.0211834 1.29022 0)
(-0.0128297 1.27369 0)
(1.03509 -0.00600063 0)
(1.0195 0.0156049 -9.31837e-22)
(0.823074 1.27515 2.62098e-19)
(1.00223 0.000322431 -6.44436e-19)
(1.00406 0.00526464 7.54486e-19)
(1.00118 0.00207754 0)
(1.01272 0.0103718 6.41377e-19)
(1.00798 0.00831691 -7.77124e-19)
(1.00856 0.0146992 0)
(-0.0233525 2.60411 0)
(-0.0256564 2.58403 -2.11425e-20)
(-0.0229576 2.59781 1.48914e-20)
(1.23902 0.269205 5.77604e-19)
(1.16327 0.0875598 0)
(0.039494 3.07836 -9.04146e-19)
(0.0648789 2.85686 -6.57711e-20)
(0.138263 3.19189 1.38661e-18)
(0.133421 3.21945 -1.94676e-19)
(0.133033 3.23021 0)
(0.0185607 3.13716 2.33428e-19)
(0.0737932 3.15992 8.91591e-19)
(0.0667465 3.18485 -4.40106e-19)
(0.0213186 3.12997 0)
(0.566896 0.281574 0)
(0.505462 0.30312 0)
(1.14942 0.702105 1.25958e-19)
(1.14263 0.823541 -1.08308e-19)
(1.20541 0.588997 0)
(1.23269 0.52295 0)
(1.01601 0.0133884 -1.19555e-18)
(1.01499 0.0142592 1.50086e-18)
(1.02541 -0.00978692 0)
(1.02347 -0.0118367 0)
(1.00642 0.00265041 0)
(1.01041 0.00375298 0)
(1.00458 0.00186856 0)
(1.00978 0.00626234 0)
(1.0078 0.00596928 0)
(1.00451 0.00472738 0)
(0.100842 1.36906 0)
(0.0989416 1.3318 0)
(0.131211 1.40501 0)
(0.149793 1.41009 0)
(0.14523 2.5925 0)
(0.184853 2.66294 -4.22398e-19)
(0.101527 2.6475 0)
(0.0852904 2.65041 1.97161e-19)
(0.0388653 2.67306 -1.46585e-19)
(0.0188635 1.32913 0)
(0.0256249 1.24902 0)
(0.022858 1.3395 0)
(0.0451598 1.27271 0)
(0.00383155 1.98163 5.24727e-21)
(-0.0199172 2.60263 -2.17057e-20)
(-0.00798312 2.65941 1.08456e-20)
(-0.017618 2.6787 0)
(-0.022692 2.60822 -1.4247e-22)
(-0.022523 2.60321 1.57249e-20)
(0.0127012 1.97973 -5.33659e-22)
(-0.00742652 2.38964 2.91192e-20)
(-0.0130417 2.41261 -1.23004e-20)
(1.01227 0.0395852 1.21071e-18)
(1.00505 0.0202506 -1.5066e-18)
(1.00468 0.0465379 -1.23299e-18)
(0.977899 0.0387816 1.55166e-18)
(1.06449 0.00865198 0)
(1.04957 -0.00814776 0)
(1.09494 0.0355206 0)
(1.07467 0.0132189 0)
(1.07248 0.000799354 0)
(1.14091 0.0841723 0)
(1.11242 0.0451942 0)
(1.11642 0.0329572 0)
(-0.0250138 2.42775 1.72756e-21)
(-0.0131609 2.01306 0)
(-0.015401 2.21406 0)
(-0.0200084 2.59686 -1.21095e-20)
(-0.0170872 2.60676 2.32034e-22)
(0.00311304 1.57909 -3.85632e-20)
(-0.00655361 1.50704 3.93106e-20)
(-0.0167441 1.39667 0)
(-0.0199545 1.4031 0)
(-0.0260216 1.39763 0)
(-0.00544642 1.3174 0)
(0.0071083 1.23857 0)
(0.387069 1.50022 2.74791e-19)
(0.430369 1.50083 1.45527e-19)
(0.597308 2.44322 -2.40294e-19)
(0.397855 2.54041 7.06696e-19)
(0.349027 2.05082 7.14398e-20)
(1.02109 -0.00809105 0)
(1.01552 -0.00973431 0)
(1.01493 -0.0154992 0)
(1.0074 -0.00105628 0)
(1.00493 -0.000904418 0)
(1.00779 -0.00467339 0)
(1.00928 -0.0035896 0)
(1.01424 -0.00435074 0)
(1.02023 0.0164468 1.17176e-18)
(1.01753 0.0154232 -1.49619e-18)
(1.02059 0.018646 -1.1814e-18)
(1.01811 0.0167951 1.48036e-18)
(0.786302 1.32582 0)
(0.72204 1.3766 2.48208e-19)
(0.899037 1.22584 9.96075e-20)
(0.944938 1.17136 -1.32552e-19)
(1.15385 2.59776 2.8073e-19)
(0.765562 0.123539 5.99621e-19)
(1.16428 0.110195 0)
(1.21373 0.196073 -4.64974e-19)
(1.20118 0.156378 -1.98183e-20)
(1.0061 0.158424 0)
(0.127719 2.9584 5.27323e-19)
(0.103686 2.86431 -1.14721e-18)
(0.0097549 2.37613 7.64742e-19)
(0.102044 -0.169608 -3.1881e-19)
(0.334895 3.41328 -2.16507e-19)
(0.190755 3.30812 0)
(0.234553 3.34845 2.8197e-19)
(0.238494 3.03088 -1.76664e-18)
(0.331497 3.1889 0)
(0.00595483 3.12091 4.57141e-20)
(0.0168936 3.12945 -5.3707e-19)
(0.0146321 3.12557 7.90463e-19)
(0.0341545 3.13967 0)
(0.032312 3.15018 0)
(1.20905 2.59497 0)
(0.548305 0.799839 -5.27093e-19)
(1.06886 0.996122 -1.08957e-20)
(1.00394 1.08046 0)
(0.857363 0.975163 -1.08892e-19)
(1.09538 0.897302 2.78173e-20)
(0.300129 0.318512 -8.34454e-19)
(0.647411 0.32626 -1.68403e-20)
(0.534842 0.219653 4.05199e-19)
(0.527987 0.336778 2.92315e-20)
(0.419995 0.270371 -1.17322e-18)
(0.603758 0.327132 0)
(0.712574 0.428556 6.62434e-19)
(0.710173 0.429373 0)
(0.568629 0.342697 0)
(0.482647 0.245497 0)
(0.83133 0.627375 4.07077e-19)
(1.24033 0.291724 -4.85769e-19)
(1.24081 0.431024 0)
(1.24899 0.371214 0)
(0.675351 0.196222 6.20477e-19)
(0.876469 0.557764 -3.70737e-19)
(0.776108 0.534959 6.62112e-19)
(0.963493 0.450176 -7.31882e-19)
(1.01901 0.0150311 8.02188e-19)
(1.01747 0.0143892 -8.07497e-19)
(1.01592 0.0152563 0)
(1.03656 -0.00554319 0)
(1.02996 -0.00833451 -7.57119e-19)
(1.028 -0.0119332 7.49592e-19)
(1.0249 0.0107233 0)
(1.02332 0.0145935 0)
(1.01141 0.00418628 0)
(1.01418 0.00918238 0)
(1.01516 0.00422404 0)
(1.01426 0.00292133 0)
(0.072395 1.35301 0)
(0.0805224 1.29886 0)
(0.148205 1.38545 8.09333e-21)
(0.281845 1.48115 8.96154e-20)
(0.176788 1.45188 1.88357e-19)
(0.209569 1.45723 -3.07204e-19)
(0.177386 1.41111 0)
(0.135401 1.59984 -6.97185e-20)
(0.120578 1.57927 0)
(0.344818 2.00012 -1.0388e-19)
(0.341653 2.33698 6.12825e-19)
(0.196899 1.4655 6.07825e-20)
(0.269142 1.39766 2.35115e-20)
(0.202132 1.39049 -1.89731e-20)
(0.278668 1.34059 -1.03181e-19)
(0.242075 1.57877 0)
(0.269568 1.61552 1.12339e-19)
(0.0306247 2.25658 -2.84972e-20)
(0.0437045 2.66238 0)
(0.0664456 2.39341 1.35183e-19)
(0.0632297 2.41426 0)
(0.0697441 2.66408 -2.18497e-19)
(0.0493398 2.6926 0)
(0.0285086 1.44736 3.66414e-20)
(0.0362921 1.49469 0)
(0.0324894 1.41316 0)
(0.0270624 1.41998 -4.13476e-20)
(0.000869667 2.64569 -1.67619e-20)
(0.0297705 2.69144 1.64336e-19)
(0.0106142 2.71647 1.15345e-21)
(0.00485069 1.83878 -6.31805e-21)
(-0.00151118 1.69302 -4.54955e-21)
(0.0133912 1.3074 0)
(0.0212492 1.22145 0)
(0.0454007 1.59507 -2.96013e-20)
(0.034713 1.47569 -3.56906e-20)
(0.0386209 1.53771 4.45173e-20)
(0.0402067 1.61884 0)
(-0.0292659 2.26686 1.00905e-19)
(-0.0302944 2.5436 -4.21778e-20)
(-0.0162315 2.44159 4.5777e-21)
(-0.00258088 1.85397 7.65367e-21)
(-0.0252957 2.49366 3.26259e-21)
(-0.0201892 2.43784 -3.42069e-21)
(1.01872 0.0219328 -8.02806e-19)
(1.01546 0.0282707 8.06025e-19)
(1.01275 0.0175346 0)
(1.01007 0.0712283 1.12857e-18)
(0.991932 0.0613491 -1.26069e-18)
(0.951148 0.0574144 1.40961e-18)
(1.01397 0.112177 -1.50379e-19)
(1.04302 -0.00551751 0)
(1.05146 -0.00109683 7.21897e-19)
(1.03931 -0.00969351 -7.23364e-19)
(1.07222 0.0431328 -4.29271e-20)
(1.06522 0.0243242 3.70288e-19)
(1.06305 0.0573373 0)
(1.05426 0.050742 -1.33172e-19)
(1.0321 0.0425342 0)
(1.02639 0.0391259 0)
(1.02801 0.0138977 0)
(1.02393 0.016532 0)
(1.04023 0.0333008 2.74267e-19)
(1.03868 0.0271335 -6.06486e-19)
(1.05152 0.0348197 -2.90721e-19)
(1.04831 0.0350029 -3.20155e-19)
(1.07183 0.0655908 6.2489e-19)
(1.09735 0.053497 0)
(1.10669 0.097865 0)
(-0.0246609 2.2719 5.69304e-20)
(-0.0238073 2.01793 1.35086e-21)
(-0.0197538 2.02539 0)
(-0.0267823 2.4405 -5.66708e-20)
(-0.0222597 2.39731 -2.99849e-21)
(-0.032253 2.46808 6.21957e-21)
(-0.0201035 2.61568 -1.39455e-20)
(-0.0228763 2.5574 2.52473e-22)
(-0.0212565 2.50926 -3.9878e-21)
(-0.015302 2.60963 1.13644e-20)
(-0.020127 2.61162 -1.23417e-20)
(-0.00610812 1.50485 -7.24259e-22)
(0.00356393 1.62704 -3.70424e-20)
(0.3721 1.44908 -1.16208e-19)
(0.37196 1.38237 3.66725e-20)
(0.662617 1.4267 -2.40101e-19)
(0.529289 1.49355 -1.42979e-19)
(0.587529 1.45939 0)
(0.593039 2.42033 2.0683e-19)
(0.661581 2.41612 3.37482e-19)
(0.410912 2.50967 8.80583e-20)
(0.402157 2.5338 -6.07189e-19)
(0.509967 2.47463 6.13059e-19)
(0.553058 2.45702 0)
(0.487666 2.51481 -5.58777e-19)
(0.248013 2.58682 1.14106e-18)
(0.35445 2.55898 -7.71877e-20)
(0.28361 2.64853 -1.58358e-18)
(0.948163 2.37322 7.28419e-19)
(0.83814 2.37881 0)
(1.01108 0.000541359 2.62442e-20)
(1.01537 -0.00534967 -2.12872e-20)
(1.01768 -0.00345044 -3.88788e-19)
(1.01505 -0.000812627 3.90904e-19)
(1.01247 0.00129281 0)
(0.649651 1.2914 0)
(0.673593 1.18529 0)
(0.787645 1.10403 0)
(0.666716 1.14872 0)
(1.18396 2.61123 5.99709e-20)
(1.07202 2.35867 0)
(0.833233 2.16068 3.86188e-21)
(0.823268 2.42772 0)
(0.921441 2.52173 -4.2273e-19)
(0.956665 2.4778 2.81178e-19)
(0.796144 0.184857 0)
(0.736894 0.156498 1.62844e-19)
(0.905918 0.152669 9.48151e-19)
(0.821851 0.156716 -3.54655e-19)
(0.777127 0.0910552 -1.09602e-18)
(1.08322 0.243142 -8.9086e-19)
(1.00003 0.307213 -1.80975e-20)
(0.927092 0.310964 8.5851e-19)
(1.00673 0.236625 7.21424e-19)
(0.94755 0.200609 -1.25426e-18)
(0.90939 0.205073 1.56921e-19)
(0.946365 0.272574 -3.32825e-19)
(0.925439 0.231869 0)
(0.996466 0.19719 6.18507e-19)
(1.04735 0.195853 0)
(1.04516 0.224417 0)
(1.10784 0.122303 2.89551e-19)
(1.07208 0.182454 -1.51576e-20)
(1.07649 0.243119 -1.57635e-19)
(1.10189 0.208801 0)
(1.02194 0.046608 6.17791e-19)
(1.03933 0.0601355 7.7184e-19)
(1.03393 0.0457961 -6.13792e-19)
(1.04263 0.0681889 -5.17847e-19)
(1.01892 0.0761803 -7.95274e-19)
(0.984737 0.160691 0)
(0.989234 0.106558 0)
(0.96559 0.0765214 -5.014e-19)
(0.904069 0.0982239 1.99744e-19)
(1.04036 0.108719 7.15994e-19)
(1.06957 0.125829 -8.3528e-19)
(1.07695 0.15825 7.4602e-19)
(1.03182 0.152981 0)
(1.0751 0.113055 0)
(1.05387 0.0938415 -3.42415e-19)
(1.04363 0.0991605 -5.84156e-19)
(0.578597 1.05213 1.40867e-19)
(0.602793 1.37533 -4.23853e-20)
(1.15383 2.72673 -2.2911e-19)
(1.21938 3.06926 2.50347e-21)
(1.24549 2.70994 -1.2561e-19)
(1.27378 2.69299 -3.05451e-20)
(1.20097 2.33326 -1.12122e-20)
(1.20712 2.97311 -9.52895e-20)
(1.22735 2.93868 2.37087e-19)
(1.2094 3.22198 -1.41934e-19)
(1.3688 2.95263 1.96098e-19)
(1.35713 2.87066 0)
(0.567276 0.808953 -5.04945e-20)
(0.105212 1.21937 5.68653e-19)
(0.562229 0.339774 5.46464e-19)
(0.400781 0.0857882 5.90167e-19)
(0.469372 0.310414 6.65899e-19)
(0.547966 0.427313 -1.08288e-18)
(0.55033 0.422636 8.87225e-19)
(0.462004 0.298134 -3.36956e-19)
(0.331138 0.226579 7.56686e-19)
(0.703291 0.271723 -3.58676e-19)
(0.660769 0.29331 0)
(0.593084 0.208038 6.18124e-21)
(0.746854 0.510812 3.59398e-19)
(0.728055 0.48062 -1.30641e-18)
(0.626153 0.44525 9.99961e-21)
(0.620152 0.436141 0)
(0.696443 0.717504 3.95569e-19)
(0.859635 0.781115 3.9205e-19)
(0.782994 0.863451 -4.58829e-19)
(0.9047 0.818321 -1.5281e-19)
(0.935498 0.863623 -3.67528e-20)
(0.942516 0.863255 3.76388e-20)
(0.870961 0.662983 -6.74054e-19)
(0.950866 0.71611 1.41884e-19)
(1.01019 0.730611 0)
(1.00112 0.70705 -1.91571e-19)
(1.03008 0.34793 2.11025e-19)
(1.15111 0.308545 2.86245e-19)
(1.07141 0.28067 3.64042e-19)
(1.02067 0.380546 -4.29317e-19)
(1.06926 0.442705 0)
(1.12524 0.423098 0)
(0.921364 0.383932 1.17332e-21)
(0.8378 0.319031 0)
(0.887146 0.318238 4.05676e-19)
(0.90972 0.319444 -8.48175e-21)
(0.958595 0.453815 2.03872e-18)
(0.920236 0.50888 5.23596e-19)
(0.924485 0.475551 -5.58694e-19)
(0.839151 0.464273 5.99867e-19)
(0.824225 0.459042 3.59503e-19)
(0.793975 0.44185 -3.53257e-19)
(1.02745 -0.000153083 6.47664e-19)
(1.02002 0.000131189 0)
(1.01856 0.00105711 4.22323e-19)
(1.02176 -0.00147935 -9.56665e-19)
(1.0224 0.00460087 4.64761e-19)
(1.02031 0.0116574 -9.73223e-19)
(1.02121 0.0110201 0)
(1.02038 0.0112558 -2.02843e-19)
(1.01592 0.00791304 5.08934e-19)
(1.01655 0.0107127 -2.53946e-19)
(1.01726 0.010055 1.8698e-19)
(0.0355098 1.33037 0)
(0.0408349 1.38549 0)
(0.0529492 1.33019 0)
(0.0604806 1.27779 0)
(0.0747343 1.40176 -5.04428e-20)
(0.0853969 1.36701 2.23205e-20)
(0.112184 1.54876 -1.43799e-20)
(0.10744 1.38874 -4.56811e-21)
(0.039876 1.48055 2.15424e-20)
(0.0434079 1.47434 -1.65934e-20)
(0.06751 1.38932 -1.10341e-20)
(0.0607177 1.39035 4.75585e-20)
(0.0537548 1.36796 7.05382e-21)
(0.0453095 1.39099 4.07215e-21)
(0.107134 2.36098 -1.4933e-19)
(0.0959239 2.40976 0)
(0.168612 2.03485 1.08748e-19)
(0.114538 1.70258 4.00025e-20)
(0.234399 2.03287 -8.94021e-20)
(0.199515 2.42363 0)
(0.262189 2.3736 -6.046e-19)
(0.302137 2.37137 4.27179e-19)
(0.228289 1.99268 -2.49405e-19)
(0.154389 2.15136 1.68712e-19)
(0.141545 2.25815 0)
(0.0182292 1.87748 8.68803e-21)
(0.000737427 2.38495 -3.06276e-20)
(0.00598489 2.14206 0)
(0.011402 2.44912 -1.36359e-20)
(0.0291181 2.29192 7.48024e-21)
(0.0167342 1.42677 -7.80561e-21)
(0.0135099 1.40815 1.30687e-19)
(0.0128722 1.41573 -4.33484e-20)
(0.0223969 1.42156 -3.61973e-20)
(0.0266509 1.45115 0)
(0.00846817 1.39776 0)
(-0.000722652 1.30225 -5.24863e-20)
(0.00423276 1.38976 1.50618e-20)
(0.00879004 1.38892 0)
(0.00636213 1.29417 -3.94877e-20)
(0.0160551 1.21059 7.99661e-20)
(1.04085 0.0121691 0)
(1.04708 0.00843395 -6.77444e-20)
(1.03888 0.0226995 -4.88703e-19)
(1.0487 0.0213759 0)
(1.0525 0.0211581 0)
(1.03651 0.0123905 -6.81099e-21)
(1.03114 0.012251 7.85746e-19)
(1.03167 0.0173102 9.52168e-19)
(1.02562 0.0212553 0)
(1.02251 0.0216934 0)
(1.03532 0.0262296 4.87465e-19)
(1.02609 0.0280641 0)
(1.02378 0.0280311 0)
(-0.0175925 2.02255 0)
(0.000233914 1.65731 -4.42218e-21)
(-0.00384376 1.7631 -3.10514e-20)
(-0.00252941 1.39677 0)
(-0.00676461 1.56091 -2.07926e-20)
(-0.0097674 1.47288 1.27354e-20)
(-0.00737227 1.41183 0)
(0.388499 1.64019 0)
(0.37473 1.3082 -7.2396e-20)
(0.30074 1.34001 0)
(0.426688 1.30717 7.69541e-21)
(0.477435 1.47129 0)
(0.457797 1.41572 2.47749e-20)
(1.0363 2.67332 -1.53968e-20)
(0.968495 2.40171 -9.15453e-19)
(0.92182 2.19057 1.02621e-18)
(0.852201 2.37066 2.42224e-19)
(0.847661 2.48261 0)
(0.917366 2.47865 0)
(0.931514 2.36679 0)
(0.910453 2.35633 -9.45759e-19)
(0.686424 2.44605 -3.94719e-19)
(0.79966 2.43547 -9.78087e-20)
(0.809972 2.40956 7.42843e-20)
(0.695456 2.3891 0)
(0.80073 2.38445 0)
(0.758803 2.398 -3.68848e-19)
(0.767198 2.4724 0)
(0.634467 1.09417 0)
(0.479833 0.895842 -5.16295e-19)
(0.569957 0.94179 -3.26468e-20)
(0.518631 1.0306 0)
(0.519063 0.972504 7.72805e-19)
(0.80355 0.88642 -1.29353e-19)
(0.811579 1.02211 0)
(0.786868 0.98857 1.84394e-19)
(0.671434 1.03437 0)
(0.672572 0.9352 0)
(1.16302 2.75002 -2.30766e-19)
(1.14043 2.81337 -9.81327e-20)
(0.928259 2.32657 1.02287e-19)
(0.896113 2.30625 -8.38344e-20)
(1.12873 2.72301 0)
(1.08265 2.69239 1.0085e-19)
(1.08853 2.47647 -3.14157e-19)
(0.983187 2.22993 -3.02995e-20)
(0.491445 1.32684 0)
(0.50746 1.0581 -1.24148e-19)
(0.578471 1.16747 0)
(0.851748 0.25084 0)
(0.756964 0.200475 0)
(0.663405 0.155697 0)
(0.843614 0.252318 -6.32786e-19)
(0.727336 0.24561 3.73821e-19)
(0.921512 0.0910347 -4.11701e-19)
(0.924621 0.133149 0)
(0.912441 0.141782 1.7786e-19)
(0.848913 0.11882 7.11067e-19)
(0.813469 0.0796332 -4.45728e-19)
(1.1543 3.34689 -7.15794e-19)
(1.20357 3.26641 0)
(1.15176 3.37603 -1.48588e-18)
(0.640163 3.53772 1.26015e-18)
(0.86112 3.10676 7.02367e-20)
(0.523285 0.792092 6.06746e-19)
(0.422569 0.789642 0)
(0.303253 0.366713 -1.48182e-19)
(0.47717 0.646784 8.55431e-19)
(0.567723 0.345076 -1.93024e-19)
(0.518207 0.460657 2.29494e-19)
(0.676986 0.511412 4.86631e-19)
(0.719189 0.552754 0)
(0.668128 0.570631 0)
(0.635007 0.524088 0)
(1.01133 0.617418 8.71909e-20)
(0.925943 0.558595 -5.09855e-19)
(0.95154 0.589792 3.83642e-19)
(0.981095 0.529995 -3.95074e-19)
(1.08912 0.497403 0)
(1.0977 0.588801 -9.58896e-20)
(0.858361 0.416498 -8.27745e-19)
(0.856068 0.404647 -1.02676e-18)
(0.788928 0.398628 6.30113e-19)
(0.797828 0.387094 -6.40525e-19)
(0.84439 0.343278 -5.18961e-19)
(0.791483 0.339846 6.34457e-19)
(1.02672 0.00619502 -4.93191e-19)
(1.02643 0.0064088 1.00254e-18)
(1.02951 0.000300316 6.27593e-19)
(1.03374 0.00121844 -7.55887e-19)
(1.03388 0.00935338 0)
(1.03015 0.0100549 -1.23037e-18)
(0.0630678 1.63801 1.87251e-20)
(0.0517291 1.59002 0)
(0.0908181 1.68749 1.24545e-19)
(0.0979443 1.66877 -1.10189e-19)
(0.0915288 1.54922 2.56988e-20)
(0.090834 1.55059 0)
(0.0127036 1.69168 0)
(-0.00437423 1.50466 8.83644e-21)
(-0.00248424 1.45055 -7.94814e-21)
(-0.0079593 1.55816 5.38776e-21)
(0.00280322 1.88543 1.30073e-20)
(-0.00949351 1.93839 -2.64001e-21)
(0.49686 1.35487 -2.77179e-19)
(0.490504 1.35494 3.04648e-19)
(0.454296 1.30262 -3.18321e-20)
(0.436886 1.28245 7.77625e-21)
(0.641812 1.30951 0)
(0.556569 1.39993 1.05401e-19)
(0.572534 1.40689 -1.02613e-19)
(0.468216 1.29395 3.10566e-20)
(0.523525 1.24212 0)
(0.574993 1.20462 0)
(0.653422 2.40576 5.79836e-19)
(0.669043 2.44765 1.25844e-18)
(0.713444 2.45844 -8.67162e-19)
(0.60951 2.43245 -2.01718e-19)
(0.559773 2.52218 2.83568e-19)
(0.509032 2.49708 -7.56076e-19)
(0.978146 2.3733 -5.74349e-19)
(1.01208 2.38533 0)
(0.92581 2.16862 -6.59293e-19)
(1.05373 2.67142 0)
(1.05605 2.65801 0)
(0.596188 2.25426 -1.31347e-19)
(1.03545 3.15227 1.24955e-19)
(0.906539 3.02282 -2.76545e-20)
(0.261117 0.836805 0)
(0.285929 0.67798 -3.17557e-19)
(0.45721 0.638492 -3.20174e-19)
(0.376326 1.99812 0)
(0.460861 2.77787 -4.88934e-20)
(0.413987 2.54024 0)
(0.721191 0.667831 -8.35131e-19)
(0.806365 0.68815 1.11526e-18)
(0.825761 0.628293 -1.10174e-18)
(0.697752 0.631097 -1.06862e-19)
(0.752856 0.589685 -4.37318e-19)
(0.99972 2.75055 -9.50361e-20)
(1.04123 2.8126 -1.67869e-19)
(0.630027 2.11589 7.07172e-19)
(0.581902 1.68491 -5.03552e-19)
(0.692397 1.8857 -4.1018e-19)
(0.985938 2.43456 -1.12938e-19)
(0.993264 2.42748 2.98616e-19)
(0.647263 1.81812 2.85007e-20)
(0.438876 1.30591 1.45457e-19)
)
;

boundaryField
{
    wall-4
    {
        type            noSlip;
    }
    velocity-inlet-5
    {
        type            fixedValue;
        value           uniform (1 0 0);
    }
    velocity-inlet-6
    {
        type            fixedValue;
        value           uniform (0 3 0);
    }
    pressure-outlet-7
    {
        type            zeroGradient;
    }
    wall-8
    {
        type            noSlip;
    }
    frontAndBackPlanes
    {
        type            empty;
    }
}


// ************************************************************************* //
