/*--------------------------------*- C++ -*----------------------------------*\
  =========                 |
  \\      /  F ield         | OpenFOAM: The Open Source CFD Toolbox
   \\    /   O peration     | Website:  https://openfoam.org
    \\  /    A nd           | Version:  13
     \\/     M anipulation  |
\*---------------------------------------------------------------------------*/
FoamFile
{
    format      ascii;
    class       surfaceScalarField;
    location    "54";
    object      phi;
}
// * * * * * * * * * * * * * * * * * * * * * * * * * * * * * * * * * * * * * //

dimensions      [0 3 -1 0 0 0 0];

internalField   nonuniform List<scalar> 
1300
(
3.75095
5.62643
-3.30414
3.75095
-7.75119
5.62643
-4.35496
4.35496
-0.587164
0.587164
1.8764
1.87456
-2.77305
2.77305
-2.24332
2.24332
-2.53972
2.53972
-5.24646
5.24646
-5.06926
5.06926
4.65813
-4.65813
-6.29557
6.29557
-0.989023
0.989023
-3.67617
3.67617
3.16966
-3.16966
-2.15591
2.15591
-0.0720444
0.0720444
-0.553488
4.30444
3.19747
3.19747
-2.00099
2.00099
-4.8676
4.8676
6.21803
-6.21803
5.30269
-5.30269
-1.99855
-2.42808
1.80722
-11.5545
-5.94397
-5.94397
-8.44037
8.44037
-2.81394
2.81249
2.94543
-2.94543
-1.77837
1.77837
-4.31677
-0.0381846
-4.31677
4.32491
0.0300507
4.32491
-0.65547
0.0683059
-0.65547
3.95602
-3.95602
0.486096
0.101068
0.486096
3.0652
-3.0652
-1.8771
3.7535
1.87385
-1.87188
6.17633
-1.87907
3.75363
-6.00776
6.00776
-2.98973
0.216682
-2.98973
2.59012
0.182926
2.59012
-6.82806
6.82806
-2.28084
0.0375241
-2.28084
2.21086
0.0324583
2.21086
2.87753
-2.87753
-2.64861
0.108894
-2.64861
2.4197
0.120017
2.4197
0.353514
5.27292
-5.97994
8.79243
-5.27292
0.0264585
5.20833
0.0381325
5.20833
-5.10607
0.0368163
-5.10607
5.0122
0.057058
5.0122
4.7457
-0.0875717
4.7457
-4.77534
0.117209
-4.77534
-3.39375
-4.02786
-6.44125
0.145675
-6.44125
-1.06231
0.0732827
-1.06231
0.895445
0.0935776
0.895445
-3.67308
3.67308
-4.07746
0.401287
-4.07746
3.12406
0.0456052
3.12406
1.8685
1.88246
5.61945
-5.61945
2.44979
-2.14939
-0.00651923
-2.14939
-2.19568
-3.10701
2.19568
-0.0397754
-0.30274
0.230695
-0.30274
3.15939
0.0380777
3.15939
2.25165
0.168048
-2.25165
0.250668
3.26263
-3.26263
1.33842
0.662563
1.33842
-5.56414
5.56414
4.95587
0.0563312
-4.95587
0.0882684
6.15689
0.0611441
6.15689
-6.19956
-0.0184682
-6.19956
2.55827
-4.98634
-2.59496
6.11957
0.176005
-6.11957
0.175603
2.91687
0.0285691
2.91687
-2.92001
2.92001
-2.98422
0.0387857
-2.98422
-2.17737
0.399006
-2.17737
1.47959
0.298776
1.47959
-4.21711
-0.0996617
-4.21711
-4.21483
0.137372
4.21483
0.110073
1.12485
-1.12485
-0.749817
0.0943472
-0.749817
-4.08044
-0.136672
4.08044
-0.12442
-3.84652
-0.109496
-3.84652
-3.02423
0.0400085
3.02423
0.0409683
3.11279
0.0465925
-3.11279
0.047598
-1.87082
3.75328
-1.88013
3.75398
-5.62768
-0.380078
-5.62768
6.31666
-0.308903
6.31666
3.3482
0.327971
-3.3482
0.358473
2.44972
0.140404
2.44972
-6.79312
-0.0349404
-6.79312
6.81066
0.0174063
6.81066
2.34865
0.101071
-2.34865
0.0678061
2.19026
0.0205986
2.19026
2.89629
-0.0187604
2.89629
-2.87271
-0.00481778
-2.87271
2.79697
-2.79697
2.7269
0.0700701
-2.7269
0.0782818
-11.133
11.1146
-0.0352092
-11.0978
5.17312
5.17312
4.17439
0.57131
4.17439
-4.99282
0.217482
-4.99282
2.69532
-5.29028
3.03721
-6.43096
4.65682
-16.2113
4.31994
-8.3478
6.67628
-6.67628
6.56671
0.109562
-6.56671
0.125465
-1.1689
0.106592
-1.1689
-3.06895
-0.604132
-3.06895
4.31816
-0.645076
4.31816
-3.02839
3.02839
-3.0776
0.0492149
3.0776
0.046454
2.16535
0.0249101
-2.16535
0.0159629
0.394485
0.0916109
-0.394485
0.091745
3.46946
-0.206823
3.46946
-3.06829
-0.194344
-3.06829
-1.25918
0.0902822
1.25918
0.0792439
-5.81385
0.249708
-5.81385
-11.1908
0.0929502
-11.1527
-6.10661
-6.10661
2.33376
11.1262
-2.89156
0.018849
2.89156
0.0253041
2.97538
0.0530124
-2.97538
0.0553641
-2.86113
0.0641598
2.86113
0.0588874
-2.55257
0.375194
-2.55257
-1.07533
1.07533
-1.24361
0.168276
1.24361
0.235985
1.39269
-0.267838
1.39269
0.820233
0.0752125
-0.820233
0.0704162
-3.75236
-0.0941603
-3.75236
6.5489
-0.232236
6.5489
-2.9564
-0.111885
2.9564
-0.0601142
-0.0333306
11.1479
-5.13979
0.0337138
5.13979
-11.209
11.2428
-3.22396
0.67139
3.22396
0.950433
5.28538
0.27876
-5.28538
0.292558
6.76016
0.0504956
-6.76016
0.0838874
-2.5768
-0.492146
-2.5768
-5.04517
-0.58251
5.04517
-0.72701
-11.4745
-0.205154
11.6797
-11.4175
6.019
0.137885
-6.019
11.3806
-1.02975
-0.0951002
1.02975
0.0455815
1.71787
-0.325183
1.71787
3.65788
-0.188423
-3.65788
-0.0944841
-6.69991
-0.0932109
6.69991
-0.151017
-2.13334
-0.443465
2.13334
-0.415468
-4.26708
4.30515
1.90925
-2.41788
-2.56846
-5.52489
1.85189
1.90139
4.30168
-10.1653
-6.04601
-9.9897
7.26273
-6.97017
-9.25113
9.16356
7.82503
-7.93452
-5.78503
5.83149
6.48262
-6.44165
1.87875
1.87475
7.95132
-7.73464
-15.6406
15.2606
7.49721
-7.45968
15.7836
-15.8185
-17.8593
17.9098
-5.69788
5.80678
-6.73543
6.73061
-6.96651
6.9064
-2.8509
-3.58006
13.1224
-12.9768
8.54216
-8.54868
-8.57412
8.97541
3.38255
0.922605
3.42914
-1.8822
3.76095
-1.87143
3.78068
2.69248
-5.54338
2.5978
-5.16626
4.32119
4.22096
-4.28142
-1.24347
-5.92323
5.95179
-5.81635
5.87524
9.09036
-9.12854
-1.88515
3.75989
-1.86884
3.77023
-3.42504
-2.35999
3.37943
0.922242
8.085
5.03744
-8.261
-1.72869
-8.00559
7.81717
-8.21424
8.01989
-0.435635
5.81821
-5.38257
4.43196
-1.56147
7.37968
5.70125
5.91874
5.86584
-5.58708
1.10433
-6.4869
-6.39864
-2.37358
2.46792
2.26387
-2.16281
6.09421
1.73082
5.96979
-5.72467
-2.20985
-5.81883
3.82082
2.01066
3.87004
4.07792
2.4047
4.11793
3.03061
-3.03584
0.00522373
-3.05653
6.08714
0.724053
-5.41652
-4.49428
4.96142
2.9899
5.14434
-5.50931
-2.22533
-5.15083
-9.55698
-6.08366
-10.1395
10.1011
5.15945
9.79221
-11.9738
11.8228
4.78665
2.71056
4.81911
-4.91993
-2.53975
-4.85213
11.633
-2.6083
-9.02471
-10.3266
-7.53269
10.3092
5.47434
10.9677
6.94208
11.0516
4.42171
7.2113
-9.89605
2.36336
-3.86135
-1.83653
-3.78307
3.66666
2.14012
3.78668
-4.21596
-2.51947
-4.19711
-4.29287
-2.67364
4.31163
2.41898
-4.41216
-3.80208
4.52404
2.38236
4.01841
-10.0644
4.32939
-7.90945
-9.20023
-3.77653
-9.07476
3.48965
2.61225
-6.10191
-2.05372
8.46346
-4.2425
7.21998
-5.17457
-3.37411
-5.1586
-6.83702
-1.7371
-6.69965
-8.89391
8.40176
-9.19243
8.54736
12.5739
-5.67944
-6.89447
-3.96834
-2.47331
3.92075
-0.491606
-3.71064
3.71586
0.0503105
3.83099
4.75359
4.26199
-3.88527
-1.93108
-3.82991
3.82727
2.04798
3.89143
6.80351
2.28684
6.83356
-6.57358
-2.55497
-6.67324
9.05209
-8.65308
2.86407
-2.77379
5.37804
2.64185
-5.17122
-2.83437
6.21238
-3.21327
-2.99911
-12.1994
10.536
1.66341
-4.81975
-0.387786
-0.315741
-5.49129
-3.75984
5.37408
0.544655
11.0807
7.32084
-5.51196
5.76166
6.16772
6.22405
-0.174585
5.81659
-5.1452
5.27013
-2.54043
-2.7297
5.43458
-5.57125
-1.23866
-5.4833
4.24464
0.398538
1.57694
-1.34625
-1.84609
-0.527486
-1.77567
1.34674
0.917131
1.43835
0.926912
1.54101
-2.94298
0.553489
2.38949
-2.01606
-1.60932
-3.75719
-1.11784
4.87503
5.70506
2.11211
-5.61057
-0.208257
2.5936
-2.50002
-0.751818
-3.00537
2.21902
-2.97084
-3.67023
-2.0104
5.68063
-3.3701
-0.459803
3.31709
0.552947
-3.8267
-2.09652
3.78792
0.330016
-3.12696
6.19053
-3.06357
-5.05804
2.52797
3.55917
4.53863
-4.78959
2.44718
2.34241
-1.23042
4.23997
0.904373
4.38037
-6.87126
4.64593
5.77864
3.19677
-6.10661
0.955777
-5.91548
8.5251
-7.34559
-1.17951
4.13193
4.39317
7.09796
5.47595
-5.69031
12.7883
-1.17998
-6.16561
7.09546
-3.89869
4.83334
-8.73204
-10.3093
4.14368
-9.17054
10.9426
-1.77208
-3.62534
-8.34844
12.7959
-1.21154
-11.5843
8.58068
-4.22273
-4.30544
8.52818
-6.83104
6.84519
-1.98089
-4.8643
-10.1169
-5.70165
10.2101
1.6127
-9.86968
12.233
-2.65837
4.10588
0.713229
4.12648
3.27352
-5.44456
2.17105
3.55752
-5.53841
2.08252
-7.52708
-6.72385
12.0529
-5.32903
-10.5004
-9.51733
-0.983049
2.53306
9.69998
-9.47514
7.4309
2.04424
3.304
0.587428
-3.37407
-0.409004
0.232826
4.53694
-4.76976
4.01951
4.18755
3.3068
1.23014
3.84399
2.1078
-3.8693
-0.327811
-4.16073
1.48709
-1.74175
-3.68896
5.17605
-4.06573
0.376775
-2.74467
-3.50083
6.24551
-4.5812
3.03685
3.15368
5.08482
-4.912
1.41117
-2.39424
-2.51776
2.65456
-4.39632
1.98697
3.18907
4.36933
0.567249
5.85869
6.19419
-8.47094
0.561492
11.2316
-9.50293
2.46671
8.58492
-9.89761
0.380285
-8.69448
0.99709
-5.23959
-5.10482
5.16852
-6.90562
-3.56352
6.17889
0.654675
-6.28896
-0.410685
-6.04431
-2.84959
-6.48778
-3.04971
-6.14273
-8.74001
-1.6549
-7.08511
6.74686
-6.69244
-3.44706
7.41945
1.12791
-7.41651
7.32141
-7.49661
7.17143
0.0951896
3.62067
4.35718
1.88387
-2.39025
4.27412
-5.10385
7.39069
-8.69342
3.58957
4.17607
-6.73103
-4.51735
5.02937
4.02271
5.32815
8.90479
-10.3811
1.47627
-10.6817
12.0194
-1.33766
-16.451
5.76929
-7.54621
2.4923
0.371766
2.5989
0.564004
2.49976
-3.06377
-2.20978
-2.13054
-2.41772
-3.46354
5.88127
1.11854
-3.50518
2.38665
-3.5662
4.68474
-0.175853
-3.32933
5.28901
-2.78925
5.66078
-3.74206
1.91872
3.42313
5.74706
-2.32392
4.39054
-1.74869
1.90737
-4.23129
-1.55617
-2.96227
5.10238
-3.28324
3.66001
-0.332619
3.99263
-4.07626
0.862984
-0.76946
3.41809
3.66876
4.3036
-3.07346
2.92681
-4.6755
-1.30449
-4.10825
-0.919176
-0.271588
-3.72949
4.00108
6.00324
-6.27483
-5.24056
9.53984
-4.29927
7.70186
-5.38761
-2.31426
-4.25967
-4.39342
3.88447
1.93212
9.63398
0.210247
-5.59785
-4.93495
-3.98452
3.13183
2.13829
-1.81413
3.47754
2.12987
-0.552931
0.468993
0.969362
1.79403
-1.32503
0.28514
1.50889
-1.06111
1.82545
0.768151
-1.90066
0.12499
-1.3135
3.53253
1.07598
-1.99311
0.668083
0.99446
-3.53489
4.99215
-2.63913
-2.35302
5.98661
1.14357
-3.7827
4.33973
-3.94119
2.3692
-3.48704
-1.4135
-5.35469
-3.62387
-2.53543
4.92208
-3.34583
5.45794
1.25185
-5.24968
6.50154
-3.69704
1.68664
-3.07858
3.84673
-0.987698
-2.09088
2.88161
2.79901
-3.02558
0.0202127
-0.143967
2.39037
-2.53433
-0.580477
-2.59654
-4.57289
4.90291
-2.10592
4.5531
2.1682
-1.91615
6.46926
1.80966
-3.72582
-3.24838
-3.70818
-1.3834
3.15523
-0.59356
-4.25857
-5.45786
4.1575
0.222876
-6.97226
7.7865
-0.814241
-3.98236
-0.663572
4.7955
-6.02169
0.483286
-3.93917
3.84733
4.7517
4.97458
-11.3759
-0.208429
-6.21646
1.13317
-7.34962
5.52634
-3.55838
7.70206
-10.3578
6.91074
-9.22988
6.52255
-0.827075
6.24793
-4.07688
2.77678
-8.47843
-6.86574
5.46455
-2.75399
6.17778
-3.11581
9.29359
-5.77418
5.25346
4.04013
-1.00154
-4.15707
-5.24778
4.24624
0.0056797
4.13216
4.97849
-2.87069
4.65068
2.26511
-4.65935
-2.13121
-6.49506
1.83572
-3.34138
-1.9192
3.75491
3.16562
3.75305
1.23715
-3.34405
7.17591
-8.15896
-1.84689
-3.25793
5.23481
-0.988567
3.37889
-6.63682
-1.8607
4.82849
-0.784633
-4.04386
0.850949
-4.41447
1.67548
-6.08995
5.23014
-5.64082
2.22171
-9.76792
-5.1948
-5.14922
-2.2593
-5.23732
-7.58554
5.32625
-1.81626
5.50516
-8.53063
7.746
-3.48875
8.81499
-5.43666
-1.05112
5.85213
1.3193
10.1343
0.207442
-4.72479
-1.90726
3.88655
-1.97929
1.22457
-3.52205
0.364501
2.48236
3.50425
-6.727
-0.00402852
-4.72882
-3.9211
7.94381
5.61874
11.622
1.24092
9.12726
-1.18345
10.3682
4.1447
4.38068
-3.01626
4.49253
0.984823
4.57439
-0.905909
2.82463
1.69299
1.76627
0.733755
2.30718
1.36158
3.17017
0.106398
-2.02414
4.62569
-8.61021
-0.97216
-8.0389
1.12466
5.71385
-4.58919
3.00601
-0.867721
1.02672
-0.0354418
-1.37854
1.41398
-2.76514
-1.93147
-0.422587
-1.66797
2.33605
1.86456
-1.91346
-0.85168
0.35468
-3.97855
3.13236
-3.11215
-0.313133
6.1884
-2.80939
0.27506
-1.12275
-2.32148
-2.84897
2.72398
6.17625
0.293011
3.11268
5.19592
3.0994
0.228706
3.90377
-5.67585
-3.62331
-5.88428
-0.357943
4.43755
1.74528
7.9547
5.78541
4.79685
-1.83997
-9.99893
6.55852
-2.06599
5.22086
-1.177
-4.91295
5.02408
2.36661
-5.67875
0.0379298
-4.87502
-6.94101
-0.514511
8.26051
-9.61978
8.56866
5.71907
1.36604
-4.4112
-0.738021
4.24292
0.137761
10.5059
-1.12743
-6.75544
7.88288
-4.58642
3.61426
0.776272
2.70126
2.19026
1.32253
-5.43291
-10.0221
-2.00521
-1.52967
-4.35824
0.516791
-2.38135
6.23239
-2.61813
3.91813
5.26475
6.29147
-2.13967
-4.13516
6.43894
-2.52081
3.77066
)
;

boundaryField
{
    wall-4
    {
        type            calculated;
        value           uniform 0;
    }
    velocity-inlet-5
    {
        type            calculated;
        value           uniform -3.75095;
    }
    velocity-inlet-6
    {
        type            calculated;
        value           uniform -5.62643;
    }
    pressure-outlet-7
    {
        type            calculated;
        value           nonuniform List<scalar> 8(3.30414 7.75119 4.42663 9.74726 7.42161 5.15322 5.73253 8.97676);
    }
    wall-8
    {
        type            calculated;
        value           uniform 0;
    }
    frontAndBackPlanes
    {
        type            empty;
    }
}


// ************************************************************************* //
