/*--------------------------------*- C++ -*----------------------------------*\
  =========                 |
  \\      /  F ield         | OpenFOAM: The Open Source CFD Toolbox
   \\    /   O peration     | Website:  https://openfoam.org
    \\  /    A nd           | Version:  13
     \\/     M anipulation  |
\*---------------------------------------------------------------------------*/
FoamFile
{
    format      ascii;
    class       volVectorField;
    location    "54";
    object      U;
}
// * * * * * * * * * * * * * * * * * * * * * * * * * * * * * * * * * * * * * //

dimensions      [0 1 -1 0 0 0 0];

internalField   nonuniform List<vector> 
918
(
(0.985162 -0.000504988 0)
(0.00501498 2.96625 0)
(0.00808604 0.880933 0)
(0.979703 0.00214701 0)
(-0.0127819 2.06607 3.21593e-20)
(-0.00704864 2.9488 -2.47757e-18)
(0.813202 1.15457 4.4431e-19)
(0.186172 0.0953618 -1.52739e-20)
(0.999908 -0.000279445 0)
(0.0602213 0.762955 0)
(0.00994651 0.563029 0)
(0.735044 -0.0185518 0)
(0.011121 2.93038 0)
(0.00247023 2.79519 0)
(-0.017749 3.15097 7.79353e-19)
(-0.0179692 1.91215 5.28275e-21)
(0.282182 0.0372573 1.02147e-18)
(0.185123 1.1418 3.18486e-19)
(0.962743 0.00501992 0)
(0.0076379 0.506907 0)
(0.0104421 0.126506 -7.17006e-19)
(1.00198 -0.00497742 0)
(1.00022 -0.00978778 0)
(0.975733 -0.00643927 0)
(0.590564 -0.0128552 0)
(0.015406 2.64103 0)
(-0.0149206 2.91004 9.12011e-19)
(0.0118431 0.936448 0)
(-0.0111069 1.17989 0)
(0.0124903 0.917031 0)
(-0.0132454 2.59903 0)
(-0.00135287 2.11519 -2.56847e-20)
(-0.00849417 1.89726 0)
(-0.020601 2.98761 -8.90822e-23)
(-0.0166844 3.00529 1.92541e-18)
(0.0020981 3.00017 0)
(0.871121 -0.00960629 0)
(0.404008 0.935619 1.80039e-19)
(0.798559 1.16897 -5.05926e-19)
(0.948856 1.01584 5.47209e-19)
(0.667641 1.25996 -1.03129e-19)
(0.668992 1.23368 5.93576e-19)
(0.22201 0.157227 1.4901e-20)
(0.199183 0.0698663 0)
(1.14981 0.558405 0)
(0.192957 0.14774 6.7909e-20)
(0.159777 0.0931356 -7.04656e-20)
(0.919855 -0.00745217 0)
(1.00027 0.00015709 0)
(0.999909 0.000335957 0)
(1.00363 -0.00776441 0)
(1.00096 -0.000921668 0)
(1.00017 3.4299e-05 0)
(0.0742987 1.82149 -7.7903e-19)
(0.0275009 0.966642 0)
(0.0944287 0.832166 0)
(0.0120279 0.92145 0)
(0.0354376 0.695356 0)
(0.00735415 2.00567 0)
(0.00095235 0.819558 0)
(0.0117554 0.578353 0)
(-0.00158177 0.813616 0)
(0.00829546 0.548167 0)
(0.840593 -0.0158273 0)
(0.842429 0.031013 0)
(0.76758 -0.00738396 0)
(0.808618 0.0412921 0)
(0.704933 -0.0192709 0)
(0.0146826 3.00041 9.18493e-19)
(0.0114848 3.00808 0)
(0.00610343 3.00274 0)
(0.013539 2.99737 1.04212e-23)
(0.00796113 2.95847 -1.36511e-18)
(0.0145026 2.98203 0)
(0.0108883 2.90354 0)
(0.0242144 2.93081 2.09273e-24)
(0.00471985 2.82519 0)
(0.030448 2.9166 0)
(-0.00468077 2.74526 0)
(0.306359 3.54535 0)
(-0.131664 3.62629 0)
(0.138417 3.24122 -7.25264e-19)
(-0.0133925 2.97867 0)
(-0.0166141 1.97926 0)
(-0.00602064 2.16509 -5.2104e-21)
(-0.0121804 1.91743 -2.07183e-21)
(0.374017 0.144968 -3.54417e-19)
(0.305987 0.0236065 -3.43653e-19)
(0.338145 0.154748 -1.0622e-18)
(0.252177 0.0440787 -6.94061e-19)
(0.227314 0.975841 0)
(0.267977 1.28749 -3.68718e-19)
(0.360885 1.21918 6.14203e-19)
(0.98745 0.00856377 0)
(0.941887 0.00583243 0)
(1.0003 0.000579581 0)
(1.00286 0.00930765 0)
(1.00302 0.00846751 -2.7478e-18)
(0.99191 0.00969702 2.07504e-18)
(-0.00265538 0.805232 0)
(0.0085242 0.52224 0)
(-0.037669 1.0057 0)
(-0.0210535 0.840894 0)
(0.0030168 0.502596 0)
(0.0244349 0.133644 2.21422e-19)
(0.0973864 0.105575 0)
(0.993548 -0.00837544 0)
(0.954447 -0.00652571 0)
(0.752376 0.046958 0)
(0.687331 0.0485009 0)
(0.66399 -0.0253712 0)
(0.967756 -0.00788648 0)
(0.598227 0.0700483 0)
(0.443977 -0.0133016 1.5407e-18)
(-0.0372664 2.86174 6.7561e-19)
(0.0410557 2.90985 0)
(0.0536865 2.88607 0)
(-0.00443989 2.70044 0)
(-0.0130819 2.98525 8.63518e-19)
(-0.0178475 2.8951 0)
(-0.0153809 2.98805 -2.67753e-18)
(-0.0132815 2.9252 9.16699e-19)
(-0.0170986 1.34591 0)
(0.00474429 1.37403 0)
(-0.00635648 2.12979 3.84138e-22)
(-0.00539097 2.09419 0)
(-0.0198809 1.90303 0)
(0.938385 -0.00747435 0)
(0.857114 -0.00992246 0)
(0.863323 0.00589359 0)
(0.949455 -0.00788479 0)
(0.883915 -0.00816709 0)
(0.515674 1.12876 -2.27413e-19)
(0.564794 1.17979 0)
(0.368569 0.880639 3.36602e-20)
(0.310969 0.739501 0)
(0.910357 1.05292 -1.50768e-19)
(1.02722 0.86367 3.04389e-19)
(0.353521 1.34476 0)
(0.521249 1.31448 0)
(0.54496 1.25353 0)
(0.119788 0.185253 -3.02189e-19)
(0.249104 0.150469 0)
(0.221524 0.0738742 1.95167e-19)
(0.998236 0.917969 0)
(1.07116 0.772729 0)
(1.09626 0.714304 -2.39178e-19)
(1.12924 0.6178 0)
(1.17992 0.402462 5.65062e-20)
(0.957674 -0.00874984 0)
(0.962467 -0.0100616 0)
(0.901667 -0.00797439 0)
(0.984192 -0.00915774 0)
(0.974688 -0.00935277 0)
(0.937108 -0.00636809 0)
(1.00019 0.00233809 0)
(1.0009 0.00140939 0)
(0.99991 0.000853907 0)
(0.0351799 2.07244 4.3151e-19)
(0.119481 1.76461 0)
(0.0175398 2.18678 6.64723e-19)
(0.0468745 1.87513 -5.55922e-19)
(0.100491 1.15092 -2.60855e-19)
(0.0432249 1.04037 0)
(0.140004 0.986116 0)
(0.00649021 0.880252 0)
(0.0169143 0.643523 0)
(-0.00135576 2.23826 -9.12584e-22)
(0.0165645 2.0104 0)
(-0.00201907 2.23953 -3.56595e-20)
(0.00894291 2.014 5.8168e-20)
(0.00299269 0.855359 0)
(0.00125847 0.835263 0)
(0.0111376 0.603558 0)
(-0.00595746 0.813836 0)
(0.00655692 0.533864 0)
(0.937464 0.00956633 0)
(0.848848 -0.0149068 0)
(0.926906 0.000233728 0)
(0.841791 -0.0129545 0)
(0.812086 -0.000687787 0)
(0.899954 0.0211605 0)
(0.874727 0.0259355 0)
(0.78877 -0.00350477 0)
(0.00559322 3.06474 -8.56719e-21)
(0.0167105 3.05781 0)
(0.0146686 2.96902 0)
(0.00862148 2.87617 0)
(0.922501 3.95935 0)
(1.23628 3.29272 9.28957e-19)
(0.0692901 3.07091 0)
(-0.0290664 2.90343 0)
(-0.00407707 1.39476 0)
(-0.0213532 1.68978 0)
(-0.0085881 1.52779 0)
(-0.0255245 2.55832 -1.0597e-20)
(-0.00824655 2.24271 0)
(-0.0143797 2.39329 0)
(0.00134324 1.94086 8.52199e-22)
(-0.00317298 2.23488 -1.02932e-21)
(-0.00459493 2.19804 1.97112e-21)
(-0.0060743 1.92797 0)
(0.420185 0.127468 5.39652e-19)
(0.353538 0.0129701 -5.29624e-19)
(0.259402 1.58417 0)
(0.275384 0.749353 -3.15285e-19)
(0.17697 1.67068 -1.05077e-18)
(0.226278 1.21413 1.05315e-18)
(0.902093 0.00640901 0)
(0.967435 0.0110988 0)
(0.974567 0.010797 0)
(0.92335 0.00642764 0)
(-0.000833502 0.810784 0)
(-0.000322204 0.806731 0)
(-0.00194665 0.526976 0)
(0.166156 0.137819 6.27373e-19)
(0.138426 0.125658 -7.40031e-19)
(0.131463 0.0957676 0)
(1.09439 0.0849893 2.74242e-20)
(1.07657 0.0387354 0)
(1.01009 0.0393954 0)
(0.904851 -0.00607325 0)
(0.467021 0.107166 0)
(0.522611 0.0879319 -2.46186e-18)
(0.396588 0.00809426 9.20658e-19)
(0.00875009 2.98063 7.24207e-19)
(-0.0330498 2.86526 4.63645e-20)
(0.00363407 3.05022 -1.81353e-20)
(0.0202234 3.04338 6.45394e-19)
(-0.0150092 2.99658 3.0102e-20)
(-0.01296 2.9495 -1.21112e-22)
(-0.0172585 3.01192 -5.57025e-19)
(0.014884 3.02373 4.03058e-19)
(0.00738775 3.03681 -6.38624e-19)
(0.933537 -0.00136627 0)
(0.939161 -0.00332632 0)
(0.845456 -0.0094655 0)
(0.956596 0.0118529 0)
(0.942787 0.0131532 0)
(0.881649 0.00593725 0)
(0.917226 0.0171005 0)
(0.92607 0.0149555 0)
(0.838553 0.00264934 0)
(0.718198 1.4062 4.1621e-20)
(0.75148 1.51497 0)
(0.184343 0.319593 7.0946e-20)
(0.225812 0.667323 5.72096e-19)
(0.262359 0.721628 -3.33584e-19)
(0.264969 0.527462 6.63241e-19)
(0.343337 0.807099 1.58978e-18)
(0.138791 0.22883 3.74694e-19)
(0.304691 0.157897 7.35793e-19)
(0.276347 0.156446 1.91525e-19)
(0.23363 0.0593154 3.63958e-19)
(1.1692 0.460413 5.5462e-20)
(1.18598 0.254451 5.08752e-20)
(0.00967497 2.23452 2.57201e-19)
(0.0410272 1.942 0)
(0.968724 0.0289843 0)
(0.941895 0.0136816 0)
(0.867303 -0.0181029 0)
(0.0112568 3.07434 0)
(0.0196361 2.94399 1.18129e-18)
(0.0164363 2.9563 0)
(0.00638019 2.85063 -1.17189e-18)
(0.00624384 3.09079 2.86601e-19)
(0.00726394 3.08263 0)
(0.784356 1.81684 -1.5984e-19)
(1.24414 2.49317 4.07093e-19)
(0.766398 1.95627 -1.23447e-18)
(0.0198558 2.98063 -6.24632e-19)
(0.035439 3 0)
(-0.0341898 2.87733 0)
(-0.00385262 2.21872 -1.31476e-20)
(-0.00281585 2.24008 -1.62664e-21)
(0.00316653 1.97537 -7.34933e-21)
(0.277453 1.39239 1.02504e-18)
(0.235284 0.541308 -7.03027e-19)
(0.0634935 1.99716 7.66321e-19)
(0.135537 1.88399 -9.13261e-19)
(0.180256 1.50652 9.40787e-20)
(0.00176408 3.11883 -1.78742e-18)
(0.0159393 3.11808 1.91827e-18)
(-0.00907602 2.98114 7.93444e-19)
(-0.00367516 2.97745 -7.49927e-19)
(-0.0210235 2.88118 -8.08102e-19)
(0.00863867 3.09986 -2.13138e-18)
(0.00234571 3.10606 2.08307e-18)
(0.280337 0.694047 0)
(0.247173 0.68349 -1.18633e-18)
(0.0962013 0.225735 5.26747e-19)
(0.355585 0.933217 1.1108e-18)
(0.193864 0.274018 -1.71262e-18)
(1.17921 0.173316 6.51077e-20)
(1.18648 0.308881 0)
(1.16752 0.121491 -9.37508e-21)
(0.000971012 2.25084 -1.55396e-21)
(0.00427204 2.24338 0)
(0.0253015 1.97716 0)
(0.340076 1.30143 -3.6844e-19)
(0.372945 1.14463 -7.99495e-19)
(0.208219 0.37437 1.42475e-18)
(1.00588 -0.0108409 0)
(1.00767 -0.0076413 5.06971e-19)
(-0.0150348 1.32565 0)
(-0.0300221 1.32181 0)
(1.00222 0.00350727 1.80723e-21)
(1.00366 0.00945854 1.03499e-18)
(-0.0164969 2.54162 1.34323e-20)
(-0.0215004 2.58448 0)
(0.0348406 3.17746 4.14126e-19)
(0.392367 3.48625 0)
(1.1688 0.658528 -6.08572e-20)
(1.01288 0.0131155 -2.14209e-21)
(1.0213 -0.0103327 0)
(1.0017 0.000119355 7.49345e-23)
(0.103058 1.36089 0)
(0.143924 2.57506 0)
(0.0240911 1.30436 0)
(-0.00136812 2.62493 3.39223e-20)
(-0.0223507 2.58087 9.64985e-21)
(0.999697 0.029334 2.46234e-21)
(1.0626 0.00430068 0)
(1.09647 0.0243638 0)
(-0.0235138 1.73303 0)
(-0.0169584 2.58222 0)
(-0.00111574 1.30779 0)
(0.304005 1.47515 -1.69719e-19)
(1.01129 -0.0096307 0)
(1.0094 -0.0149206 0)
(1.00236 0.000738236 6.47776e-19)
(1.00547 -0.00481185 -7.61475e-19)
(1.00118 -0.000978494 0)
(-0.00983303 1.45981 0)
(-0.00319124 1.37262 0)
(-0.00143327 1.41788 0)
(-0.00540166 1.29608 0)
(-0.0108894 1.28345 0)
(-0.00172332 1.26489 0)
(1.03487 -0.00617864 0)
(1.02 0.0156294 -8.65803e-22)
(0.819708 1.26748 2.56965e-19)
(1.00224 0.00030151 -6.45652e-19)
(1.00406 0.00525169 7.55537e-19)
(1.00118 0.00206844 0)
(1.01276 0.0103341 6.4224e-19)
(1.008 0.00830297 -7.78156e-19)
(1.00857 0.0146914 0)
(-0.0214431 2.61066 0)
(-0.0229797 2.59117 -1.55043e-20)
(-0.0207895 2.60481 1.0982e-20)
(1.23382 0.264647 5.90438e-19)
(1.16016 0.0858706 0)
(0.0412901 3.07749 -9.23958e-19)
(0.0648485 2.85545 -6.72229e-20)
(0.139393 3.19213 1.41427e-18)
(0.134627 3.22038 -2.01123e-19)
(0.133359 3.23161 0)
(0.0199865 3.13741 2.38455e-19)
(0.0752293 3.16006 9.11201e-19)
(0.0679151 3.18546 -4.49428e-19)
(0.0223784 3.12986 0)
(0.607727 0.276928 0)
(0.531062 0.311465 0)
(1.13941 0.694941 1.41231e-19)
(1.13442 0.816037 -1.28259e-19)
(1.19623 0.581071 0)
(1.22487 0.515843 0)
(1.01609 0.0133446 -1.19717e-18)
(1.01499 0.0142691 1.50273e-18)
(1.02531 -0.00985667 0)
(1.02338 -0.0118875 0)
(1.00642 0.00259573 0)
(1.01042 0.00371713 0)
(1.00459 0.0018511 0)
(1.0098 0.00621834 0)
(1.00783 0.00596033 0)
(1.00451 0.00469269 0)
(0.0921321 1.35849 0)
(0.0866105 1.32689 0)
(0.123835 1.39591 0)
(0.138905 1.40342 0)
(0.145197 2.60001 0)
(0.18549 2.66924 -4.26312e-19)
(0.100815 2.65582 0)
(0.0845523 2.65813 2.00612e-19)
(0.0377258 2.67993 -1.55474e-19)
(0.018472 1.31862 0)
(0.0207989 1.24449 0)
(0.020042 1.32726 0)
(0.0352083 1.26931 0)
(0.00141869 1.98321 -2.93324e-21)
(-0.0211563 2.60882 -1.14464e-20)
(-0.0098179 2.66645 2.08659e-20)
(-0.019354 2.68444 0)
(-0.0236486 2.61435 -1.98959e-20)
(-0.023719 2.60914 3.77971e-21)
(0.0103191 1.9818 4.75111e-21)
(-0.00838148 2.3972 1.53575e-20)
(-0.0145476 2.41918 -2.36641e-20)
(1.01003 0.0376539 1.22274e-18)
(1.00529 0.0160594 -1.51062e-18)
(1.00124 0.0451666 -1.22518e-18)
(0.977031 0.0233213 1.56159e-18)
(1.06383 0.00810845 0)
(1.04906 -0.00841173 0)
(1.09367 0.0343551 0)
(1.07381 0.0125285 0)
(1.07159 0.000275589 0)
(1.13951 0.0821245 0)
(1.11086 0.0438629 0)
(1.11431 0.0318203 0)
(-0.0208545 2.43122 6.94699e-22)
(-0.00962504 2.00599 0)
(-0.0101997 2.21244 0)
(-0.0188336 2.60298 -7.48636e-21)
(-0.0166025 2.61277 6.28262e-23)
(0.00482735 1.56917 -2.8816e-20)
(-0.00218656 1.49841 2.93463e-20)
(-0.0120312 1.38796 0)
(-0.015115 1.39501 0)
(-0.0190554 1.39001 0)
(-0.00205599 1.3085 0)
(0.00884594 1.23533 0)
(0.383364 1.49178 2.76383e-19)
(0.425839 1.49243 1.45379e-19)
(0.598127 2.44934 -2.40053e-19)
(0.399975 2.54596 7.06972e-19)
(0.351751 2.06087 7.07855e-20)
(1.02103 -0.00815214 0)
(1.01549 -0.00976649 0)
(1.01491 -0.0155087 0)
(1.0074 -0.00111356 0)
(1.00493 -0.00092615 0)
(1.00777 -0.00471226 0)
(1.00926 -0.00364961 0)
(1.0142 -0.00441798 0)
(1.02074 0.0162327 1.17249e-18)
(1.0178 0.0156044 -1.50063e-18)
(1.02109 0.0182184 -1.18145e-18)
(1.01884 0.0167354 1.47773e-18)
(0.782595 1.31871 0)
(0.720085 1.36784 2.44345e-19)
(0.893613 1.21975 9.4458e-20)
(0.939731 1.16433 -1.25697e-19)
(1.15621 2.6027 2.76955e-19)
(0.779806 0.119071 6.00113e-19)
(1.16223 0.107368 0)
(1.20999 0.192118 -4.74778e-19)
(1.19673 0.153927 -2.01543e-20)
(1.00563 0.154695 0)
(0.131024 2.959 5.39182e-19)
(0.10783 2.86488 -1.17235e-18)
(0.0172315 2.37525 7.85811e-19)
(0.0913762 -0.104612 -3.42975e-19)
(0.337211 3.41598 -2.13694e-19)
(0.191791 3.30986 0)
(0.235426 3.35087 2.78304e-19)
(0.241184 3.03179 -1.79578e-18)
(0.335319 3.19055 0)
(0.00620713 3.12107 4.64266e-20)
(0.0157329 3.12986 -5.47896e-19)
(0.0143896 3.12594 8.06392e-19)
(0.0350924 3.14001 0)
(0.0335811 3.1503 0)
(1.21256 2.60086 0)
(0.542724 0.81369 -5.2946e-19)
(1.06171 0.989216 -3.9324e-21)
(0.996101 1.07435 0)
(0.849688 0.971511 -1.11314e-19)
(1.08558 0.890912 2.8238e-20)
(0.336752 0.355505 -8.84566e-19)
(0.668877 0.315636 -1.85447e-20)
(0.602292 0.219499 4.16363e-19)
(0.556843 0.347103 3.07115e-20)
(0.455652 0.299534 -1.23452e-18)
(0.632801 0.321917 0)
(0.701393 0.420105 7.08547e-19)
(0.709708 0.421323 0)
(0.592611 0.342588 0)
(0.538475 0.254095 0)
(0.813164 0.618588 4.17694e-19)
(1.23464 0.286873 -4.97993e-19)
(1.23439 0.42532 0)
(1.24255 0.365705 0)
(0.712485 0.191998 6.22009e-19)
(0.861896 0.546849 -3.84093e-19)
(0.76048 0.516885 6.81585e-19)
(0.956767 0.437913 -7.48412e-19)
(1.0194 0.0148674 8.04724e-19)
(1.01768 0.014299 -8.09786e-19)
(1.01592 0.0154378 0)
(1.03633 -0.00571651 0)
(1.0298 -0.00844638 -7.58513e-19)
(1.02783 -0.0120235 7.50983e-19)
(1.02491 0.0102776 0)
(1.02346 0.0139769 0)
(1.01142 0.00411826 0)
(1.01423 0.0090971 0)
(1.01514 0.00409172 0)
(1.01425 0.00285135 0)
(0.0619037 1.34262 0)
(0.0669359 1.29651 0)
(0.142962 1.37492 9.21829e-21)
(0.275383 1.47215 8.96996e-20)
(0.16747 1.44311 1.8808e-19)
(0.200013 1.44918 -3.06992e-19)
(0.165084 1.40035 0)
(0.133307 1.59828 -7.20008e-20)
(0.116285 1.5737 0)
(0.349359 2.01233 -1.02917e-19)
(0.344228 2.34593 6.16368e-19)
(0.190403 1.45813 6.27652e-20)
(0.262479 1.39032 2.38121e-20)
(0.198834 1.37922 -1.93026e-20)
(0.275243 1.33468 -1.00789e-19)
(0.242233 1.58106 0)
(0.265493 1.6196 1.10508e-19)
(0.0301009 2.26507 -3.06317e-20)
(0.0426437 2.66972 0)
(0.0654863 2.40202 1.37005e-19)
(0.0618574 2.42281 0)
(0.0688362 2.67178 -2.22279e-19)
(0.0483103 2.69963 0)
(0.0262371 1.42224 2.42791e-20)
(0.0331752 1.47361 0)
(0.0286285 1.39046 0)
(0.0236947 1.3944 -2.73949e-20)
(-0.000820855 2.65286 -1.72193e-20)
(0.0285569 2.69854 1.75288e-19)
(0.00923656 2.72275 1.23905e-21)
(0.00159909 1.83221 3.80287e-21)
(-0.00420858 1.6843 -2.4547e-22)
(0.0134501 1.29748 0)
(0.0175065 1.2215 0)
(0.0460195 1.58166 -2.04505e-20)
(0.0289829 1.45617 -2.57125e-20)
(0.0357532 1.52067 3.25022e-20)
(0.0387208 1.60578 0)
(-0.0277105 2.26789 7.90997e-20)
(-0.0287134 2.54877 -3.25572e-20)
(-0.0160131 2.44527 1.87853e-21)
(-0.00438655 1.84896 -4.60819e-21)
(-0.0253639 2.49876 -8.09983e-22)
(-0.0208146 2.44241 1.18684e-20)
(1.01895 0.0210952 -8.01659e-19)
(1.01482 0.0270757 8.05095e-19)
(1.0139 0.0165073 0)
(1.01199 0.0718487 1.12921e-18)
(0.989504 0.0602334 -1.27279e-18)
(0.946597 0.0472789 1.42343e-18)
(1.01437 0.11106 -1.50489e-19)
(1.04269 -0.00572777 0)
(1.05099 -0.00141687 7.23503e-19)
(1.03899 -0.00986066 -7.24968e-19)
(1.07117 0.0422248 -4.30445e-20)
(1.06447 0.0236414 3.71128e-19)
(1.06319 0.056067 0)
(1.05344 0.0496814 -1.33475e-19)
(1.03252 0.0427597 0)
(1.02546 0.0389882 0)
(1.02782 0.013305 0)
(1.02397 0.0160021 0)
(1.03969 0.0321462 2.74921e-19)
(1.03898 0.0271747 -6.07741e-19)
(1.05103 0.0340358 -2.91329e-19)
(1.04819 0.0340128 -3.20967e-19)
(1.07114 0.0646613 6.26066e-19)
(1.0962 0.052203 0)
(1.1049 0.0959395 0)
(-0.0229068 2.27292 4.59594e-20)
(-0.0203281 2.01455 1.26972e-22)
(-0.0169737 2.02094 0)
(-0.0245601 2.44368 -4.57549e-20)
(-0.0187747 2.39971 -7.82083e-22)
(-0.0293597 2.47236 4.52052e-21)
(-0.0205675 2.62159 -3.87501e-21)
(-0.0220036 2.56293 -5.40682e-22)
(-0.0212049 2.51433 -4.42955e-22)
(-0.0149576 2.61554 6.0079e-21)
(-0.0204375 2.61744 -5.75713e-21)
(-0.00376014 1.48863 -3.19122e-22)
(0.00569285 1.61756 -2.47394e-20)
(0.367702 1.44282 -1.16855e-19)
(0.368718 1.38001 3.35851e-20)
(0.659912 1.41821 -2.36509e-19)
(0.526314 1.48504 -1.4286e-19)
(0.585427 1.45043 0)
(0.593848 2.42617 2.06941e-19)
(0.661788 2.42059 3.37755e-19)
(0.411554 2.51652 8.71353e-20)
(0.403042 2.54127 -6.11093e-19)
(0.511253 2.48322 6.12139e-19)
(0.553655 2.46314 0)
(0.489036 2.52048 -5.6e-19)
(0.248519 2.59325 1.14951e-18)
(0.354868 2.56566 -7.83622e-20)
(0.284371 2.65492 -1.59125e-18)
(0.947607 2.37788 7.27334e-19)
(0.838258 2.38345 0)
(1.01105 0.000480052 2.62823e-20)
(1.01532 -0.0054234 -2.13234e-20)
(1.01765 -0.00354641 -3.8947e-19)
(1.015 -0.000898954 3.91518e-19)
(1.01243 0.001189 0)
(0.646201 1.28687 0)
(0.66977 1.18283 0)
(0.782154 1.09846 0)
(0.662215 1.14533 0)
(1.18597 2.61641 5.97601e-20)
(1.07447 2.36358 0)
(0.836492 2.17115 3.82075e-21)
(0.825481 2.43682 0)
(0.922908 2.52934 -4.21163e-19)
(0.958304 2.4853 2.80197e-19)
(0.805245 0.177402 0)
(0.756479 0.152656 1.62798e-19)
(0.914101 0.149251 9.47922e-19)
(0.828656 0.151224 -3.55502e-19)
(0.788071 0.0863131 -1.09467e-18)
(1.08058 0.237578 -8.97422e-19)
(0.998052 0.297485 -1.64049e-20)
(0.929238 0.300364 8.65643e-19)
(1.00792 0.229288 7.23689e-19)
(0.950234 0.194547 -1.25536e-18)
(0.914065 0.198908 1.56915e-19)
(0.953807 0.262035 -3.33395e-19)
(0.929167 0.22441 0)
(0.993761 0.190909 6.189e-19)
(1.04701 0.191376 0)
(1.04431 0.218897 0)
(1.10622 0.119312 2.90977e-19)
(1.071 0.178372 -1.47419e-20)
(1.07464 0.238065 -1.58248e-19)
(1.10131 0.204454 0)
(1.02303 0.0468796 6.20329e-19)
(1.03981 0.0595747 7.73172e-19)
(1.03384 0.04518 -6.15141e-19)
(1.04272 0.0665481 -5.18183e-19)
(1.01947 0.0743368 -7.94243e-19)
(0.987513 0.161223 0)
(0.997061 0.106194 0)
(0.964672 0.0686818 -5.06313e-19)
(0.909309 0.0939299 1.99148e-19)
(1.03942 0.106108 7.1618e-19)
(1.06898 0.122589 -8.39126e-19)
(1.07469 0.155562 7.49043e-19)
(1.02959 0.146273 0)
(1.07451 0.110736 0)
(1.05466 0.0914506 -3.43501e-19)
(1.04358 0.0962598 -5.85691e-19)
(0.581094 1.06407 1.39484e-19)
(0.607626 1.39143 -4.09434e-20)
(1.15584 2.73226 -2.25671e-19)
(1.22167 3.07432 1.28837e-21)
(1.24786 2.71529 -1.21988e-19)
(1.27672 2.69886 -3.35315e-20)
(1.2046 2.33945 -1.08286e-20)
(1.20927 2.97822 -9.1377e-20)
(1.22925 2.94357 2.31523e-19)
(1.21205 3.22746 -1.44254e-19)
(1.37213 2.95881 1.99386e-19)
(1.36146 2.87701 0)
(0.555555 0.821382 -5.00668e-20)
(0.120311 1.23597 5.71935e-19)
(0.545859 0.391525 5.74797e-19)
(0.384967 0.138778 6.29396e-19)
(0.493744 0.338154 6.98052e-19)
(0.541426 0.446387 -1.12423e-18)
(0.543851 0.444662 9.19204e-19)
(0.476872 0.348629 -3.49782e-19)
(0.372285 0.279372 7.94304e-19)
(0.72574 0.262542 -3.58388e-19)
(0.686942 0.285621 0)
(0.648593 0.205272 7.78182e-21)
(0.736851 0.506718 3.72867e-19)
(0.709863 0.476894 -1.35813e-18)
(0.61503 0.451624 1.29331e-20)
(0.618832 0.441881 0)
(0.684333 0.719676 3.98793e-19)
(0.845589 0.776101 3.99889e-19)
(0.770537 0.858285 -4.67815e-19)
(0.893377 0.814356 -1.57375e-19)
(0.925358 0.858644 -3.82525e-20)
(0.932509 0.858858 3.91688e-20)
(0.856949 0.654456 -6.92082e-19)
(0.938979 0.709018 1.46177e-19)
(0.99953 0.725294 0)
(0.990168 0.701779 -1.98324e-19)
(1.02739 0.337144 2.15252e-19)
(1.14541 0.302163 2.92465e-19)
(1.06787 0.274871 3.67009e-19)
(1.01504 0.369584 -4.35372e-19)
(1.06296 0.434197 0)
(1.11906 0.417018 0)
(0.921993 0.371654 3.36794e-21)
(0.841994 0.304519 0)
(0.883901 0.302893 4.07963e-19)
(0.911376 0.307666 -6.69139e-21)
(0.950204 0.440782 2.08532e-18)
(0.908925 0.497576 5.38035e-19)
(0.914034 0.463698 -5.72952e-19)
(0.834083 0.448214 6.13938e-19)
(0.816569 0.441294 3.68641e-19)
(0.785152 0.423565 -3.62517e-19)
(1.02734 -0.000314719 6.48737e-19)
(1.02 1.80501e-07 0)
(1.01852 0.000925355 4.22974e-19)
(1.02168 -0.0016372 -9.58133e-19)
(1.02233 0.00440095 4.65463e-19)
(1.02034 0.0113794 -9.74766e-19)
(1.02127 0.0107552 0)
(1.02054 0.0109862 -2.0315e-19)
(1.01595 0.00776971 5.0965e-19)
(1.01665 0.0105434 -2.5429e-19)
(1.01735 0.00989159 1.87282e-19)
(0.0284285 1.31866 0)
(0.0344603 1.36331 0)
(0.0432876 1.31978 0)
(0.0480269 1.2755 0)
(0.0706323 1.38676 -4.38068e-20)
(0.0774055 1.35617 2.02377e-20)
(0.113069 1.52735 -1.36947e-20)
(0.0949401 1.37216 -5.89171e-21)
(0.0337267 1.46084 6.3548e-21)
(0.0377561 1.45379 -4.73119e-21)
(0.0624113 1.37134 -8.40269e-21)
(0.0545821 1.37262 3.8725e-20)
(0.0485056 1.34801 5.59271e-21)
(0.0392099 1.37129 2.23442e-21)
(0.106962 2.37211 -1.51228e-19)
(0.095801 2.4194 0)
(0.170713 2.04689 1.07538e-19)
(0.111125 1.70982 3.92865e-20)
(0.23273 2.042 -8.92573e-20)
(0.202648 2.43397 0)
(0.264133 2.38403 -6.02281e-19)
(0.303989 2.38169 4.26151e-19)
(0.230429 2.00286 -2.47503e-19)
(0.154686 2.16238 1.68313e-19)
(0.142381 2.27124 0)
(0.0168498 1.87823 -1.14732e-21)
(-0.00168646 2.39618 -4.50519e-20)
(0.00436412 2.15119 0)
(0.0102029 2.45844 -1.35178e-20)
(0.0267089 2.30269 1.22122e-20)
(0.0158796 1.40424 -5.16678e-21)
(0.0139214 1.38923 8.78861e-20)
(0.0134766 1.39426 -2.94615e-20)
(0.0203141 1.3949 -2.39448e-20)
(0.0249326 1.42604 0)
(0.00910395 1.37554 0)
(0.000777058 1.29121 -3.18592e-20)
(0.00935654 1.36734 8.83917e-21)
(0.00975068 1.36741 0)
(0.00803673 1.28491 -2.34804e-20)
(0.0153022 1.21129 4.81363e-20)
(1.04061 0.0117615 0)
(1.04675 0.00802828 -6.7884e-20)
(1.03855 0.0218478 -4.89779e-19)
(1.04823 0.0206622 0)
(1.05216 0.0205185 0)
(1.03626 0.0119355 -6.75477e-21)
(1.03096 0.011773 7.87168e-19)
(1.0317 0.0166765 9.5435e-19)
(1.02556 0.0205548 0)
(1.02249 0.0209254 0)
(1.03505 0.0255145 4.88626e-19)
(1.02573 0.0268483 0)
(1.0238 0.0269208 0)
(-0.0179161 2.02063 0)
(0.00174146 1.6476 -4.02018e-21)
(-0.00420002 1.75588 -2.64885e-20)
(0.00358959 1.37917 0)
(-0.00631236 1.54693 -1.22159e-20)
(-0.00608923 1.4565 8.21505e-21)
(0.000543222 1.39202 0)
(0.392634 1.65736 0)
(0.372892 1.30855 -6.65796e-20)
(0.30433 1.34604 0)
(0.427319 1.30885 2.52193e-21)
(0.474012 1.46437 0)
(0.455241 1.41187 2.63236e-20)
(1.03683 2.67927 -1.53851e-20)
(0.968378 2.40677 -9.14248e-19)
(0.92111 2.19386 1.02931e-18)
(0.852149 2.37526 2.42074e-19)
(0.84838 2.4899 0)
(0.91833 2.48573 0)
(0.930927 2.37158 0)
(0.909751 2.3606 -9.44e-19)
(0.688947 2.45532 -3.93241e-19)
(0.801488 2.44484 -9.74397e-20)
(0.812051 2.41877 7.40915e-20)
(0.696095 2.39372 0)
(0.800974 2.3888 0)
(0.759301 2.40222 -3.68375e-19)
(0.768804 2.48031 0)
(0.627977 1.09464 0)
(0.482177 0.907934 -5.05832e-19)
(0.56227 0.947088 -3.20686e-20)
(0.521741 1.04199 0)
(0.521866 0.986934 7.58519e-19)
(0.79178 0.881332 -1.31166e-19)
(0.804549 1.01776 0)
(0.779325 0.984141 1.87795e-19)
(0.662375 1.03203 0)
(0.663804 0.935632 0)
(1.16467 2.75489 -2.29591e-19)
(1.14217 2.8182 -9.67892e-20)
(0.93078 2.3345 9.99426e-20)
(0.898669 2.31405 -8.31971e-20)
(1.13013 2.72806 0)
(1.08389 2.69769 1.00106e-19)
(1.0902 2.48177 -3.14619e-19)
(0.984959 2.23401 -3.0549e-20)
(0.496794 1.34084 0)
(0.511486 1.06823 -1.22982e-19)
(0.576779 1.16974 0)
(0.855962 0.243074 0)
(0.772458 0.192721 0)
(0.7003 0.155784 0)
(0.849074 0.24404 -6.42131e-19)
(0.743408 0.234185 3.73831e-19)
(0.925754 0.0810731 -4.11169e-19)
(0.93782 0.127094 0)
(0.920086 0.137843 1.77093e-19)
(0.856188 0.114384 7.09902e-19)
(0.821665 0.0735209 -4.4449e-19)
(1.15794 3.35257 -7.21547e-19)
(1.2065 3.272 0)
(1.15581 3.38125 -1.49154e-18)
(0.643892 3.54248 1.26626e-18)
(0.866776 3.11089 7.43762e-20)
(0.519931 0.816578 6.03415e-19)
(0.427312 0.813661 0)
(0.318797 0.426263 -1.50071e-19)
(0.462727 0.658354 8.59274e-19)
(0.548645 0.393788 -2.01067e-19)
(0.512188 0.476007 2.33956e-19)
(0.668645 0.516365 5.02944e-19)
(0.704153 0.550273 0)
(0.654597 0.586046 0)
(0.615923 0.532865 0)
(1.00084 0.61166 9.20079e-20)
(0.914014 0.547583 -5.23599e-19)
(0.939731 0.580525 3.95574e-19)
(0.97227 0.518874 -4.0481e-19)
(1.08011 0.490774 0)
(1.08839 0.580875 -9.93771e-20)
(0.856144 0.401494 -8.41704e-19)
(0.857663 0.390111 -1.04159e-18)
(0.795668 0.387334 6.56319e-19)
(0.800643 0.361111 -6.69387e-19)
(0.846211 0.323423 -5.26527e-19)
(0.795176 0.323084 6.44895e-19)
(1.02666 0.00591969 -4.95027e-19)
(1.02637 0.00613953 1.00698e-18)
(1.02938 9.77425e-05 6.28732e-19)
(1.03357 0.00100342 -7.57249e-19)
(1.03371 0.00902787 0)
(1.03004 0.00970578 -1.23254e-18)
(0.0625794 1.64322 2.09121e-20)
(0.0455545 1.58156 0)
(0.0860753 1.69417 1.23858e-19)
(0.0964023 1.67624 -1.08677e-19)
(0.0886361 1.53782 2.56753e-20)
(0.0871466 1.52779 0)
(0.00994707 1.67984 0)
(-0.0036092 1.48413 3.83633e-21)
(-0.00317942 1.43087 -3.45014e-21)
(-0.00682936 1.54329 5.17317e-21)
(0.00138084 1.88151 5.58051e-21)
(-0.0104802 1.93493 6.55727e-22)
(0.499588 1.36553 -2.73641e-19)
(0.493167 1.36805 3.0057e-19)
(0.454516 1.30325 -2.92008e-20)
(0.439383 1.29199 7.71697e-21)
(0.63823 1.30484 0)
(0.553808 1.39475 1.0519e-19)
(0.569437 1.39958 -1.02438e-19)
(0.467553 1.29101 2.83905e-20)
(0.522632 1.24303 0)
(0.574648 1.20627 0)
(0.656106 2.41502 5.77713e-19)
(0.670827 2.45603 1.2606e-18)
(0.715511 2.46673 -8.68338e-19)
(0.61181 2.44134 -2.0188e-19)
(0.561414 2.53171 2.83033e-19)
(0.510075 2.50605 -7.54699e-19)
(0.978537 2.37761 -5.75913e-19)
(1.01345 2.38993 0)
(0.926151 2.17157 -6.63832e-19)
(1.05462 2.67688 0)
(1.0569 2.66355 0)
(0.603769 2.26352 -1.19381e-19)
(1.039 3.15685 1.34608e-19)
(0.910085 3.02724 -3.90382e-20)
(0.271328 0.871078 0)
(0.301759 0.720081 -3.16901e-19)
(0.468444 0.677904 -3.18419e-19)
(0.38274 2.00883 0)
(0.463884 2.78126 -5.1773e-20)
(0.418528 2.54435 0)
(0.704574 0.670759 -8.43671e-19)
(0.785781 0.680153 1.13822e-18)
(0.808214 0.624098 -1.12522e-18)
(0.684386 0.633801 -1.08654e-19)
(0.739259 0.590631 -4.47135e-19)
(1.00211 2.75757 -1.02366e-19)
(1.0418 2.81684 -1.61661e-19)
(0.635017 2.13156 6.80306e-19)
(0.588807 1.69962 -4.85149e-19)
(0.696288 1.89578 -4.03566e-19)
(0.988296 2.44107 -1.13321e-19)
(0.994713 2.43394 2.94085e-19)
(0.65427 1.83136 2.79969e-20)
(0.445019 1.31987 1.43744e-19)
)
;

boundaryField
{
    wall-4
    {
        type            noSlip;
    }
    velocity-inlet-5
    {
        type            fixedValue;
        value           uniform (1 0 0);
    }
    velocity-inlet-6
    {
        type            fixedValue;
        value           uniform (0 3 0);
    }
    pressure-outlet-7
    {
        type            zeroGradient;
    }
    wall-8
    {
        type            noSlip;
    }
    frontAndBackPlanes
    {
        type            empty;
    }
}


// ************************************************************************* //
