/*--------------------------------*- C++ -*----------------------------------*\
  =========                 |
  \\      /  F ield         | OpenFOAM: The Open Source CFD Toolbox
   \\    /   O peration     | Website:  https://openfoam.org
    \\  /    A nd           | Version:  13
     \\/     M anipulation  |
\*---------------------------------------------------------------------------*/
FoamFile
{
    format      ascii;
    class       volScalarField;
    location    "0.5";
    object      Ma;
}
// * * * * * * * * * * * * * * * * * * * * * * * * * * * * * * * * * * * * * //

dimensions      [];

internalField   nonuniform List<scalar> 
5250
(
3.00001
3.00001
3
2.99999
2.99997
2.99991
2.99979
2.9994
2.99862
2.99605
2.99098
2.97493
2.9395
2.83907
2.58835
1.99875
0.987823
0.320381
0.164399
0.253974
0.241119
0.173915
0.120474
0.0646646
0.0312754
3.00001
3.00001
3
2.99999
2.99997
2.99992
2.9998
2.99941
2.99865
2.99612
2.99115
2.97539
2.9406
2.84195
2.59548
2.01311
1.00728
0.333315
0.168619
0.258592
0.24672
0.181967
0.132468
0.08441
0.0583068
3.00001
3.00001
3
2.99999
2.99998
2.99992
2.9998
2.99944
2.99869
2.99629
2.99146
2.9763
2.94291
2.84788
2.61059
2.0443
1.05173
0.36181
0.179868
0.269889
0.261168
0.201444
0.158101
0.118679
0.0974605
3.00001
3.00001
3
3
2.99998
2.99993
2.99981
2.99947
2.99876
2.99651
2.99194
2.97764
2.94627
2.85669
2.63313
2.0921
1.12226
0.403909
0.197558
0.287348
0.283661
0.229886
0.192807
0.159536
0.140625
3.00001
3.00001
3
3
2.99998
2.99993
2.99982
2.99951
2.99885
2.99677
2.99255
2.97933
2.95052
2.86792
2.66227
2.15591
1.22023
0.457953
0.222236
0.310313
0.312308
0.264509
0.233491
0.204686
0.187173
3.00001
3.00001
3
3
2.99998
2.99994
2.99984
2.99955
2.99894
2.99707
2.99322
2.98127
2.95534
2.88098
2.69664
2.23505
1.34732
0.524568
0.254081
0.338657
0.346218
0.304477
0.280182
0.255323
0.239918
3.00001
3.00001
3
3
2.99998
2.99994
2.99985
2.9996
2.99903
2.99737
2.99386
2.98329
2.96022
2.89473
2.73341
2.3252
1.50052
0.602567
0.29282
0.373199
0.384201
0.349492
0.333442
0.313573
0.302433
3.00001
3.00001
3
3
2.99999
2.99995
2.99986
2.99965
2.99911
2.99769
2.99439
2.98524
2.96433
2.90714
2.7662
2.41136
1.65976
0.691818
0.343701
0.413553
0.424288
0.399947
0.393792
0.381192
0.380135
3.00001
3.00001
3.00001
3
2.99999
2.99996
2.99988
2.99969
2.99921
2.99799
2.99498
2.98708
2.96819
2.91829
2.79338
2.47955
1.7815
0.804116
0.414641
0.455355
0.463002
0.4559
0.461811
0.463283
0.485736
3.00001
3.00001
3.00001
3
2.99999
2.99997
2.9999
2.99974
2.99932
2.99828
2.9957
2.98892
2.97265
2.92968
2.82225
2.54794
1.92683
0.955192
0.506151
0.491361
0.502575
0.516762
0.537929
0.571413
0.660403
3.00001
3.00001
3.00001
3
2.99999
2.99997
2.99992
2.99979
2.99945
2.99858
2.99644
2.99076
2.9773
2.94102
2.8518
2.61842
2.07919
1.14195
0.612206
0.526927
0.548458
0.581017
0.624477
0.701781
0.859828
3.00001
3.00001
3.00001
3
3
2.99998
2.99994
2.99982
2.99959
2.99879
2.99732
2.9923
2.98224
2.9519
2.88129
2.69052
2.23239
1.37918
0.737425
0.574974
0.603027
0.647469
0.70702
0.807421
0.978741
3.00001
3.00001
3.00001
3.00001
3
2.99999
2.99995
2.99988
2.99964
2.99917
2.99771
2.99453
2.98553
2.96438
2.90763
2.76487
2.40199
1.67494
0.875455
0.636989
0.668465
0.71123
0.778503
0.88124
1.03132
3.00001
3.00001
3.00001
3.00001
3
2.99999
2.99997
2.9999
2.99974
2.99934
2.99828
2.99576
2.98889
2.97281
2.92933
2.82153
2.54401
1.9344
1.03962
0.718742
0.735721
0.770682
0.835519
0.935542
1.06574
3.00001
3.00001
3.00001
3.00001
3
3
2.99998
2.99993
2.99982
2.99947
2.99883
2.9966
2.99227
2.97862
2.94866
2.86445
2.6562
2.15775
1.28623
0.843609
0.795866
0.823704
0.879594
0.972164
1.08718
3.00001
3.00001
3.00001
3.00001
3
3
2.99999
2.99995
2.99987
2.99965
2.99914
2.99766
2.99448
2.98488
2.96383
2.90379
2.75669
2.38016
1.64377
1.00407
0.858355
0.874977
0.920742
1.0012
1.10298
3.00001
3.00001
3.00001
3.00001
3.00001
3
2.99999
2.99997
2.99991
2.99977
2.99937
2.99848
2.99597
2.99
2.97438
2.93525
2.8342
2.57894
2.01488
1.20331
0.94319
0.934249
0.967572
1.03131
1.12167
3.00001
3.00001
3.00001
3.00001
3.00001
3
3
2.99998
2.99994
2.99985
2.99958
2.99898
2.99724
2.99345
2.98216
2.95711
2.88646
2.71253
2.28442
1.50101
1.073
0.997469
1.0179
1.06461
1.13881
3.00001
3.00001
3.00001
3.00001
3.00001
3.00001
3
2.99999
2.99997
2.9999
2.99975
2.99929
2.99839
2.99542
2.98957
2.97128
2.93108
2.81876
2.54604
1.94515
1.26302
1.07988
1.07522
1.10439
1.15902
3.00001
3.00001
3.00001
3.00001
3.00001
3.00001
3
3
2.99998
2.99994
2.99983
2.9996
2.99887
2.99744
2.99271
2.98326
2.95429
2.88808
2.70817
2.28543
1.54802
1.19792
1.13418
1.14861
1.18897
3.00001
3.00001
3.00001
3.00001
3.00001
3.00001
3.00001
3
2.99999
2.99997
2.99991
2.99975
2.99936
2.99836
2.99593
2.98943
2.97406
2.93272
2.83093
2.5711
2.00251
1.38445
1.21656
1.20546
1.23095
3.00001
3.00001
3.00001
3.00001
3.00001
3.00001
3.00001
3
3
2.99998
2.99995
2.99985
2.99965
2.99901
2.99773
2.99359
2.98522
2.95964
2.90152
2.74294
2.36569
1.69263
1.33777
1.26689
1.27585
3.00001
3.00001
3.00001
3.00001
3.00001
3.00001
3.00001
3.00001
3
2.99999
2.99998
2.99992
2.9998
2.99948
2.99865
2.99663
2.99123
2.97845
2.94409
2.86018
2.64574
2.15918
1.55852
1.36388
1.33228
3.00001
3.00001
3.00001
3.00001
3.00001
3.00001
3.00001
3.00001
3.00001
3
2.99999
2.99997
2.99989
2.99975
2.99924
2.99829
2.99518
2.98872
2.9697
2.92544
2.80623
2.51443
1.93472
1.49661
1.40395
3.00001
3.00001
3.00001
3.00001
3.00001
3.00001
3.00001
3.00001
3.00001
3
3
2.99999
2.99995
2.99987
2.99962
2.99911
2.99752
2.9941
2.98416
2.96116
2.89824
2.74448
2.36258
1.77823
1.51641
3.00001
3.00001
3.00001
3.00001
3.00001
3.00001
3.00001
3.00001
3.00001
3.00001
3
3
2.99998
2.99993
2.99983
2.99953
2.99882
2.99698
2.99224
2.98061
2.95003
2.87446
2.68251
2.24248
1.74337
3.00001
3.00001
3.00001
3.00001
3.00001
3.00001
3.00001
3.00001
3.00001
3.00001
3.00001
3
3
2.99997
2.99993
2.99977
2.99949
2.99847
2.99662
2.99027
2.97754
2.93922
2.85078
2.61707
2.1414
3.00001
3.00001
3.00001
3.00001
3.00001
3.00001
3.00001
3.00001
3.00001
3.00001
3.00001
3.00001
3
2.99999
2.99997
2.99991
2.99975
2.99937
2.99836
2.99579
2.98949
2.97246
2.93133
2.82248
2.55321
3.00001
3.00001
3.00001
3.00001
3.00001
3.00001
3.00001
3.00001
3.00001
3.00001
3.00001
3.00001
3.00001
3
2.99999
2.99997
2.99989
2.99975
2.99926
2.99828
2.99522
2.98847
2.9694
2.92293
2.8022
3.00001
3.00001
3.00001
3.00001
3.00001
3.00001
3.00001
3.00001
3.00001
3.00001
3.00001
3.00001
3.00001
3.00001
3
2.99999
2.99996
2.9999
2.99972
2.99928
2.99806
2.99527
2.98715
2.96878
2.91676
3.00001
3.00001
3.00001
3.00001
3.00001
3.00001
3.00001
3.00001
3.00001
3.00001
3.00001
3.00001
3.00001
3.00001
3.00001
3
2.99999
2.99996
2.9999
2.99972
2.99927
2.99813
2.99506
2.98779
2.96718
3.00001
3.00001
3.00001
3.00001
3.00001
3.00001
3.00001
3.00001
3.00001
3.00001
3.00001
3.00001
3.00001
3.00001
3.00001
3.00001
3
2.99999
2.99997
2.99991
2.99974
2.99932
2.99824
2.99535
2.98839
3.00001
3.00001
3.00001
3.00001
3.00001
3.00001
3.00001
3.00001
3.00001
3.00001
3.00001
3.00001
3.00001
3.00001
3.00001
3.00001
3.00001
3
2.99999
2.99997
2.99992
2.99976
2.99942
2.99834
2.99613
3.00001
3.00001
3.00001
3.00001
3.00001
3.00001
3.00001
3.00001
3.00001
3.00001
3.00001
3.00001
3.00001
3.00001
3.00001
3.00001
3.00001
3.00001
3
3
2.99998
2.99993
2.99982
2.99947
2.99875
3.00001
3.00001
3.00001
3.00001
3.00001
3.00001
3.00001
3.00001
3.00001
3.00001
3.00001
3.00001
3.00001
3.00001
3.00001
3.00001
3.00001
3.00001
3.00001
3.00001
3
2.99999
2.99994
2.99987
2.99958
3.00001
3.00001
3.00001
3.00001
3.00001
3.00001
3.00001
3.00001
3.00001
3.00001
3.00001
3.00001
3.00001
3.00001
3.00001
3.00001
3.00001
3.00001
3.00001
3.00001
3.00001
3
2.99999
2.99997
2.99989
3.00001
3.00001
3.00001
3.00001
3.00001
3.00001
3.00001
3.00001
3.00001
3.00001
3.00001
3.00001
3.00001
3.00001
3.00001
3.00001
3.00001
3.00001
3.00001
3.00001
3.00001
3.00001
3
3
2.99998
3.00001
3.00001
3.00001
3.00001
3.00001
3.00001
3.00001
3.00001
3.00001
3.00001
3.00001
3.00001
3.00001
3.00001
3.00001
3.00001
3.00001
3.00001
3.00001
3.00001
3.00001
3.00001
3.00001
3.00001
3
3.00001
3.00001
3.00001
3.00001
3.00001
3.00001
3.00001
3.00001
3.00001
3.00001
3.00001
3.00001
3.00001
3.00001
3.00001
3.00001
3.00001
3.00001
3.00001
3.00001
3.00001
3.00001
3.00001
3.00001
3.00001
3.00001
3.00001
3.00001
3.00001
3.00001
3.00001
3.00001
3.00001
3.00001
3.00001
3.00001
3.00001
3.00001
3.00001
3.00001
3.00001
3.00001
3.00001
3.00001
3.00001
3.00001
3.00001
3.00001
3.00001
3.00001
3.00001
3.00001
3.00001
3.00001
3.00001
3.00001
3.00001
3.00001
3.00001
3.00001
3.00001
3.00001
3.00001
3.00001
3.00001
3.00001
3.00001
3.00001
3.00001
3.00001
3.00001
3.00001
3.00001
3.00001
3.00001
3.00001
3.00001
3.00001
3.00001
3.00001
3.00001
3.00001
3.00001
3.00001
3.00001
3.00001
3.00001
3.00001
3.00001
3.00001
3.00001
3.00001
3.00001
3.00001
3.00001
3.00001
3.00001
3.00001
3.00001
3.00001
3.00001
3.00001
3.00001
3.00001
3.00001
3.00001
3.00001
3.00001
3.00001
3.00001
3.00001
3.00001
3.00001
3.00001
3.00001
3.00001
3.00001
3.00001
3.00001
3.00001
3.00001
3.00001
3.00001
3.00001
3.00001
3.00001
3.00001
3.00001
3.00001
3.00001
3.00001
3.00001
3.00001
3.00001
3.00001
3.00001
3.00001
3.00001
3.00001
3.00001
3.00001
3.00001
3.00001
3.00001
3.00001
3.00001
3.00001
3.00001
3.00001
3.00001
3.00001
3.00001
3.00001
3.00001
3.00001
3.00001
3.00001
3.00001
3.00001
3.00001
3.00001
3.00001
3.00001
3.00001
3.00001
3.00001
3.00001
3.00001
3.00001
3.00001
3.00001
3.00001
3.00001
3.00001
3.00001
3.00001
3.00001
3.00001
3.00001
3.00001
3.00001
3.00001
3.00001
3.00001
3.00001
3.00001
3.00001
3.00001
3.00001
3.00001
3.00001
3.00001
3.00001
3.00001
3.00001
3.00001
3.00001
3.00001
3.00001
3.00001
3.00001
3.00001
3.00001
3.00001
3.00001
3.00001
3.00001
3.00001
3.00001
3.00001
3.00001
3.00001
3.00001
3.00001
3.00001
3.00001
3.00001
3.00001
3.00001
3.00001
3.00001
3.00001
3.00001
3.00001
3.00001
3.00001
3.00001
3.00001
3.00001
3.00001
3.00001
3.00001
3.00001
3.00001
3.00001
3.00001
3.00001
3.00001
3.00001
3.00001
3.00001
3.00001
3.00001
3.00001
3.00001
3.00001
3.00001
3.00001
3.00001
3.00001
3.00001
3.00001
3.00001
3.00001
3.00001
3.00001
3.00001
3.00001
3.00001
3.00001
3.00001
3.00001
3.00001
3.00001
3.00001
3.00001
3.00001
3.00001
3.00001
3.00001
3.00001
3.00001
3.00001
3.00001
3.00001
3.00001
3.00001
3.00001
3.00001
3.00001
3.00001
3.00001
3.00001
3.00001
3.00001
3.00001
3.00001
3.00001
3.00001
3.00001
3.00001
3.00001
3.00001
3.00001
3.00001
3.00001
3.00001
3.00001
3.00001
3.00001
1.11405
1.33
1.41836
1.40952
1.3583
1.30386
1.25426
1.23072
1.23473
1.24631
1.2629
1.28615
1.30834
1.32521
1.34042
1.35604
1.37296
1.39139
1.41115
1.43172
1.45235
1.47232
1.49139
1.5097
1.52752
1.54508
1.56262
1.58017
1.59734
1.61347
1.628
1.64047
1.65049
1.65853
1.66554
1.67083
1.67418
1.67737
1.6812
1.68601
1.69151
1.69752
1.70593
1.72194
1.75129
1.78977
1.83581
1.88893
1.94828
2.0126
2.08041
2.1503
2.22083
2.29065
2.35845
2.42315
2.48385
2.53994
2.59103
2.63697
2.67787
2.71392
2.74546
2.7729
2.7968
2.81786
2.83677
2.85419
2.87055
2.88615
2.90113
2.91548
2.92918
2.94208
2.95389
2.96429
2.97304
2.98025
2.98628
2.99167
2.99694
3.00063
3.00413
3.00652
3.00734
3.00714
3.00637
3.00534
3.00429
3.00338
3.00251
3.00175
3.0012
3.0008
3.00053
3.00034
3.00021
3.00013
3.00008
3.00005
1.13853
1.26192
1.34273
1.40091
1.45809
1.51329
1.55168
1.56442
1.56643
1.56612
1.56648
1.56842
1.57424
1.58652
1.60363
1.62068
1.63685
1.65269
1.6686
1.68442
1.69992
1.7151
1.73004
1.7447
1.75886
1.77243
1.78554
1.79847
1.81146
1.82457
1.83767
1.85027
1.86165
1.8711
1.87835
1.88385
1.8884
1.89228
1.89485
1.89632
1.89848
1.90145
1.90471
1.90958
1.92029
1.94108
1.9724
2.01019
2.05407
2.10339
2.15739
2.2149
2.27467
2.33538
2.39589
2.4552
2.51248
2.56703
2.61821
2.66549
2.70848
2.74701
2.78115
2.81119
2.8375
2.86045
2.88043
2.89788
2.9133
2.92721
2.93999
2.95184
2.96274
2.97254
2.98105
2.98809
2.99362
2.99785
3.00116
3.00399
3.00641
3.00913
3.01147
3.01216
3.01165
3.01042
3.00887
3.00733
3.00592
3.00447
3.00323
3.00229
3.0016
3.0011
3.00074
3.00049
3.00032
3.00021
3.00013
3.00009
1.15523
1.25906
1.35783
1.45653
1.5518
1.63395
1.69512
1.72649
1.73409
1.73522
1.7334
1.73114
1.73414
1.73893
1.74701
1.75972
1.77549
1.79171
1.80732
1.82214
1.83619
1.84974
1.86274
1.87525
1.88726
1.89898
1.91037
1.92146
1.93241
1.94315
1.95361
1.96406
1.97463
1.98458
1.99296
2.00016
2.00684
2.01259
2.01724
2.02099
2.02418
2.0272
2.03017
2.03464
2.04338
2.06032
2.08608
2.11837
2.15681
2.20083
2.24962
2.30214
2.35724
2.4137
2.47037
2.5262
2.58034
2.63203
2.68056
2.72531
2.76572
2.80147
2.83249
2.85903
2.8815
2.90045
2.91646
2.93007
2.94177
2.95205
2.96135
2.96999
2.97801
2.98522
2.99136
2.99626
2.99992
3.00261
3.0047
3.00648
3.00816
3.01089
3.01259
3.01279
3.01197
3.01055
3.0089
3.00732
3.00585
3.00435
3.00313
3.00221
3.00154
3.00105
3.0007
3.00046
3.0003
3.00019
3.00012
3.00008
1.18352
1.28688
1.3844
1.47741
1.56248
1.63792
1.70057
1.7513
1.79192
1.81919
1.83727
1.84535
1.84836
1.85112
1.85346
1.85798
1.86533
1.8767
1.89252
1.90982
1.92604
1.9409
1.95401
1.96632
1.97788
1.98906
1.99971
2.01006
2.02021
2.03025
2.04015
2.05012
2.06063
2.07146
2.08143
2.0903
2.09861
2.10591
2.11177
2.11615
2.11952
2.12254
2.12547
2.12963
2.13804
2.15522
2.18279
2.21771
2.25905
2.30575
2.35641
2.40955
2.4637
2.51755
2.56997
2.62003
2.66702
2.71052
2.75028
2.78624
2.8184
2.84678
2.87143
2.89252
2.91039
2.92552
2.93841
2.94955
2.95936
2.96813
2.97606
2.98332
2.99003
2.99613
3.00136
3.00544
3.00829
3.0101
3.01117
3.01183
3.01322
3.0153
3.01598
3.0154
3.01397
3.01209
3.01013
3.00832
3.00648
3.00476
3.00345
3.00246
3.00172
3.00119
3.00081
3.00054
3.00035
3.00023
3.00015
3.0001
1.1983
1.29761
1.38898
1.47445
1.55547
1.63086
1.69925
1.76217
1.81858
1.86576
1.90123
1.92446
1.93328
1.93784
1.93952
1.94075
1.94454
1.95075
1.95962
1.97199
1.98709
2.00171
2.01618
2.02903
2.04108
2.05217
2.06268
2.07273
2.08274
2.0928
2.10273
2.11272
2.12325
2.13423
2.14462
2.15434
2.16389
2.17255
2.1796
2.18498
2.18943
2.19382
2.19981
2.21096
2.22975
2.25509
2.28661
2.32358
2.36508
2.41
2.45716
2.50534
2.55348
2.60069
2.64622
2.68945
2.72988
2.76713
2.801
2.83146
2.8586
2.88253
2.90331
2.92104
2.93592
2.94829
2.9586
2.96736
2.97501
2.98189
2.98821
2.99403
2.99932
3.00396
3.00779
3.0106
3.01232
3.01314
3.0133
3.0138
3.01491
3.01649
3.01671
3.01577
3.01409
3.01207
3.01006
3.00819
3.00625
3.00458
3.0033
3.00234
3.00163
3.00112
3.00075
3.0005
3.00033
3.00021
3.00013
3.00009
1.2082
1.30586
1.39429
1.47616
1.55254
1.62435
1.69325
1.75676
1.81417
1.86509
1.90718
1.94107
1.967
1.98455
1.99495
2.00208
2.00688
2.01184
2.01768
2.02552
2.03628
2.04897
2.06229
2.07602
2.0893
2.10226
2.1147
2.12626
2.13708
2.14773
2.15832
2.16889
2.18008
2.192
2.20314
2.21317
2.22288
2.23236
2.24079
2.2478
2.25453
2.26332
2.27596
2.29399
2.31808
2.34788
2.38252
2.42098
2.46227
2.50536
2.54922
2.59294
2.63573
2.67704
2.71651
2.75363
2.78801
2.81933
2.84743
2.87231
2.89415
2.91321
2.92971
2.94381
2.95566
2.9655
2.97366
2.98057
2.98663
2.99221
2.99748
3.00242
3.00695
3.0109
3.01408
3.01624
3.01721
3.01732
3.01734
3.01738
3.01791
3.01901
3.01877
3.01737
3.01529
3.01298
3.01079
3.00865
3.00649
3.00477
3.00345
3.00246
3.00173
3.00119
3.00081
3.00054
3.00036
3.00023
3.00015
3.0001
1.21637
1.30774
1.39337
1.47339
1.54855
1.61959
1.68737
1.75148
1.81111
1.86432
1.91118
1.94991
1.98264
2.01009
2.03265
2.05108
2.06504
2.07505
2.08286
2.08902
2.09526
2.10254
2.1117
2.12267
2.13464
2.14717
2.1597
2.17162
2.18319
2.1946
2.2063
2.21794
2.22979
2.24211
2.25352
2.26338
2.27301
2.28323
2.29419
2.3054
2.31747
2.33203
2.35062
2.37447
2.40359
2.43715
2.47392
2.51257
2.5521
2.59159
2.63082
2.66886
2.70553
2.74042
2.7731
2.80352
2.83178
2.85787
2.88148
2.90229
2.92039
2.9361
2.94964
2.96123
2.97102
2.97921
2.986
2.9917
2.99668
3.00126
3.00565
3.00986
3.01372
3.01693
3.01921
3.02023
3.0202
3.02004
3.01952
3.01919
3.01948
3.02014
3.01939
3.01762
3.01532
3.01291
3.01067
3.00839
3.00625
3.00458
3.0033
3.00234
3.00164
3.00112
3.00076
3.0005
3.00033
3.00021
3.00014
3.00009
1.2241
1.31038
1.39298
1.47107
1.54536
1.61615
1.68272
1.74505
1.80208
1.85413
1.90038
1.9425
1.98028
2.015
2.04676
2.07416
2.09722
2.11549
2.12889
2.1391
2.14736
2.15452
2.16176
2.16992
2.17916
2.1888
2.19909
2.21053
2.2225
2.23505
2.24793
2.2609
2.27355
2.28622
2.29878
2.3103
2.32168
2.33451
2.34982
2.3671
2.38557
2.40595
2.42946
2.4571
2.48876
2.52347
2.55996
2.59696
2.63355
2.66905
2.70319
2.73583
2.76683
2.79609
2.82344
2.84869
2.87179
2.89289
2.91204
2.92849
2.94276
2.95598
2.96715
2.97624
2.98387
2.9903
2.99578
3.00046
3.00453
3.00826
3.01192
3.01561
3.01913
3.02197
3.02353
3.02364
3.02359
3.02294
3.0221
3.02157
3.02192
3.02191
3.02057
3.0184
3.01584
3.0133
3.01091
3.00843
3.00627
3.0046
3.00333
3.00237
3.00166
3.00114
3.00078
3.00052
3.00034
3.00022
3.00014
3.0001
1.23521
1.31259
1.39121
1.46746
1.54011
1.60882
1.67404
1.7345
1.79077
1.84165
1.88865
1.93234
1.97396
2.01384
2.05093
2.08499
2.11465
2.14011
2.1617
2.17901
2.19351
2.20565
2.2149
2.22254
2.22943
2.23658
2.24417
2.25287
2.26296
2.27455
2.28705
2.30018
2.31335
2.32671
2.34077
2.35533
2.37048
2.38779
2.40791
2.4307
2.45508
2.48079
2.50859
2.53888
2.57146
2.60568
2.64049
2.67486
2.70791
2.73914
2.76824
2.79535
2.82071
2.84458
2.86709
2.88779
2.90653
2.92347
2.93865
2.95206
2.96349
2.97286
2.98101
2.98894
2.99525
3.00006
3.00434
3.00823
3.01172
3.01485
3.01782
3.02078
3.02361
3.0258
3.02654
3.02685
3.0263
3.02516
3.02397
3.02319
3.02351
3.0228
3.02099
3.01851
3.01578
3.01318
3.01066
3.00808
3.00601
3.0044
3.00317
3.00225
3.00157
3.00108
3.00073
3.00049
3.00032
3.00021
3.00013
3.00009
1.25131
1.32319
1.39426
1.46583
1.53552
1.60179
1.66406
1.72209
1.77631
1.82716
1.87554
1.9216
1.96621
2.00843
2.04832
2.08457
2.11775
2.14773
2.17442
2.19893
2.21968
2.23692
2.25143
2.26257
2.27116
2.27914
2.28678
2.2948
2.304
2.31443
2.326
2.33892
2.35302
2.36803
2.38469
2.40333
2.42382
2.4462
2.47091
2.49761
2.52591
2.5549
2.58459
2.61523
2.64653
2.67851
2.71057
2.74194
2.7718
2.79947
2.82421
2.84637
2.86727
2.88695
2.90537
2.92237
2.93769
2.95122
2.96311
2.97355
2.98254
2.98996
2.99583
3.00081
3.00589
3.00973
3.01265
3.01566
3.01866
3.02139
3.02382
3.02599
3.02774
3.02861
3.02942
3.02969
3.0288
3.02739
3.02604
3.02519
3.02513
3.02387
3.02162
3.01882
3.01592
3.0132
3.01048
3.00789
3.00586
3.00429
3.00309
3.0022
3.00154
3.00106
3.00072
3.00048
3.00032
3.00021
3.00013
3.00009
1.27472
1.33663
1.40407
1.46973
1.53398
1.59641
1.65573
1.71158
1.76411
1.81423
1.86236
1.90946
1.95495
1.99875
2.03978
2.07799
2.11359
2.14672
2.17804
2.2066
2.2329
2.25616
2.27558
2.29265
2.30697
2.31899
2.33054
2.34161
2.35237
2.36408
2.37671
2.39033
2.4058
2.42296
2.44142
2.46216
2.48561
2.51111
2.53774
2.56523
2.59412
2.62393
2.65389
2.68345
2.71252
2.74161
2.77072
2.7992
2.82604
2.85001
2.8705
2.88885
2.90579
2.92144
2.93609
2.94977
2.96224
2.97333
2.98289
2.99099
2.99785
3.00355
3.00808
3.01162
3.0147
3.01786
3.0199
3.0222
3.02492
3.0276
3.02983
3.03142
3.03203
3.03204
3.03234
3.03198
3.03066
3.02893
3.02744
3.0264
3.02604
3.02437
3.02173
3.01867
3.01567
3.01286
3.01
3.0075
3.00556
3.00406
3.00292
3.00206
3.00144
3.00099
3.00067
3.00045
3.00029
3.00019
3.00012
3.00008
1.30695
1.35672
1.41636
1.47823
1.53874
1.596
1.6517
1.70497
1.75596
1.80536
1.85347
1.90029
1.9453
1.9885
2.02927
2.06841
2.10493
2.14086
2.1742
2.20657
2.23604
2.26306
2.2877
2.3095
2.32948
2.34822
2.3648
2.38129
2.39715
2.41228
2.42819
2.44501
2.46256
2.48178
2.50215
2.52393
2.54829
2.57503
2.60224
2.6294
2.65757
2.68672
2.71564
2.74328
2.77003
2.79635
2.82255
2.84832
2.87222
2.89222
2.90851
2.92313
2.93629
2.94837
2.95952
2.96985
2.97944
2.98822
2.99592
3.00249
3.00797
3.01242
3.01602
3.01891
3.02125
3.02363
3.02523
3.0269
3.02942
3.03227
3.03464
3.03574
3.03588
3.03609
3.03553
3.03405
3.03208
3.03002
3.02839
3.02767
3.02692
3.02466
3.02163
3.01838
3.01534
3.01244
3.00951
3.00715
3.00529
3.00386
3.00277
3.00196
3.00137
3.00094
3.00064
3.00043
3.00028
3.00018
3.00012
3.00008
1.3476
1.38246
1.43595
1.4917
1.54711
1.60199
1.65328
1.70371
1.75285
1.80089
1.84804
1.8941
1.93836
1.98054
2.02069
2.05948
2.09695
2.13346
2.16893
2.20319
2.23516
2.26578
2.29346
2.31995
2.34474
2.36834
2.39161
2.41359
2.43507
2.45673
2.47694
2.49772
2.51917
2.54066
2.56331
2.58728
2.61221
2.63863
2.66618
2.69349
2.72017
2.74728
2.77434
2.80034
2.82502
2.84822
2.87097
2.89401
2.91475
2.93052
2.94328
2.95418
2.96349
2.9718
2.9796
2.98707
2.99394
3.00012
3.00572
3.0108
3.01496
3.01828
3.0209
3.02297
3.02492
3.02701
3.0284
3.02974
3.03182
3.03484
3.03738
3.03864
3.03963
3.03928
3.03769
3.03542
3.03293
3.03064
3.02934
3.02915
3.02731
3.02446
3.02114
3.01782
3.01476
3.01176
3.00893
3.00669
3.00493
3.00359
3.00257
3.00181
3.00126
3.00086
3.00058
3.00039
3.00026
3.00017
3.00011
3.00008
1.39762
1.42054
1.45887
1.50987
1.56112
1.61127
1.66179
1.70993
1.75691
1.80305
1.84784
1.89147
1.9339
1.97486
2.01448
2.05312
2.09126
2.12875
2.1656
2.20079
2.235
2.26646
2.29771
2.32652
2.35518
2.38324
2.41017
2.43755
2.46404
2.49007
2.51675
2.54216
2.56729
2.59364
2.6189
2.64476
2.67169
2.69825
2.72497
2.75241
2.77914
2.80487
2.83084
2.85591
2.87937
2.90035
2.92024
2.94092
2.95934
2.97172
2.98143
2.98889
2.99457
2.99933
3.00362
3.00762
3.01134
3.01459
3.01757
3.02005
3.02232
3.02448
3.02618
3.02737
3.02841
3.02983
3.03116
3.0321
3.03359
3.0359
3.03827
3.04075
3.04205
3.04115
3.03886
3.03608
3.03341
3.03153
3.03126
3.02983
3.02726
3.02401
3.02051
3.01714
3.01407
3.01101
3.00833
3.00622
3.00458
3.00332
3.00238
3.00167
3.00116
3.0008
3.00054
3.00036
3.00024
3.00016
3.0001
3.00007
1.45928
1.46608
1.4909
1.52929
1.57725
1.62639
1.67378
1.7207
1.76683
1.81113
1.85407
1.89533
1.93494
1.97372
2.01229
2.05068
2.08918
2.12729
2.1647
2.20089
2.23563
2.26909
2.30133
2.33292
2.36421
2.39461
2.42579
2.45552
2.48579
2.51587
2.54514
2.57576
2.6056
2.63477
2.6648
2.69357
2.72162
2.75027
2.77753
2.80355
2.8299
2.85578
2.88015
2.90493
2.92862
2.94924
2.96731
2.98585
3.00369
3.01439
3.02193
3.02714
3.03033
3.03241
3.03393
3.03498
3.03557
3.03572
3.0356
3.03532
3.03499
3.03468
3.03439
3.03424
3.03438
3.03446
3.03506
3.03561
3.0364
3.03751
3.03948
3.04266
3.04382
3.04255
3.03983
3.03678
3.03404
3.0326
3.03185
3.02982
3.02682
3.02328
3.01965
3.0163
3.01319
3.01014
3.00765
3.0057
3.00418
3.00302
3.00216
3.00152
3.00105
3.00072
3.00049
3.00032
3.00021
3.00014
3.00009
3.00006
1.55715
1.52143
1.5324
1.55785
1.59748
1.64321
1.6895
1.73461
1.77863
1.82203
1.86357
1.90312
1.94138
1.97894
2.01624
2.05387
2.09179
2.1296
2.16691
2.20328
2.23861
2.273
2.3066
2.3399
2.37267
2.40562
2.43783
2.47057
2.50256
2.53479
2.56737
2.5991
2.63188
2.6645
2.69623
2.72867
2.75906
2.78808
2.8173
2.84494
2.8708
2.89689
2.9217
2.94523
2.96856
2.98953
3.00583
3.02131
3.03816
3.04959
3.05557
3.06001
3.06226
3.06322
3.0634
3.06283
3.06144
3.05935
3.05685
3.0542
3.05154
3.04897
3.04663
3.04467
3.04286
3.04177
3.04131
3.04103
3.04085
3.04106
3.04219
3.04476
3.04547
3.04393
3.04097
3.03765
3.03471
3.03322
3.03198
3.02947
3.02607
3.0223
3.01861
3.01529
3.01214
3.00925
3.00696
3.00516
3.00378
3.00272
3.00194
3.00136
3.00094
3.00064
3.00043
3.00029
3.00019
3.00013
3.00008
3.00006
1.7128
1.60364
1.58173
1.59724
1.62409
1.66388
1.70694
1.75116
1.7942
1.83537
1.87517
1.91391
1.95124
1.98772
2.02432
2.06124
2.09844
2.13565
2.17252
2.20869
2.24417
2.279
2.31346
2.34765
2.38168
2.41563
2.44941
2.48313
2.51675
2.55032
2.58391
2.61775
2.65097
2.6847
2.71763
2.7499
2.78249
2.81312
2.84222
2.87168
2.8991
2.92483
2.95079
2.97472
2.99582
3.01681
3.03424
3.0476
3.06161
3.07477
3.08039
3.08398
3.08562
3.08589
3.08547
3.0842
3.08189
3.07868
3.075
3.07112
3.06732
3.06346
3.05938
3.05583
3.05289
3.05058
3.04901
3.04793
3.04691
3.04623
3.04632
3.0477
3.04748
3.04538
3.04202
3.03843
3.03527
3.03358
3.03183
3.02879
3.025
3.02104
3.01736
3.01408
3.01097
3.00832
3.00623
3.00461
3.00336
3.00242
3.00171
3.0012
3.00083
3.00057
3.00038
3.00026
3.00017
3.00011
3.00007
3.00005
2.06684
1.72997
1.65549
1.64295
1.66016
1.68786
1.72754
1.76835
1.81039
1.85145
1.89024
1.92728
1.96351
1.99957
2.03548
2.07155
2.10788
2.14434
2.1806
2.21642
2.25179
2.28683
2.32171
2.35647
2.39122
2.42586
2.46037
2.4947
2.52889
2.5631
2.5972
2.63135
2.66529
2.6986
2.73176
2.76381
2.7949
2.82599
2.85591
2.88519
2.91393
2.9408
2.9658
2.9903
3.01178
3.03006
3.04781
3.06118
3.07187
3.0854
3.09499
3.09759
3.09957
3.10004
3.09984
3.09873
3.09626
3.09267
3.08869
3.08456
3.08005
3.07491
3.0701
3.06584
3.06213
3.05902
3.05661
3.05473
3.05295
3.05154
3.05102
3.05096
3.04949
3.04653
3.0426
3.03875
3.03562
3.03378
3.03134
3.02765
3.02351
3.01947
3.01589
3.01269
3.00975
3.00738
3.00551
3.00406
3.00295
3.00211
3.00149
3.00104
3.00072
3.00049
3.00033
3.00022
3.00015
3.0001
3.00006
3.00005
2.50125
2.04148
1.76907
1.70944
1.70501
1.72171
1.74943
1.78809
1.82685
1.86684
1.90603
1.94311
1.97854
2.01341
2.04842
2.08394
2.11974
2.15547
2.19092
2.22621
2.26132
2.29632
2.33134
2.36634
2.40133
2.43615
2.47076
2.50513
2.53936
2.57353
2.60758
2.64156
2.67503
2.70811
2.74031
2.77191
2.80265
2.83261
2.86237
2.89071
2.91871
2.94608
2.97115
2.99409
3.01544
3.03343
3.04902
3.0632
3.07366
3.08252
3.09405
3.10068
3.10219
3.10322
3.10358
3.10313
3.10121
3.09797
3.09442
3.09045
3.08591
3.08085
3.07606
3.07171
3.06791
3.06466
3.06194
3.05956
3.0573
3.05569
3.05483
3.0533
3.05058
3.04679
3.04243
3.03853
3.03567
3.03376
3.03019
3.02588
3.02154
3.01759
3.0142
3.01119
3.00854
3.00643
3.00478
3.00351
3.00254
3.00181
3.00128
3.00089
3.00061
3.00042
3.00028
3.00019
3.00013
3.00009
3.00006
3.00004
2.79211
2.48045
2.05386
1.81675
1.76544
1.76608
1.78223
1.8088
1.84567
1.88256
1.92066
1.9582
1.99406
2.02869
2.06296
2.09747
2.13232
2.16752
2.20277
2.23779
2.27256
2.30719
2.34187
2.37662
2.41135
2.4459
2.48022
2.51429
2.54822
2.58197
2.61555
2.64879
2.68156
2.71373
2.74517
2.77606
2.8062
2.83598
2.86486
2.89296
2.91987
2.94503
2.96851
2.98975
3.00878
3.02643
3.04113
3.05435
3.06599
3.07413
3.08262
3.09165
3.09578
3.09701
3.09802
3.09839
3.09746
3.09499
3.09203
3.0887
3.08475
3.08043
3.07627
3.07248
3.06914
3.06621
3.06359
3.06107
3.05912
3.05772
3.05589
3.05327
3.04962
3.04533
3.04121
3.03816
3.03625
3.03246
3.02796
3.02342
3.0192
3.0155
3.01238
3.00967
3.00734
3.0055
3.00407
3.00297
3.00214
3.00153
3.00107
3.00075
3.00051
3.00035
3.00024
3.00016
3.00011
3.00007
3.00005
3.00004
2.91883
2.78952
2.48624
2.0934
1.87033
1.82296
1.82556
1.8409
1.86595
1.90049
1.93584
1.97262
2.00877
2.04368
2.07782
2.11187
2.14611
2.18055
2.21504
2.24947
2.28383
2.31816
2.35248
2.38679
2.42102
2.45505
2.48883
2.52231
2.55559
2.58859
2.62132
2.65363
2.68547
2.71671
2.74746
2.77772
2.80748
2.83667
2.8649
2.89203
2.91732
2.94072
2.96178
2.98102
2.99842
3.01393
3.02791
3.03986
3.05098
3.06015
3.0671
3.07494
3.08158
3.08415
3.08558
3.08675
3.0868
3.08542
3.08315
3.08067
3.0776
3.07432
3.07129
3.06846
3.06589
3.06342
3.06126
3.05968
3.05801
3.05613
3.05363
3.05025
3.04635
3.04288
3.04156
3.03831
3.03406
3.02949
3.02495
3.02063
3.0167
3.01331
3.01051
3.00814
3.00615
3.00458
3.00338
3.00246
3.00176
3.00125
3.00088
3.00061
3.00042
3.00029
3.00019
3.00013
3.00009
3.00006
3.00004
3.00003
2.96904
2.92275
2.80082
2.51597
2.15087
1.92899
1.88226
1.88354
1.89805
1.92114
1.95305
1.98737
2.02317
2.05816
2.09222
2.12597
2.15973
2.19361
2.22751
2.2613
2.29488
2.32839
2.36194
2.39558
2.4292
2.46262
2.49575
2.52854
2.56106
2.59326
2.62513
2.65653
2.68751
2.718
2.74818
2.77793
2.80719
2.83552
2.86252
2.88762
2.91065
2.93176
2.95112
2.96895
2.98495
2.99966
3.01268
3.02416
3.03449
3.04349
3.0507
3.05664
3.06314
3.06762
3.06916
3.07076
3.07159
3.07138
3.07031
3.06854
3.06665
3.0646
3.06261
3.06063
3.05898
3.0576
3.05635
3.05501
3.05333
3.05107
3.04825
3.04609
3.04528
3.0426
3.03895
3.03475
3.03028
3.0258
3.02153
3.01759
3.01408
3.01106
3.00861
3.00662
3.00498
3.00369
3.00271
3.00196
3.00141
3.001
3.0007
3.00049
3.00033
3.00023
3.00016
3.00011
3.00007
3.00005
3.00003
3.00003
2.98892
2.97393
2.92862
2.82429
2.56682
2.2244
1.994
1.94272
1.93992
1.95402
1.97501
2.00387
2.03749
2.07193
2.1055
2.13864
2.17189
2.20533
2.23875
2.27197
2.30496
2.33777
2.37056
2.40337
2.43613
2.46871
2.50101
2.533
2.5647
2.5961
2.62717
2.65786
2.68825
2.7183
2.74789
2.77684
2.80484
2.83132
2.85597
2.87878
2.89999
2.91963
2.93776
2.95441
2.96964
2.98341
2.9959
3.00709
3.01676
3.02571
3.03315
3.03884
3.04433
3.04927
3.05192
3.0536
3.055
3.0556
3.05525
3.05439
3.05353
3.05248
3.05158
3.05076
3.05004
3.04938
3.04852
3.04729
3.04578
3.04557
3.04538
3.0438
3.04133
3.03808
3.03424
3.03006
3.02578
3.02163
3.01776
3.01431
3.01134
3.00884
3.00677
3.00514
3.00387
3.00286
3.00209
3.00151
3.00108
3.00076
3.00053
3.00037
3.00026
3.00018
3.00012
3.00008
3.00006
3.00004
3.00003
3.00002
2.99646
2.99145
2.97683
2.94208
2.85042
2.63227
2.31603
2.06915
2.00316
1.99418
2.00874
2.02883
2.05412
2.08571
2.11752
2.14943
2.18195
2.21496
2.24801
2.28089
2.31344
2.3456
2.37753
2.40942
2.44133
2.47312
2.5047
2.536
2.56705
2.59788
2.62846
2.65862
2.68825
2.71727
2.74554
2.77266
2.79845
2.8228
2.84572
2.8671
2.88698
2.90542
2.92251
2.93827
2.95276
2.96597
2.97796
2.9888
2.9984
3.00684
3.0145
3.02054
3.02537
3.03044
3.03347
3.03563
3.03735
3.03851
3.03895
3.03906
3.03917
3.03913
3.03925
3.03923
3.03924
3.03905
3.03922
3.04035
3.04071
3.04054
3.03972
3.03803
3.03547
3.03222
3.02852
3.02462
3.02076
3.01713
3.01386
3.01102
3.00863
3.00666
3.00507
3.00382
3.00284
3.00209
3.00153
3.0011
3.00079
3.00056
3.00039
3.00027
3.00019
3.00013
3.00009
3.00006
3.00004
3.00003
3.00002
3.00002
2.99907
2.99714
2.99354
2.98129
2.95561
2.88116
2.71069
2.42134
2.16008
2.06311
2.04871
2.06266
2.08113
2.10332
2.13076
2.16006
2.19097
2.22291
2.25537
2.28767
2.31959
2.35112
2.3824
2.41365
2.44499
2.47629
2.50739
2.53818
2.5687
2.59888
2.62862
2.65774
2.68599
2.71319
2.73946
2.76478
2.78903
2.812
2.83351
2.85356
2.8722
2.88959
2.9058
2.92086
2.93478
2.94753
2.95919
2.96975
2.9792
2.98756
2.99496
3.00129
3.00622
3.01082
3.01503
3.01719
3.01901
3.02065
3.02197
3.02305
3.02407
3.02502
3.0259
3.02706
3.02851
3.02996
3.03143
3.03277
3.03365
3.03373
3.03288
3.03112
3.0286
3.02556
3.02224
3.01885
3.01561
3.01267
3.0101
3.00793
3.00614
3.0047
3.00356
3.00267
3.00198
3.00145