/*--------------------------------*- C++ -*----------------------------------*\
  =========                 |
  \\      /  F ield         | OpenFOAM: The Open Source CFD Toolbox
   \\    /   O peration     | Website:  https://openfoam.org
    \\  /    A nd           | Version:  13
     \\/     M anipulation  |
\*---------------------------------------------------------------------------*/
FoamFile
{
    format      ascii;
    class       volScalarField;
    location    "0.5";
    object      p;
}
// * * * * * * * * * * * * * * * * * * * * * * * * * * * * * * * * * * * * * //

dimensions      [1 -1 -2 0 0 0 0];

internalField   nonuniform List<scalar> 
5250
(
1
1
1
1.00001
1.00003
1.00008
1.00019
1.00054
1.00126
1.0035
1.00829
1.02233
1.05521
1.14616
1.39166
2.12679
4.46506
11.2801
12.5228
11.802
11.7946
12.0531
12.3867
12.475
12.5953
1
1
1
1.00001
1.00003
1.00008
1.00019
1.00053
1.00124
1.00343
1.00814
1.02192
1.05421
1.14349
1.38433
2.10502
4.39987
11.144
12.5373
11.7949
11.7853
12.0456
12.3846
12.472
12.5929
1
1
1
1.00001
1.00003
1.00008
1.00018
1.00052
1.00119
1.00332
1.00777
1.02125
1.05186
1.13834
1.3687
2.0594
4.25933
10.8287
12.5649
11.7739
11.7484
12.0065
12.3521
12.4359
12.5593
1
1
1
1.00001
1.00003
1.00008
1.00017
1.00049
1.00112
1.00313
1.00731
1.02006
1.04877
1.13026
1.34604
1.99096
4.04868
10.3188
12.6101
11.748
11.6842
11.9337
12.2841
12.3656
12.4919
1
1
1
1.00001
1.00003
1.00007
1.00016
1.00045
1.00104
1.0029
1.00674
1.01853
1.04485
1.11988
1.31702
1.90285
3.77539
9.60624
12.6662
11.7255
11.5996
11.8314
12.181
12.2599
12.3913
1
1
1
1.00001
1.00002
1.00006
1.00015
1.00041
1.00095
1.00264
1.00608
1.01681
1.04027
1.10782
1.28278
1.79867
3.44374
8.68196
12.6955
11.7105
11.4997
11.6971
12.0317
12.1065
12.239
1
1
1
1.00001
1.00002
1.00006
1.00014
1.00038
1.00086
1.00237
1.00545
1.01498
1.03558
1.09493
1.24589
1.68603
3.06948
7.52986
12.6829
11.6956
11.3827
11.5289
11.8228
11.8827
12.0071
1
1
1
1.00001
1.00002
1.00005
1.00012
1.00034
1.00077
1.00213
1.00488
1.01339
1.03147
1.08364
1.21255
1.5812
2.68985
6.17447
12.5217
11.6489
11.2318
11.3186
11.534
11.5664
11.6523
1
1
1
1.00001
1.00002
1.00005
1.00011
1.0003
1.00069
1.00188
1.00433
1.01186
1.02784
1.07398
1.18614
1.50487
2.43676
5.28992
11.9424
11.5062
11.0403
11.0517
11.1376
11.1096
11.0826
1
1
1
1.00001
1.00001
1.00004
1.00009
1.00025
1.00059
1.00161
1.00373
1.01022
1.02397
1.06397
1.15973
1.43184
2.217
4.60114
10.8607
11.1573
10.8843
10.6928
10.6355
10.4601
10.1066
1
1
1
1
1.00001
1.00003
1.00008
1.00021
1.00049
1.00134
1.00311
1.00854
1.02001
1.05384
1.13332
1.3595
2.00466
3.97691
9.53587
10.9025
10.6469
10.2747
10.0038
9.4104
7.81208
1
1
1
1
1.00001
1.00003
1.00006
1.00017
1.00039
1.00106
1.00255
1.00671
1.01657
1.04272
1.10879
1.28745
1.80017
3.36699
8.00767
10.715
10.4097
9.85807
9.37908
8.56536
6.91082
1
1
1
1
1.00001
1.00002
1.00005
1.00012
1.00031
1.00081
1.00197
1.0052
1.01258
1.03317
1.08265
1.21918
1.59534
2.75087
6.23844
10.431
10.1364
9.49723
8.88991
8.01694
6.64647
1
1
1
1
1.00001
1.00001
1.00004
1.00009
1.00025
1.00058
1.00161
1.00373
1.01028
1.02417
1.06477
1.16227
1.43975
2.23965
4.58695
9.77223
9.68839
9.25339
8.54072
7.68192
6.56796
1
1
1
1
1
1.00001
1.00003
1.00007
1.00017
1.00047
1.00112
1.00298
1.0073
1.01887
1.0475
1.12274
1.32458
1.90633
3.64867
8.29677
9.23608
8.96619
8.32762
7.46777
6.51214
1
1
1
1
1
1.00001
1.00002
1.00005
1.00012
1.00034
1.00078
1.00217
1.005
1.01387
1.03298
1.08856
1.22727
1.62865
2.8298
6.31221
8.91849
8.74143
8.21241
7.35746
6.48638
1
1
1
1
1
1.00001
1.00001
1.00003
1.00009
1.00023
1.00055
1.00147
1.00352
1.00948
1.02274
1.06031
1.15162
1.40757
2.12898
4.15146
8.28915
8.41343
8.10204
7.36328
6.49476
1
1
1
1
1
1
1.00001
1.00002
1.00006
1.00014
1.0004
1.00092
1.00257
1.00595
1.01647
1.03917
1.10497
1.27063
1.7507
3.13987
6.81133
8.09907
7.90771
7.3582
6.5319
1
1
1
1
1
1
1.00001
1.00002
1.00004
1.0001
1.00023
1.00065
1.00151
1.00414
1.00975
1.02607
1.06388
1.16871
1.44605
2.2477
4.43766
7.56559
7.58775
7.31798
6.65022
1
1
1
1
1
1
1
1.00001
1.00003
1.00006
1.00016
1.00037
1.00104
1.00241
1.00662
1.01569
1.0419
1.10394
1.27818
1.75198
3.09248
6.34769
7.33667
7.20259
6.77007
1
1
1
1
1
1
1
1.00001
1.00001
1.00004
1.00009
1.00025
1.00057
1.00157
1.00365
1.01003
1.02353
1.0632
1.15725
1.42367
2.15036
4.0645
6.8003
6.95356
6.73696
1
1
1
1
1
1
1
1
1.00001
1.00002
1.00005
1.00014
1.00033
1.00093
1.00215
1.00591
1.01394
1.03743
1.09224
1.24645
1.65636
2.79058
5.54558
6.65666
6.59735
1
1
1
1
1
1
1
1
1
1.00001
1.00003
1.00007
1.0002
1.00048
1.00132
1.00306
1.00842
1.01971
1.05313
1.13047
1.34698
1.90938
3.30017
5.98656
6.38552
1
1
1
1
1
1
1
1
1
1.00001
1.00002
1.00004
1.00011
1.00026
1.00069
1.0017
1.00435
1.01105
1.02784
1.07159
1.18501
1.48993
2.31082
4.3829
5.96077
1
1
1
1
1
1
1
1
1
1
1.00001
1.00002
1.00006
1.00014
1.00035
1.00091
1.00224
1.00591
1.01445
1.03806
1.09536
1.25183
1.65986
2.70237
4.97794
1
1
1
1
1
1
1
1
1
1
1
1.00001
1.00003
1.00007
1.00018
1.00043
1.00119
1.00278
1.00769
1.018
1.04872
1.11916
1.31448
1.79572
2.92563
1
1
1
1
1
1
1
1
1
1
1
1.00001
1.00001
1.00003
1.00008
1.00022
1.00053
1.00142
1.00346
1.00895
1.02251
1.05705
1.14713
1.37888
1.97729
1
1
1
1
1
1
1
1
1
1
1
1
1.00001
1.00002
1.00004
1.0001
1.00024
1.00066
1.00153
1.00427
1.00987
1.02755
1.06547
1.1779
1.44771
1
1
1
1
1
1
1
1
1
1
1
1
1
1.00001
1.00002
1.00004
1.00011
1.00027
1.0007
1.00181
1.00446
1.0119
1.02915
1.07741
1.1965
1
1
1
1
1
1
1
1
1
1
1
1
1
1
1.00001
1.00002
1.00005
1.00011
1.0003
1.00071
1.00198
1.00463
1.01298
1.03073
1.0839
1
1
1
1
1
1
1
1
1
1
1
1
1
1
1
1.00001
1.00002
1.00004
1.00012
1.00028
1.00078
1.00182
1.00514
1.01204
1.03363
1
1
1
1
1
1
1
1
1
1
1
1
1
1
1
1
1.00001
1.00002
1.00004
1.00011
1.00026
1.00074
1.00174
1.00493
1.01156
1
1
1
1
1
1
1
1
1
1
1
1
1
1
1
1
1
1.00001
1.00001
1.00004
1.00009
1.00026
1.00061
1.00173
1.00405
1
1
1
1
1
1
1
1
1
1
1
1
1
1
1
1
1
1
1
1.00001
1.00003
1.00008
1.00021
1.00053
1.00142
1
1
1
1
1
1
1
1
1
1
1
1
1
1
1
1
1
1
1
1
1.00001
1.00002
1.00007
1.00016
1.00044
1
1
1
1
1
1
1
1
1
1
1
1
1
1
1
1
1
1
1
1
1
1.00001
1.00002
1.00005
1.00012
1
1
1
1
1
1
1
1
1
1
1
1
1
1
1
1
1
1
1
1
1
1
1
1.00001
1.00003
1
1
1
1
1
1
1
1
1
1
1
1
1
1
1
1
1
1
1
1
1
1
1
1
1.00001
1
1
1
1
1
1
1
1
1
1
1
1
1
1
1
1
1
1
1
1
1
1
1
1
1
1
1
1
1
1
1
1
1
1
1
1
1
1
1
1
1
1
1
1
1
1
1
1
1
1
1
1
1
1
1
1
1
1
1
1
1
1
1
1
1
1
1
1
1
1
1
1
1
1
1
1
1
1
1
1
1
1
1
1
1
1
1
1
1
1
1
1
1
1
1
1
1
1
1
1
1
1
1
1
1
1
1
1
1
1
1
1
1
1
1
1
1
1
1
1
1
1
1
1
1
1
1
1
1
1
1
1
1
1
1
1
1
1
1
1
1
1
1
1
1
1
1
1
1
1
1
1
1
1
1
1
1
1
1
1
1
1
1
1
1
1
1
1
1
1
1
1
1
1
1
1
1
1
1
1
1
1
1
1
1
1
1
1
1
1
1
1
1
1
1
1
1
1
1
1
1
1
1
1
1
1
1
1
1
1
1
1
1
1
1
1
1
1
1
1
1
1
1
1
1
1
1
1
1
1
1
1
1
1
1
1
1
1
1
1
1
1
1
1
1
1
1
1
1
1
1
1
1
1
1
1
1
1
1
1
1
1
1
1
1
1
1
1
1
1
1
1
1
1
1
1
1
1
1
1
1
1
1
1
1
1
1
1
1
1
1
1
1
1
1
1
1
1
1
1
3.14809
1.56109
1.03592
0.879584
0.892087
0.939952
1.0433
1.14015
1.16903
1.16521
1.15195
1.12277
1.08969
1.06593
1.05178
1.04067
1.03028
1.0189
1.00607
0.992158
0.977847
0.963754
0.950282
0.937612
0.925766
0.914729
0.904516
0.895141
0.886611
0.87905
0.872518
0.866764
0.862009
0.858686
0.855849
0.853392
0.852183
0.85189
0.85193
0.852151
0.852763
0.854184
0.856362
0.860329
0.864769
0.868843
0.873488
0.878755
0.884647
0.891101
0.898052
0.905361
0.912863
0.920377
0.927715
0.934694
0.941169
0.947064
0.952396
0.957275
0.961887
0.966455
0.971188
0.976261
0.981783
0.987759
0.994098
1.00062
1.00706
1.01311
1.01842
1.02272
1.02582
1.02769
1.02851
1.02869
1.02868
1.02854
1.0281
1.02689
1.02392
1.02004
1.0159
1.01199
1.00885
1.00636
1.00446
1.00305
1.00202
1.00125
1.00077
1.00049
1.0003
1.00018
1.0001
1.00005
1.00003
1.00001
1
0.999991
3.87144
2.37967
1.73105
1.44183
1.29875
1.19507
1.12595
1.09935
1.10043
1.10436
1.11256
1.112
1.1078
1.09689
1.0746
1.05078
1.03074
1.01444
1.00054
0.987954
0.975914
0.963882
0.951674
0.939412
0.927343
0.915781
0.904998
0.895155
0.886375
0.878728
0.872152
0.866636
0.862174
0.858599
0.855828
0.853849
0.852628
0.852071
0.851905
0.852093
0.852684
0.854092
0.856154
0.858991
0.863801
0.869107
0.873122
0.878156
0.883947
0.890337
0.897181
0.904366
0.91176
0.919198
0.926496
0.933476
0.939997
0.945982
0.951436
0.956449
0.961186
0.965855
0.97068
0.975835
0.981401
0.9874
0.993756
1.00029
1.00675
1.01283
1.01818
1.02251
1.02562
1.02751
1.02839
1.02861
1.02861
1.0285
1.02811
1.02703
1.02438
1.02018
1.0157
1.01193
1.00884
1.0064
1.00453
1.00306
1.00191
1.00122
1.0008
1.0005
1.00031
1.00018
1.0001
1.00005
1.00003
1.00001
1
0.999989
4.67524
3.29674
2.43085
1.8818
1.52426
1.29334
1.14991
1.06675
1.04842
1.05068
1.0575
1.07135
1.07612
1.07471
1.06951
1.0579
1.03748
1.01695
0.998748
0.984059
0.971295
0.959364
0.947692
0.936174
0.92484
0.913872
0.90348
0.893831
0.885102
0.877399
0.870737
0.865191
0.860707
0.857087
0.85445
0.852569
0.851188
0.850828
0.850876
0.851117
0.851821
0.853303
0.855342
0.858389
0.863238
0.868265
0.872597
0.877746
0.883596
0.890017
0.896899
0.90413
0.911572
0.919056
0.926399
0.933424
0.939993
0.946029
0.951532
0.956587
0.961354
0.966046
0.970878
0.976028
0.981619
0.987665
0.994068
1.00064
1.00711
1.01318
1.01852
1.02281
1.02587
1.02772
1.02855
1.02876
1.02876
1.02866
1.02827
1.02717
1.02457
1.01994
1.01554
1.01182
1.00878
1.00636
1.00447
1.00298
1.00187
1.00122
1.00079
1.0005
1.00031
1.00018
1.0001
1.00005
1.00003
1.00001
1
0.999989
5.09968
3.84958
2.93143
2.29465
1.86494
1.5718
1.37473
1.24662
1.1568
1.10044
1.06963
1.05686
1.05548
1.05568
1.0551
1.05289
1.04732
1.03569
1.01706
0.997183
0.978986
0.963094
0.949243
0.936974
0.925715
0.915201
0.905277
0.895884
0.887137
0.879205
0.872209
0.866312
0.86151
0.857633
0.854806
0.852811
0.851342
0.850945
0.850983
0.851205
0.851855
0.853243
0.855367
0.858357
0.862935
0.868164
0.872535
0.877682
0.88352
0.88993
0.896808
0.904037
0.911473
0.918946
0.92627
0.933273
0.939827
0.945863
0.951392
0.956502
0.961348
0.966133
0.971074
0.976352
0.98207
0.988234
0.994751
1.00143
1.00799
1.0141
1.01942
1.02368
1.02669
1.02845
1.02918
1.02934
1.02932
1.0292
1.02874
1.02742
1.02456
1.01975
1.01542
1.01175
1.00874
1.00634
1.00441
1.00286
1.00184
1.00123
1.0008
1.0005
1.00031
1.00018
1.0001
1.00005
1.00003
1.00001
1
0.999989
5.34423
4.24753
3.36401
2.69968
2.21458
1.86126
1.60161
1.40937
1.26746
1.16527
1.09611
1.05041
1.02963
1.02059
1.01823
1.01771
1.0165
1.01357
1.00739
0.995379
0.980352
0.964574
0.949293
0.935352
0.922586
0.91138
0.901468
0.892354
0.884002
0.876521
0.869931
0.864343
0.859737
0.855918
0.853103
0.851078
0.849559
0.849199
0.849257
0.849529
0.850222
0.851733
0.853917
0.857799
0.8619
0.866465
0.871453
0.876962
0.883003
0.889542
0.896494
0.903753
0.911193
0.918638
0.925896
0.932806
0.939256
0.945211
0.950695
0.955799
0.960674
0.965507
0.970518
0.9759
0.981759
0.988091
0.994795
1.00166
1.00838
1.01461
1.02
1.02426
1.02725
1.02897
1.02968
1.0298
1.02979
1.02962
1.02909
1.02755
1.02456
1.01955
1.0152
1.01156
1.00859
1.0062
1.00427
1.00275
1.00181
1.00121
1.00079
1.00049
1.0003
1.00018
1.0001
1.00005
1.00002
1.00001
1
0.999989
5.50299
4.5445
3.71941
3.05751
2.54476
2.15154
1.85093
1.62118
1.44514
1.31037
1.20814
1.13459
1.07991
1.04201
1.01982
1.00764
1.00168
0.999659
0.997808
0.994057
0.986469
0.974486
0.960813
0.946348
0.932353
0.918815
0.906456
0.895521
0.886105
0.878238
0.871599
0.866053
0.861496
0.857683
0.854802
0.85266
0.850993
0.850365
0.850372
0.850543
0.851077
0.852268
0.854702
0.857987
0.861873
0.866357
0.871375
0.876918
0.882965
0.889487
0.896423
0.903625
0.911018
0.918423
0.925625
0.932463
0.938836
0.944726
0.950178
0.955284
0.960192
0.965066
0.970119
0.97557
0.98154
0.988023
0.994888
1.00191
1.00877
1.01511
1.02058
1.0249
1.0279
1.0296
1.03028
1.03037
1.03021
1.02999
1.02946
1.02797
1.0248
1.01953
1.01507
1.01142
1.00847
1.00608
1.00411
1.00266
1.00182
1.00121
1.00078
1.00049
1.0003
1.00018
1.0001
1.00005
1.00003
1.00001
1
0.999989
5.61662
4.77138
4.01396
3.37388
2.85229
2.43494
2.10371
1.8412
1.63275
1.46683
1.3348
1.23089
1.14928
1.08757
1.04197
1.01022
0.989561
0.978
0.97152
0.967821
0.964935
0.960576
0.953686
0.944048
0.932658
0.920283
0.907855
0.896141
0.885501
0.87682
0.869485
0.863365
0.858479
0.854539
0.851671
0.849666
0.848187
0.84783
0.84788
0.848141
0.848842
0.850313
0.852937
0.856248
0.860246
0.864904
0.87018
0.87603
0.882396
0.889189
0.896367
0.903783
0.911359
0.918947
0.92632
0.933298
0.939765
0.945653
0.951117
0.956395
0.961457
0.966399
0.971488
0.976974
0.98295
0.989424
0.996286
1.00329
1.01011
1.01639
1.02176
1.02591
1.02869
1.03018
1.03067
1.03079
1.03096
1.0308
1.03019
1.02837
1.02447
1.01917
1.01479
1.01119
1.00826
1.00587
1.00392
1.00259
1.00177
1.00118
1.00076
1.00048
1.00029
1.00017
1.0001
1.00005
1.00002
1.00001
1
0.999989
5.71655
4.95493
4.25915
3.64917
3.13208
2.70304
2.35115
2.06422
1.83054
1.64028
1.48519
1.35935
1.25762
1.17614
1.11108
1.06083
1.02316
0.995359
0.976226
0.963953
0.956429
0.951551
0.947008
0.941335
0.934037
0.92533
0.915431
0.904949
0.894787
0.884679
0.875414
0.867631
0.861353
0.856464
0.85273
0.85025
0.848456
0.84773
0.847751
0.847964
0.848591
0.849924
0.852433
0.855716
0.85973
0.864456
0.869848
0.875846
0.882367
0.889323
0.896645
0.904239
0.911984
0.919667
0.927116
0.934215
0.940876
0.946934
0.952265
0.957577
0.963093
0.968126
0.97327
0.978898
0.985106
0.991871
0.998941
1.00602
1.0128
1.01893
1.02404
1.02784
1.03021
1.03137
1.0319
1.0324
1.03238
1.03211
1.03117
1.02878
1.02399
1.01887
1.01459
1.01103
1.00811
1.0057
1.00378
1.00256
1.00175
1.00117
1.00075
1.00047
1.00029
1.00017
1.0001
1.00005
1.00003
1.00001
1
0.99999
5.83981
5.11946
4.47121
3.89168
3.38616
2.95398
2.58966
2.28466
2.03093
1.81998
1.64498
1.49977
1.3794
1.27974
1.19736
1.12983
1.07512
1.03143
0.997686
0.972392
0.953821
0.940464
0.931024
0.924362
0.919071
0.91369
0.907662
0.900874
0.893307
0.885266
0.877712
0.870545
0.864075
0.858555
0.853992
0.850474
0.848023
0.846249
0.845882
0.845977
0.846385
0.847387
0.849459
0.852738
0.856798
0.861579
0.867045
0.873139
0.879741
0.886771
0.894144
0.901735
0.909492
0.917269
0.924721
0.931794
0.938402
0.944512
0.950247
0.955746
0.961238
0.967176
0.973426
0.979256
0.985658
0.992943
1.0005
1.00795
1.01492
1.02107
1.02604
1.0296
1.03175
1.03286
1.0337
1.03385
1.0337
1.03317
1.03161
1.02822
1.02305
1.01826
1.01412
1.01065
1.00779
1.0054
1.00358
1.00249
1.00169
1.00112
1.00072
1.00045
1.00028
1.00016
1.00009
1.00005
1.00002
1.00001
1
0.99999
5.98203
5.27742
4.65912
4.10449
3.61316
3.18387
2.81376
2.49737
2.2288
2.00161
1.80999
1.64841
1.51233
1.39761
1.30101
1.21969
1.15165
1.09512
1.04834
1.01018
0.979972
0.956491
0.93881
0.925474
0.915658
0.908138
0.902154
0.896943
0.892036
0.887013
0.881652
0.876124
0.870592
0.865321
0.860499
0.856344
0.853034
0.850503
0.848807
0.848496
0.848584
0.848979
0.849998
0.852158
0.855845
0.860299
0.865484
0.871356
0.877739
0.88441
0.891529
0.899168
0.906773
0.914275
0.921549
0.928485
0.935018
0.941131
0.9469
0.952536
0.958301
0.964427
0.971063
0.978085
0.984888
0.992423
1.00066
1.00866
1.01599
1.02233
1.0274
1.03097
1.03323
1.0348
1.03537
1.0353
1.035
1.03412
1.03195
1.02777
1.02251
1.01777
1.01371
1.01031
1.00748
1.00513
1.00347
1.00243
1.00165
1.0011
1.00071
1.00045
1.00027
1.00016
1.00009
1.00005
1.00003
1.00001
1
0.999991
6.20152
5.46806
4.84059
4.30143
3.82101
3.3962
3.02385
2.70048
2.42147
2.18181
1.97674
1.80179
1.65223
1.52447
1.41517
1.32168
1.24166
1.17335
1.11508
1.06568
1.02404
0.989382
0.960942
0.938239
0.920268
0.906344
0.895968
0.888241
0.882426
0.877816
0.873895
0.870483
0.867184
0.86392
0.860724
0.857674
0.854917
0.852505
0.850837
0.850397
0.850442
0.850729
0.851562
0.853388
0.85683
0.861247
0.866627
0.87271
0.879134
0.885936
0.893496
0.90124
0.908805
0.91619
0.92323
0.929809
0.935925
0.941644
0.947087
0.952454
0.958011
0.964039
0.970651
0.977807
0.985218
0.99263
1.00097
1.00923
1.01671
1.02305
1.02809
1.03175
1.03433
1.0359
1.03621
1.03608
1.0357
1.03474
1.03239
1.0278
1.02214
1.01728
1.01323
1.00988
1.00708
1.00483
1.00334
1.00233
1.00158
1.00104
1.00067
1.00042
1.00026
1.00015
1.00009
1.00005
1.00002
1.00001
1
0.999992
6.3001
5.68159
5.03875
4.48797
4.01459
3.5949
3.22245
2.89428
2.60794
2.35927
2.14355
1.95695
1.7958
1.65669
1.53628
1.43212
1.34163
1.26328
1.19509
1.13606
1.0849
1.0409
1.00327
0.971383
0.944865
0.923352
0.906153
0.892516
0.882426
0.874923
0.86949
0.865428
0.862282
0.859631
0.857528
0.855748
0.853963
0.85261
0.852021
0.851986
0.852109
0.852574
0.853792
0.856511
0.860317
0.865113
0.87112
0.877801
0.884793
0.892656
0.901259
0.90957
0.917654
0.925336
0.932462
0.938932
0.944765
0.950095
0.955104
0.959982
0.964892
0.970225
0.97622
0.982874
0.989966
0.997053
1.0048
1.01272
1.01983
1.02572
1.03032
1.03393
1.03647
1.03729
1.03737
1.03732
1.03702
1.03606
1.03341
1.02789
1.02177
1.01687
1.01285
1.00953
1.00675
1.00461
1.00325
1.00225
1.00152
1.00101
1.00065
1.00041
1.00025
1.00015
1.00009
1.00005
1.00002
1.00001
1.00001
0.999993
6.25202
5.89255
5.25573
4.68752
4.20209
3.78222
3.41203
3.08138
2.78946
2.53316
2.30896
2.11289
1.94176
1.79255
1.66233
1.54851
1.44876
1.36127
1.28436
1.21674
1.15719
1.10495
1.0592
1.01945
0.98504
0.955698
0.930868
0.910443
0.893593
0.880235
0.870162
0.862596
0.85701
0.852936
0.849807
0.847558
0.845637
0.844841
0.844845
0.845048
0.845669
0.847037
0.849835
0.853765
0.858374
0.864414
0.871884
0.879682
0.88774
0.897203
0.906886
0.916139
0.92506
0.933375
0.940894
0.94757
0.953429
0.958659
0.963521
0.96827
0.973291
0.97872
0.984704
0.991359
0.998231
1.00495
1.01207
1.01927
1.02584
1.031
1.03506
1.03815
1.03938
1.03974
1.03978
1.03969
1.03919
1.0374
1.03307
1.02639
1.02086
1.01621
1.01231
1.00906
1.00635
1.00438
1.0031
1.00214
1.00144
1.00095
1.00061
1.00038
1.00024
1.00014
1.00008
1.00004
1.00002
1.00001
1
0.999994
6.07376
5.89368
5.47921
4.90725
4.40283
3.97132
3.5947
3.26426
2.9686
2.70557
2.47327
2.26892
2.08908
1.93096
1.79188
1.66935
1.56121
1.46548
1.38062
1.30521
1.23832
1.17879
1.12614
1.07948
1.03846
1.00259
0.971333
0.944477
0.921432
0.902097
0.885603
0.872234
0.861754
0.853525
0.847286
0.842607
0.839377
0.837265
0.836185
0.8362
0.836478
0.837309
0.839126
0.842876
0.847812
0.854015
0.861806
0.869641
0.877716
0.887769
0.897812
0.907664
0.917371
0.926665
0.935367
0.943381
0.950727
0.95761
0.96412
0.970442
0.976829
0.983357
0.990229
0.99751
1.00518
1.01268
1.01993
1.02695
1.03312
1.03805
1.04173
1.04348
1.04384
1.04386
1.04377
1.04327
1.04148
1.03738
1.03113
1.02527
1.02006
1.01555
1.01176
1.00858
1.00599
1.0042
1.00297
1.00204
1.00138
1.00091
1.00059
1.00037
1.00023
1.00014
1.00008
1.00004
1.00002
1.00001
1.00001
0.999995
5.79641
5.77607
5.57644
5.15266
4.63224
4.17553
3.78462
3.44333
3.14277
2.87584
2.63733
2.42545
2.23796
2.07195
1.92468
1.79413
1.67804
1.57466
1.48247
1.40006
1.32638
1.26042
1.20149
1.14885
1.102
1.06035
1.02357
0.99114
0.962711
0.937917
0.91626
0.897558
0.880956
0.867221
0.856086
0.847212
0.840239
0.835083
0.831733
0.829812
0.829816
0.830077
0.830951
0.83286
0.836352
0.84026
0.84591
0.852288
0.858159
0.866733
0.875699
0.884724
0.894076
0.903564
0.913022
0.922391
0.931688
0.940994
0.950291
0.959622
0.969019
0.978482
0.988077
0.997728
1.00711
1.01621
1.02451
1.0321
1.03856
1.04374
1.04706
1.04773
1.04775
1.04762
1.0471
1.04558
1.04198
1.03652
1.03015
1.02431
1.01916
1.01477
1.0111
1.00802
1.0056
1.00399
1.0028
1.00192
1.00129
1.00085
1.00055
1.00035
1.00021
1.00013
1.00007
1.00004
1.00002
1.00001
1.00001
0.999996
5.1061
5.55293
5.5009
5.29386
4.87416
4.40623
3.99289
3.6353
3.32237
3.04564
2.80107
2.58348
2.38883
2.21506
2.06036
1.92224
1.79884
1.68836
1.58932
1.50036
1.4204
1.34851
1.28386
1.22582
1.17372
1.12712
1.08543
1.0483
1.01522
0.985826
0.959785
0.936575
0.916162
0.897938
0.881429
0.867495
0.856135
0.846866
0.839773
0.834454
0.831102
0.828814
0.828841
0.829195
0.830224
0.832522
0.83651
0.841442
0.845946
0.851428
0.858594
0.865527
0.873137
0.881378
0.890141
0.899485
0.909496
0.920159
0.931388
0.943081
0.955096
0.96736
0.97967
0.991826
1.00377
1.01493
1.02491
1.03367
1.04104
1.04659
1.04981
1.05025
1.0502
1.04991
1.04898
1.04669
1.04204
1.03591
1.02926
1.02334
1.01825
1.01398
1.01043
1.00747
1.00528
1.00377
1.00264
1.00181
1.00122
1.0008
1.00052
1.00033
1.0002
1.00012
1.00007
1.00004
1.00002
1.00001
1.00001
0.999997
3.43159
5.02558
5.31695
5.24815
5.04372
4.63387
4.21424
3.84004
3.5121
3.22402
2.96873
2.74198
2.54078
2.36129
2.19975
2.05453
1.9241
1.80678
1.70114
1.60589
1.51998
1.44245
1.37249
1.3094
1.25252
1.20133
1.15527
1.11389
1.07673
1.04332
1.01337
0.986388
0.96227
0.94049
0.921303
0.903888
0.888221
0.874753
0.863654
0.85471
0.847889
0.842526
0.839199
0.836801
0.836362
0.836567
0.837279
0.838852
0.842011
0.845012
0.850395
0.856075
0.862531
0.869904
0.878021
0.88693
0.896812
0.907708
0.919469
0.931915
0.94483
0.958201
0.972102
0.985928
0.999312
1.01185
1.02308
1.03277
1.04084
1.04688
1.05035
1.05086
1.05081
1.05049
1.04951
1.0471
1.04198
1.0351
1.02815
1.02222
1.01724
1.01312
1.00969
1.00692
1.00494
1.00352
1.00245
1.00168
1.00113
1.00074
1.00048
1.0003
1.00019
1.00011
1.00007
1.00004
1.00002
1.00001
1.00001
0.999998
2.15447
3.74406
4.89855
5.09597
5.01884
4.81946
4.43247
4.0557
3.71436
3.41172
3.14447
2.90791
2.69741
2.50944
2.34145
2.1905
2.05389
1.93019
1.81817
1.71685
1.62519
1.54223
1.46717
1.39924
1.33782
1.2823
1.23213
1.18682
1.14589
1.10888
1.07543
1.04515
1.01779
0.9931
0.970905
0.951011
0.933387
0.917658
0.903749
0.890896
0.880861
0.872597
0.865974
0.861134
0.857564
0.855335
0.854115
0.854222
0.854615
0.855474
0.857194
0.860749
0.865132
0.870765
0.877412
0.88517
0.894266
0.904736
0.916201
0.928424
0.941474
0.955538
0.96994
0.984325
0.998284
1.01138
1.02307
1.0331
1.04138
1.04744
1.0506
1.0512
1.05118
1.0509
1.05
1.04757
1.04214
1.03421
1.02697
1.02106
1.01623
1.01226
1.00897
1.00641
1.00461
1.00326
1.00226
1.00154
1.00104
1.00068
1.00044
1.00028
1.00017
1.00011
1.00006
1.00004
1.00002
1.00001
1.00001
0.999999
1.50827
2.24537
3.85998
4.74598
4.88689
4.80803
4.61841
4.27011
3.92881
3.61359
3.33165
3.08219
2.86125
2.66475
2.48872
2.33009
2.18684
2.05727
1.93983
1.83299
1.73592
1.64776
1.56776
1.49519
1.42939
1.36971
1.3156
1.26653
1.222
1.18158
1.14486
1.11151
1.08121
1.05382
1.02903
1.00681
0.986923
0.969274
0.953502
0.940234
0.927837
0.917128
0.90753
0.899841
0.89378
0.888897
0.885331
0.883055
0.881429
0.881436
0.881667
0.882488
0.884395
0.888249
0.893348
0.899688
0.907525
0.916906
0.927272
0.938633
0.951044
0.964432
0.978227
0.991993
1.00535
1.01778
1.02879
1.03814
1.04562
1.05062
1.05276
1.0533
1.05327
1.05296
1.05191
1.04882
1.04193
1.03274
1.02556
1.01983
1.01517
1.01137
1.00827
1.00592
1.00424
1.00299
1.00207
1.0014
1.00094
1.00062
1.0004
1.00025
1.00016
1.0001
1.00006
1.00003
1.00002
1.00001
1.00001
0.999999
1.20815
1.533
2.26842
3.84508
4.57263
4.68643
4.6129
4.44116
4.13757
3.828
3.53417
3.26962
3.0352
2.82765
2.64276
2.47664
2.32639
2.1899
2.06582
1.95324
1.85107
1.75823
1.67377
1.59687
1.52689
1.46321
1.40527
1.35252
1.30449
1.26073
1.22086
1.18455
1.15149
1.12149
1.09431
1.06984
1.04785
1.02819
1.01074
0.995401
0.981902
0.969999
0.959955
0.950768
0.942824
0.936036
0.929935
0.925347
0.922159
0.919527
0.918779
0.918852
0.91937
0.920771
0.923787
0.928647
0.935038
0.943072
0.9522
0.962274
0.973501
0.985505
0.997993
1.01024
1.02205
1.03282
1.04218
1.04985
1.05523
1.05811
1.05929
1.05948
1.05936
1.05878
1.05627
1.0495
1.0388
1.03066
1.02404
1.01859
1.01414
1.01053
1.00763
1.00546
1.00389
1.00272
1.00188
1.00127
1.00085
1.00056
1.00036
1.00023
1.00014
1.00009
1.00005
1.00003
1.00002
1.00001
1.00001
1
1.08111
1.21511
1.5256
2.23574
3.7306
4.38108
4.4941
4.4324
4.28586
4.02963
3.74803
3.47257
3.22313
3.00195
2.80591
2.63071
2.47266
2.32924
2.19881
2.08019
1.97224
1.87405
1.78472
1.70342
1.62936
1.56182
1.5002
1.44393
1.39254
1.34558
1.30266
1.26346
1.2277
1.19514
1.1656
1.13889
1.11487
1.09338
1.07425
1.05722
1.04205
1.02872
1.01705
1.00685
0.997907
0.990159
0.983749
0.978004
0.973427
0.969812
0.966961
0.965888
0.965818
0.966195
0.967325
0.969781
0.974747
0.98141
0.989211
0.997923
1.00755
1.01781
1.02805
1.03806
1.04737
1.05564
1.06254
1.06726
1.07014
1.07131
1.07147
1.07137
1.07051
1.06629
1.05513
1.045
1.03651
1.0291
1.02274
1.01744
1.01316
1.00976
1.00706
1.00503
1.00356
1.00249
1.00171
1.00116
1.00077
1.00051
1.00033
1.00021
1.00013
1.00008
1.00005
1.00003
1.00002
1.00001
1.00001
1
1.0323
1.07794
1.20553
1.49643
2.1537
3.53528
4.17211
4.30842
4.26463
4.15004
3.94226
3.68408
3.42584
3.19082
2.98171
2.79539
2.62794
2.47638
2.33875
2.21369
2.09999
1.99655
1.90237
1.81649
1.73808
1.66643
1.6009
1.54094
1.48604
1.43577
1.38973
1.3476
1.30916
1.27415
1.24237
1.2136
1.18766
1.16429
1.14327
1.12444
1.10776
1.09295
1.07982
1.06817
1.05792
1.04894
1.04116
1.0345
1.02893
1.02462
1.0212
1.01898
1.01871
1.0188
1.01932
1.02068
1.0236
1.02847
1.03459
1.04152
1.04896
1.05682
1.06465
1.07212
1.07873
1.08384
1.08773
1.08989
1.09066
1.09064
1.09009
1.08566
1.0741
1.0633
1.05326
1.04387
1.03535
1.0279
1.0216
1.01643
1.01229
1.00906
1.00655
1.00465
1.00328
1.00228
1.00156
1.00105
1.0007
1.00046
1.0003
1.00019
1.00012
1.00007
1.00005
1.00003
1.00002
1.00001
1.00001
1
1.01144
1.02717
1.07416
1.18101
1.4487
2.02934
3.26419
3.94615
4.12984
4.10708
4.02448
3.86537
3.62864
3.39011
3.17098
2.97362
2.79568
2.63456
2.48835
2.3557
2.23536
2.12605
2.02656
1.93581
1.85288
1.77698
1.70744
1.64367
1.58518
1.53157
1.48246
1.43753
1.39642
1.3589
1.3248
1.29385
1.26576
1.24036
1.21757
1.19714
1.17876
1.16226
1.1475
1.13433
1.12263
1.1123
1.10328
1.09541
1.08888
1.08344
1.07922
1.07611
1.07444
1.07422
1.07439
1.07498
1.07644
1.07955
1.08421
1.0894
1.09498
1.10059
1.10583
1.11033
1.11398
1.11624
1.11738
1.11757
1.11657
1.11061
1.09884
1.08754
1.07588
1.06431
1.05329
1.0432
1.03432
1.02676
1.02051
1.01546
1.01148
1.00839
1.00605
1.0043
1.003
1.00208
1.00142
1.00096
1.00064
1.00042
1.00027
1.00017
1.00011
1.00007
1.00004
1.00002
1.00001
1.00001
1.00001
1
1.00353
1.00954
1.02338
1.06294
1.15442
1.38126
1.87317
2.92593
3.70822
3.95693
3.95418
3.89646
3.77525
3.57008
3.36145
3.16274
2.97768
2.80709
2.6512
2.50951
2.3811
2.26471
2.15901
2.06276
1.97489
1.89445
1.82071
1.75305
1.69094
1.6339
1.58154
1.53353
1.4896
1.44943
1.41275
1.37942
1.34928
1.322
1.29725
1.27484
1.25459
1.23632
1.21989
1.20515
1.19196
1.18025
1.16993
1.1609
1.15317
1.14676
1.14143
1.13733
1.13481
1.13297
1.13277
1.13295
1.13352
1.13489
1.13775
1.1412
1.14441
1.14761
1.14998
1.15174
1.15251
1.15233
1.14969
1.1417
1.13143
1.11953
1.10614
1.09208
1.07811
1.06485
1.05273
1.04205
1.03292
1.02535
1.01921
1.01434
1.01056
1.00766
1.00549
1.00388
1.00271
1.00187
1.00127
1.00085
1.00057
1.00037
1.00024
1.00015
1.0001
1.00006
1.00004
1.00002
1.00001
1.00001
1.00001
1
1.00108
1.00292
1.00736
1.01925
1.04914
1.12474
1.30354
1.69709
2.53565
3.47288
3.76773
3.81341
3.77067
3.6694
3.51373
3.34102
3.16372
2.99107
2.82824
2.6781
2.54127
2.41699
2.30406
2.20122
2.10735
2.02145
1.94269
1.87042
1.80405
1.74309
1.68712
1.63571
1.5886
1.54565
1.50658
1.47096
1.43847
1.40889
1.38197
1.35753
1.33537
1.31531
1.29717
1.28083
1.26614
1.25302
1.24136
1.23109
1.22218
1.2146
1.20821
1.20302
1.19931
1.19656
1.19433
1.19366
1.19371
1.19398
1.19466
1.19572
1.1965
1.19674
1.19638
1.19432
1.1893
1.18199
1.17196
1.15919
1.14419
1.12775
1.11072
1.09394
1.07805
1.06351
1.05067
1.03972
1.03064
1.02329
1.01745
1.0129
1.00942
1.00679
1.00483
1.0034
1.00236
1.00162
1.0011
1.00074
1.00049
1.00032
1.00021
1.00013
1.00008
1.00005
1.00003
1.00002
1.00001
1.00001
1
1
1.00032
1.0008
1.00217
1.00538
1.01461
1.03575
1.09484
1.22426
1.52799
2.15361
3.20616
3.54635
3.6669
3.63996
3.56282
3.45255
3.31653
3.16371
3.00744
2.85598
2.71358
2.5822
2.46174
2.35149
2.25057
2.1583
2.07372
1.99616
1.92498
1.85969
1.79984
1.74506
1.69494
1.649
1.60697
1.56858
1.53353
1.50157
1.47244
1.44592
1.4218
1.39988
1.37999
1.36198
1.34573
1.33111
1.31802
1.30639
1.29615
1.28727
1.27964
1.27324
1.26815
1.26402
1.26034
1.25778
1.2563
1.25478
1.25323
1.25135
1.2487
1.2448
1.23909
1.23102
1.22016
1.20634
1.18979
1.17113
1.15116
1.1308
1.11083
1.09188
1.07453
1.05932
1.04645
1.03582
1.02724
1.02045
1.01515
1.0111
1.00803
1.00575
1.00407
1.00285
1.00197
1.00135
1.00092
1.00062
1.00041
1.00027
1.00017
1.00011
1.00007
1.00004
1.00003
1.00002
1.00001
1.00001
1
1
1.00008
1.00022
1.00055
1.00148
1.00374
1.00992
1.02503
1.06484
1.15759
1.36729
1.81266
2.68096
3.28343
3.48546
3.49432
3.45829
3.37935
3.27662
3.15313
3.01913
2.88473
2.75404
2.63016
2.51444
2.4073
2.30852
2.21777
2.13441
2.05793
1.98784
1.92348
1.86438
1.81022
1.76067
1.71538
1.67402
1.63624
1.60173
1.5702
1.54142
1.51515
1.4912
1.46937
1.44951
1.43147
1.41515
1.40041
1.38719
1.37542
1.36501
1.35589
1.34796
1.34113
1.33507
1.32943
1.32463
1.32069
1.31625
1.31109
1.30502
1.29748
1.28784
1.27559
1.26037
1.2422
1.22145
1.1988
1.17505
1.15095
1.12716
1.10461
1.0843
1.06679
1.05214
1.04013
1.03048
1.02286
1.01695
1.01244
1.00903
1.00649
1.00461
1.00325
1.00227
1.00157
1.00107
1.00073
1.00049
1.00032
1.00021
1.00014
1.00009
1.00006
1.00004
1.00002
1.00001
1.00001
1
1
1
1.00002
1.00005
1.00013
1.00037
1.00088
1.00253
1.0059
1.01677
1.03909
1.10463
1.23435
1.53365
2.12991
2.96222
3.23765
3.36414
3.34492
3.29343
3.21605
3.12396
3.01776
2.90568
2.79211
2.68013
2.57237
2.47034
2.37486
2.28617
2.20417
2.12867
2.05928
1.99555
1.9371
1.88359
1.83465
1.78989
1.74894
1.71144
1.67709
1.64563
1.61681
1.5904
1.56623
1.54415
1.52401
1.50567
1.48899
1.47386
1.4602
1.44786
1.43673
1.42663
1.41733
1.40849
1.39998
1.39217
1.38424
1.37503
1.36452
1.35226
1.3377
1.32042
1.30028
1.27745
1.25236
1.22557
1.19746
1.16851
1.14005
1.11389
1.09106
1.07173
1.05571
1.0427
1.03233
1.02421
1.01794
1.01317
1.00957
1.0069
1.00493
1.00349
1.00245
1.0017
1.00117
1.0008
1.00054
1.00036
1.00024
1.00016
1.0001
1.00007
1.00004
1.00003
1.00002
1.00001
1.00001
1
1
1
1
1.00001
1.00003
1.00008
1.00022
1.00052
1.00147
1.00346
1.00968
1.02288
1.06116
1.13957
1.3178
1.6759
2.35687
2.97271
3.13414
3.21603
3.19477
3.1424
3.0705
2.99281
2.90552
2.81275
2.71753
2.62274
2.53015
2.44149
2.35773
2.27932
2.20635
2.13868
2.07613
2.01851
1.96557
1.91695
1.87229
1.83123
1.79348
1.75878
1.72688
1.69753
1.67063
1.64597
1.62332
1.60247
1.58327
1.56564
1.54938
1.5343
1.52017
1.50667