/*--------------------------------*- C++ -*----------------------------------*\
  =========                 |
  \\      /  F ield         | OpenFOAM: The Open Source CFD Toolbox
   \\    /   O peration     | Website:  https://openfoam.org
    \\  /    A nd           | Version:  13
     \\/     M anipulation  |
\*---------------------------------------------------------------------------*/
FoamFile
{
    format      ascii;
    class       surfaceScalarField;
    location    "0.5";
    object      phi;
}
// * * * * * * * * * * * * * * * * * * * * * * * * * * * * * * * * * * * * * //

dimensions      [1 0 -1 0 0 0 0];

internalField   nonuniform List<scalar> 
10325
(
0.00840003
4.16873e-12
0.00840003
2.69164e-11
0.00840004
9.1723e-11
0.00840002
2.75617e-10
0.00840005
7.24249e-10
0.00839994
1.96974e-09
0.00840013
5.00572e-09
0.00839944
1.3256e-08
0.00840049
3.37355e-08
0.00839654
8.82573e-08
0.00840128
2.25526e-07
0.00838313
5.86158e-07
0.00839113
1.53437e-06
0.00833524
4.16689e-06
0.00829541
1.24359e-05
0.00812667
4.27291e-05
0.00756306
0.000185332
0.00571704
0.000948791
0.00531764
0.000812008
0.00454812
0.000746954
0.00365202
0.000795517
0.00266303
0.000890152
0.00159951
0.000942846
0.000716841
0.000898395
0.000860228
0.00840003
1.00539e-11
0.00840003
4.93792e-11
0.00840004
2.03582e-10
0.00840002
5.08191e-10
0.00840005
1.53822e-09
0.00839994
3.6941e-09
0.00840012
1.04052e-08
0.00839946
2.47732e-08
0.00840047
7.20672e-08
0.00839662
1.64594e-07
0.0084012
4.80983e-07
0.0083834
1.1222e-06
0.00839099
3.17743e-06
0.00833556
8.31038e-06
0.00829521
2.513e-05
0.0081261
8.54573e-05
0.00756781
0.000366192
0.00572629
0.00187354
0.00532198
0.00163789
0.00457452
0.00147742
0.00368011
0.00159277
0.002698
0.00177532
0.00165113
0.00187159
0.000760139
0.00180244
0.00175992
0.00840003
1.19294e-11
0.00840003
7.53317e-11
0.00840003
2.60941e-10
0.00840002
7.66905e-10
0.00840005
2.06271e-09
0.00839994
5.44801e-09
0.00840013
1.42195e-08
0.00839945
3.70321e-08
0.00840058
9.63595e-08
0.00839654
2.49836e-07
0.00840198
6.55009e-07
0.00838251
1.69129e-06
0.00839367
4.49694e-06
0.008335
1.22237e-05
0.00829903
3.63758e-05
0.00813123
0.000123994
0.00759415
0.000526709
0.00580426
0.00270696
0.00540039
0.00248411
0.00466444
0.00221018
0.00377577
0.00239125
0.00279515
0.00266283
0.00174211
0.00281457
0.000813662
0.00273574
0.00270505
0.00840003
1.44879e-11
0.00840003
9.41058e-11
0.00840003
3.20013e-10
0.00840002
9.48095e-10
0.00840004
2.52639e-09
0.00839995
6.66699e-09
0.00840012
1.73457e-08
0.00839949
4.52389e-08
0.00840056
1.17673e-07
0.00839676
3.06703e-07
0.00840206
8.0539e-07
0.00838323
2.09716e-06
0.00839475
5.58511e-06
0.00833721
1.52666e-05
0.00830404
4.5343e-05
0.00814419
0.000154096
0.00763984
0.000649978
0.00597089
0.00337215
0.00556795
0.00335212
0.00483263
0.00296263
0.00394474
0.00320009
0.00296019
0.00356283
0.0018771
0.00380277
0.000888163
0.00371525
0.00371037
0.00840003
1.67254e-11
0.00840003
1.08264e-10
0.00840003
3.69173e-10
0.00840002
1.07996e-09
0.00840004
2.87885e-09
0.00839996
7.44054e-09
0.00840012
1.94179e-08
0.00839955
4.98965e-08
0.00840056
1.29867e-07
0.00839706
3.37229e-07
0.0084022
8.92919e-07
0.00838437
2.31723e-06
0.00839641
6.26315e-06
0.00834093
1.70691e-05
0.00831193
5.09594e-05
0.008165
0.000172171
0.00769623
0.000722876
0.00626305
0.00377107
0.00584256
0.0042533
0.005075
0.00376573
0.00417635
0.00403824
0.00318691
0.00447925
0.00206606
0.00484375
0.000991929
0.00476565
0.00480495
0.00840003
1.87467e-11
0.00840003
1.21627e-10
0.00840003
4.10706e-10
0.00840002
1.19969e-09
0.00840004
3.10789e-09
0.00839997
8.13006e-09
0.00840011
2.04865e-08
0.00839961
5.21271e-08
0.00840057
1.33712e-07
0.00839739
3.43676e-07
0.00840257
8.9526e-07
0.00838583
2.35187e-06
0.00839933
6.30898e-06
0.00834718
1.73126e-05
0.00832546
5.16767e-05
0.00819886
0.000172814
0.0077779
0.000717688
0.006741
0.00377338
0.00623205
0.00515647
0.00539427
0.0046831
0.00446804
0.00492285
0.00347196
0.00540361
0.00230552
0.00594159
0.00113378
0.0059016
0.00602805
0.00840003
2.07923e-11
0.00840003
1.35717e-10
0.00840003
4.56344e-10
0.00840003
1.32967e-09
0.00840004
3.43902e-09
0.00839998
8.9029e-09
0.00840009
2.24557e-08
0.00839968
5.51007e-08
0.00840052
1.41858e-07
0.00839784
3.40864e-07
0.00840264
9.00091e-07
0.0083884
2.20178e-06
0.00840269
5.91531e-06
0.00835715
1.56314e-05
0.0083467
4.59931e-05
0.00824782
0.000150216
0.00791828
0.000605928
0.00743819
0.00321965
0.00676913
0.00612353
0.00577497
0.00573662
0.00480673
0.00584441
0.00380893
0.0063418
0.00262215
0.00706803
0.00133234
0.00713929
0.00743497
0.00840003
2.37642e-11
0.00840003
1.52908e-10
0.00840003
5.04698e-10
0.00840003
1.4868e-09
0.00840004
3.74535e-09
0.00839999
9.78176e-09
0.00840007
2.38155e-08
0.00839975
6.05992e-08
0.00840036
1.4862e-07
0.00839825
3.73055e-07
0.00840209
9.25732e-07
0.00839065
2.30225e-06
0.0084043
5.87175e-06
0.00836822
1.50097e-05
0.00837328
4.19801e-05
0.00831476
0.000127439
0.00815113
0.000461741
0.00830455
0.00229255
0.0073221
0.00718002
0.0061305
0.00690705
0.00518382
0.0067497
0.00419365
0.00731383
0.00302739
0.00819204
0.00162141
0.00847246
0.00911026
0.00840003
2.36443e-11
0.00840003
1.53075e-10
0.00840003
5.17135e-10
0.00840003
1.50714e-09
0.00840003
3.90733e-09
0.00840001
1.02226e-08
0.00840004
2.52904e-08
0.00839982
6.46961e-08
0.00840021
1.58628e-07
0.00839858
4.0309e-07
0.00840136
9.8895e-07
0.00839225
2.50847e-06
0.00840274
6.25738e-06
0.00837363
1.61019e-05
0.00837626
4.35155e-05
0.00831991
0.000129119
0.00816797
0.000432882
0.00827361
0.00189519
0.00748279
0.0075421
0.00643308
0.00781369
0.00561306
0.00755221
0.00468665
0.0082382
0.00362484
0.00922525
0.00212487
0.00989338
0.0112673
0.00840003
2.26512e-11
0.00840003
1.47728e-10
0.00840003
4.99831e-10
0.00840003
1.4585e-09
0.00840003
3.82895e-09
0.00840001
1.00358e-08
0.00840003
2.51457e-08
0.00839984
6.46378e-08
0.00840018
1.59502e-07
0.00839876
4.08584e-07
0.00840116
1.00171e-06
0.00839313
2.56345e-06
0.0084028
6.34514e-06
0.00837583
1.63893e-05
0.00838191
4.34675e-05
0.00832944
0.000127064
0.00826538
0.000418509
0.0082861
0.00169596
0.00750545
0.00774487
0.00689435
0.00830659
0.00609372
0.00834852
0.00536543
0.00894546
0.00448342
0.0101044
0.00292888
0.0113682
0.014217
0.00840003
1.93946e-11
0.00840003
1.34791e-10
0.00840003
4.41445e-10
0.00840003
1.34642e-09
0.00840003
3.40909e-09
0.00840001
9.45379e-09
0.00840004
2.23621e-08
0.00839987
6.25375e-08
0.00840017
1.42636e-07
0.00839891
4.02937e-07
0.00840111
9.07266e-07
0.00839367
2.56917e-06
0.0084037
5.88588e-06
0.00837555
1.63273e-05
0.00838881
4.13358e-05
0.00833576
0.000120887
0.00830598
0.000393888
0.00834471
0.00156999
0.00792455
0.0075025
0.00730154
0.00886535
0.0066588
0.00894737
0.00616691
0.00943627
0.00577046
0.0105219
0.00560234
0.0114747
0.0114337
0.00838538
0.00840003
1.82957e-11
0.00840003
1.14383e-10
0.00840003
3.90202e-10
0.00840003
1.14922e-09
0.00840004
3.00251e-09
0.00840001
7.91533e-09
0.00840006
2.05691e-08
0.00839989
5.05954e-08
0.00840015
1.37739e-07
0.00839926
3.22297e-07
0.00840044
9.07821e-07
0.00839598
2.08171e-06
0.00840026
5.90273e-06
0.00838278
1.40569e-05
0.00838599
3.94596e-05
0.00834438
0.000108588
0.00832243
0.000353614
0.00844856
0.00138359
0.00862599
0.00652047
0.00806018
0.00940838
0.00738654
0.00958714
0.00713323
0.00974859
0.00708179
0.0105727
0.00731459
0.0111934
0.0106886
0.00802517
0.00840003
1.37768e-11
0.00840003
1.00695e-10
0.00840003
3.18938e-10
0.00840003
9.99838e-10
0.00840003
2.45603e-09
0.00840004
6.94152e-09
0.00840001
1.60111e-08
0.00840001
4.56892e-08
0.00839996
1.01907e-07
0.00839972
2.94964e-07
0.00839991
6.51657e-07
0.00839794
1.88306e-06
0.0083991
4.24795e-06
0.00839132
1.19822e-05
0.00838842
2.94258e-05
0.00837349
8.47083e-05
0.00838881
0.000256751
0.0086288
0.00096597
0.00968551
0.00452037
0.00904341
0.00999538
0.00829379
0.0103553
0.0081027
0.0100997
0.00824338
0.0105081
0.00852969
0.0108656
0.0102991
0.00887254
0.00840003
1.38821e-11
0.00840003
7.75959e-11
0.00840003
2.9628e-10
0.00840003
7.66348e-10
0.00840003
2.26817e-09
0.00840003
5.30845e-09
0.00840001
1.49582e-08
0.00840005
3.4828e-08
0.00839983
9.50851e-08
0.00840026
2.25897e-07
0.00839872
6.00955e-07
0.0084016
1.45838e-06
0.00839301
3.7934e-06
0.00840503
9.48447e-06
0.00837769
2.46276e-05
0.00839688
6.5899e-05
0.00838961
0.000193472
0.00858661
0.000661877
0.00991881
0.00285294
0.00968495
0.0100424
0.00935706
0.0106288
0.00897366
0.0106527
0.00911657
0.0104877
0.00940542
0.0105557
0.0100149
0.00963209
0.00840003
1.05968e-11
0.00840003
6.42594e-11
0.00840003
2.27763e-10
0.00840003
6.43044e-10
0.00840004
1.75046e-09
0.00840002
4.4672e-09
0.00840005
1.18033e-08
0.00839997
2.91059e-08
0.0084001
7.77248e-08
0.0083997
1.88072e-07
0.00840029
5.03841e-07
0.00839828
1.21366e-06
0.0084006
3.2573e-06
0.00839188
7.88522e-06
0.00839809
2.11417e-05
0.00837239
5.45546e-05
0.00838436
0.000157256
0.00843177
0.000510138
0.0090086
0.00209299
0.00999063
0.00840185
0.00994875
0.0106463
0.00973147
0.0108902
0.00973647
0.0105443
0.00995356
0.0102744
0.00971794
0.0101217
0.00840003
7.50924e-12
0.00840003
5.06332e-11
0.00840003
1.65881e-10
0.00840003
5.07907e-10
0.00840003
1.27792e-09
0.00840003
3.5024e-09
0.00840004
8.5414e-09
0.00839999
2.26052e-08
0.0084001
5.58305e-08
0.00839974
1.44596e-07
0.00840054
3.64311e-07
0.00839817
9.25365e-07
0.00840294
2.37374e-06
0.0083904
5.99761e-06
0.00840771
1.56407e-05
0.00837281
4.08183e-05
0.00840491
0.00011482
0.00844595
0.00035564
0.00898946
0.00136118
0.0106533
0.00583146
0.010649
0.0105944
0.0104446
0.0111042
0.0102659
0.0108286
0.0103835
0.0101589
0.00951223
0.0105045
0.00840003
5.49758e-12
0.00840003
3.83609e-11
0.00840003
1.251e-10
0.00840003
3.81949e-10
0.00840003
9.63023e-10
0.00840003
2.65001e-09
0.00840003
6.32822e-09
0.00840003
1.73845e-08
0.00840001
4.05435e-08
0.00839997
1.1217e-07
0.00840004
2.5925e-07
0.00839938
7.17644e-07
0.00840055
1.66908e-06
0.0083962
4.57508e-06
0.00840261
1.09499e-05
0.00839093
2.95748e-05
0.00841335
7.7182e-05
0.0084775
0.000227327
0.0089146
0.000771842
0.0112148
0.00321063
0.0112716
0.0103365
0.0113969
0.0110266
0.0111645
0.0111134
0.0108857
0.010424
0.00946408
0.0108466
0.00840003
4.5443e-12
0.00840003
2.52333e-11
0.00840003
9.6855e-11
0.00840003
2.51427e-10
0.00840003
7.40913e-10
0.00840003
1.74624e-09
0.00840003
4.90915e-09
0.00840004
1.14313e-08
0.00839999
3.16211e-08
0.00840012
7.43441e-08
0.00839971
2.0309e-07
0.00840064
4.8588e-07
0.00839801
1.30125e-06
0.0084036
3.19769e-06
0.00838999
8.40359e-06
0.00841066
2.14121e-05
0.00837841
5.70363e-05
0.00843043
0.00016052
0.00856766
0.000514181
0.0095354
0.00205557
0.0115879
0.00757077
0.01182
0.0107809
0.0116964
0.0112353
0.0112702
0.0108393
0.00951157
0.0111455
0.00840003
2.67386e-12
0.00840003
1.92576e-11
0.00840003
6.03471e-11
0.00840003
1.92168e-10
0.00840003
4.67441e-10
0.00840003
1.31916e-09
0.00840004
3.12216e-09
0.00840002
8.52184e-09
0.00840006
2.0347e-08
0.00839995
5.43546e-08
0.00840023
1.31585e-07
0.00839957
3.45883e-07
0.00840116
8.52784e-07
0.00839764
2.192e-06
0.00840563
5.5387e-06
0.00839193
1.40561e-05
0.00842029
3.65066e-05
0.00841289
9.82205e-05
0.00857615
0.00028961
0.00930556
0.00102588
0.0119434
0.00402554
0.0121811
0.0104524
0.0124684
0.0109979
0.0121623
0.0111608
0.0100569
0.0115942
0.00840003
2.03331e-12
0.00840003
1.15583e-11
0.00840003
4.35293e-11
0.00840003
1.15789e-10
0.00840003
3.3353e-10
0.00840003
8.06556e-10
0.00840003
2.21274e-09
0.00840004
5.2776e-09
0.00840001
1.42797e-08
0.00840008
3.41913e-08
0.00839991
9.15625e-08
0.00840035
2.21151e-07
0.00839932
5.8625e-07
0.00840188
1.44016e-06
0.00839627
3.75977e-06
0.00840849
9.43432e-06
0.00838899
2.45909e-05
0.00842821
6.42591e-05
0.00844611
0.000181857
0.0088078
0.000581971
0.0102837
0.00229081
0.0125031
0.00758588
0.0127021
0.0107539
0.0127551
0.0111088
0.010751
0.0121093
0.00840003
1.19103e-12
0.00840003
7.58154e-12
0.00840003
2.65374e-11
0.00840003
7.61581e-11
0.00840003
2.04759e-10
0.00840003
5.32667e-10
0.00840003
1.35868e-09
0.00840003
3.50109e-09
0.00840004
8.76917e-09
0.00840002
2.27344e-08
0.00840007
5.62916e-08
0.00839992
1.46497e-07
0.00840041
3.60735e-07
0.0083993
9.37132e-07
0.00840269
2.30356e-06
0.00839659
5.998e-06
0.00841368
1.48544e-05
0.00839977
3.90348e-05
0.00846584
0.000103367
0.00862525
0.000303831
0.00959564
0.00106692
0.0124272
0.00389257
0.0130475
0.0100199
0.0134126
0.0107647
0.0111601
0.0130112
0.00840003
6.75257e-13
0.00840003
4.72389e-12
0.00840003
1.53933e-11
0.00840003
4.76206e-11
0.00840003
1.19512e-10
0.00840003
3.32528e-10
0.00840003
7.97671e-10
0.00840003
2.17776e-09
0.00840004
5.19222e-09
0.00840002
1.4046e-08
0.00840008
3.35926e-08
0.00839994
9.00321e-08
0.00840037
2.16774e-07
0.00839949
5.75229e-07
0.00840202
1.40443e-06
0.00839726
3.67504e-06
0.00840986
9.14391e-06
0.00839366
2.3888e-05
0.00843983
6.17763e-05
0.0084749
0.000173379
0.00891685
0.000544706
0.0104823
0.00205027
0.0131521
0.00661222
0.013397
0.0104049
0.0107438
0.0137441
0.00840003
4.24768e-13
0.00840003
2.63179e-12
0.00840003
9.26823e-12
0.00840003
2.65793e-11
0.00840003
7.21072e-11
0.00840003
1.85657e-10
0.00840003
4.86151e-10
0.00840003
1.21493e-09
0.00840003
3.18315e-09
0.00840004
7.83476e-09
0.00840003
2.07424e-08
0.00840007
5.05261e-08
0.00839996
1.34402e-07
0.0084004
3.26685e-07
0.00839951
8.66637e-07
0.00840259
2.10564e-06
0.00839771
5.59019e-06
0.00841423
1.36614e-05
0.0084043
3.63033e-05
0.00847821
9.40158e-05
0.00865687
0.00027116
0.00968961
0.000906923
0.0127353
0.00312417
0.0137987
0.00895933
0.0103972
0.0140133
0.00840003
2.299e-13
0.00840003
1.44796e-12
0.00840003
5.11382e-12
0.00840003
1.46253e-11
0.00840003
3.99156e-11
0.00840003
1.02865e-10
0.00840003
2.69146e-10
0.00840003
6.81349e-10
0.00840003
1.76344e-09
0.00840004
4.4592e-09
0.00840003
1.14335e-08
0.00840007
2.89493e-08
0.00840001
7.37368e-08
0.00840022
1.86291e-07
0.0084
4.73363e-07
0.00840087
1.19863e-06
0.00840061
3.02822e-06
0.00840417
7.72847e-06
0.00840677
1.96401e-05
0.00843151
5.10795e-05
0.00849431
0.000138789
0.0088815
0.00041878
0.0101906
0.00149694
0.0132957
0.00482614
0.00951124
0.0140025
0.00840003
1.19633e-13
0.00840003
7.55701e-13
0.00840003
2.69222e-12
0.00840003
7.65057e-12
0.00840003
2.11157e-11
0.00840003
5.42057e-11
0.00840003
1.42654e-10
0.00840003
3.63012e-10
0.00840003
9.32304e-10
0.00840004
2.40189e-09
0.00840003
6.02964e-09
0.00840005
1.57269e-08
0.00840003
3.88437e-08
0.0084001
1.02506e-07
0.00840011
2.4849e-07
0.00840023
6.64909e-07
0.00840094
1.59445e-06
0.00840101
4.28774e-06
0.00840602
1.03721e-05
0.00841219
2.78745e-05
0.00844638
7.10207e-05
0.00859515
0.000202714
0.00930828
0.000642709
0.0116513
0.00222426
0.006415
0.0140815
0.00840003
6.11468e-14
0.00840003
3.73812e-13
0.00840003
1.35164e-12
0.00840003
3.81344e-12
0.00840003
1.06186e-11
0.00840003
2.71537e-11
0.00840003
7.23672e-11
0.00840003
1.81344e-10
0.00840003
4.81634e-10
0.00840003
1.1906e-09
0.00840003
3.17373e-09
0.00840004
7.78378e-09
0.00840003
2.06945e-08
0.00840008
5.07468e-08
0.00840002
1.3447e-07
0.00840042
3.29915e-07
0.00839981
8.70272e-07
0.00840287
2.14428e-06
0.00839945
5.6232e-06
0.00841663
1.40563e-05
0.00841513
3.68049e-05
0.00850633
9.6839e-05
0.00876905
0.000277702
0.00998925
0.000911858
0.00282391
0.0130846
0.00840003
2.72738e-14
0.00840003
1.80174e-13
0.00840003
6.13314e-13
0.00840003
1.8536e-12
0.00840003
4.86201e-12
0.00840003
1.33e-11
0.00840003
3.36009e-11
0.00840003
8.94163e-11
0.00840003
2.26196e-10
0.00840003
5.90502e-10
0.00840004
1.50537e-09
0.00840003
3.87499e-09
0.00840005
9.9703e-09
0.00840003
2.52608e-08
0.00840012
6.56342e-08
0.00840002
1.64134e-07
0.00840058
4.28624e-07
0.00840022
1.06174e-06
0.00840303
2.79302e-06
0.00840307
6.85531e-06
0.00841785
1.81948e-05
0.00843437
4.54336e-05
0.00854409
0.00012489
0.0089599
0.000361707
0.00121118
0.0102198
0.00840003
1.20297e-14
0.00840003
7.94629e-14
0.00840003
2.75058e-13
0.00840003
8.19425e-13
0.00840003
2.20339e-12
0.00840003
5.93484e-12
0.00840003
1.52994e-11
0.00840003
4.05976e-11
0.00840003
1.0288e-10
0.00840003
2.73241e-10
0.00840003
6.84732e-10
0.00840003
1.81685e-09
0.00840004
4.53507e-09
0.00840004
1.20025e-08
0.00840006
2.98404e-08
0.00840005
7.8993e-08
0.00840028
1.95387e-07
0.00840003
5.14561e-07
0.008402
1.27533e-06
0.00840007
3.32768e-06
0.0084128
8.31243e-06
0.00840574
2.16768e-05
0.00847138
5.56062e-05
0.00856223
0.000152945
0.000459097
0.00921198
0.00840003
5.11565e-15
0.00840003
3.28743e-14
0.00840003
1.16222e-13
0.00840003
3.40601e-13
0.00840003
9.41862e-13
0.00840003
2.48523e-12
0.00840003
6.61312e-12
0.00840003
1.71382e-11
0.00840003
4.50204e-11
0.00840003
1.16546e-10
0.00840003
3.02405e-10
0.00840003
7.85769e-10
0.00840003
2.01016e-09
0.00840004
5.24818e-09
0.00840003
1.32749e-08
0.00840008
3.47932e-08
0.00840006
8.71492e-08
0.00840026
2.2994e-07
0.00840046
5.67575e-07
0.00840103
1.50915e-06
0.00840363
3.69188e-06
0.00840622
9.8579e-06
0.00842476
2.44311e-05
0.00846269
6.59694e-05
0.000179186
0.00866201
0.00840003
1.96292e-15
0.00840003
1.24949e-14
0.00840003
4.54917e-14
0.00840003
1.31839e-13
0.00840003
3.71023e-13
0.00840003
9.83123e-13
0.00840003
2.6486e-12
0.00840003
6.86854e-12
0.00840003
1.82982e-11
0.00840003
4.70832e-11
0.00840003
1.24612e-10
0.00840003
3.18997e-10
0.00840003
8.4242e-10
0.00840004
2.14121e-09
0.00840003
5.6566e-09
0.00840005
1.42775e-08
0.00840004
3.75937e-08
0.00840019
9.46801e-08
0.00840006
2.47437e-07
0.00840114
6.23871e-07
0.00840011
1.62133e-06
0.00840733
4.1018e-06
0.00840225
1.06569e-05
0.00844273
2.73239e-05
7.26149e-05
0.00846544
0.00840003
6.86246e-16
0.00840003
4.55124e-15
0.00840003
1.66264e-14
0.00840003
4.72633e-14
0.00840003
1.38289e-13
0.00840003
3.55266e-13
0.00840003
9.99207e-13
0.00840003
2.53319e-12
0.00840003
7.0032e-12
0.00840003
1.77078e-11
0.00840003
4.83875e-11
0.00840003
1.21909e-10
0.00840003
3.30374e-10
0.00840003
8.2966e-10
0.00840003
2.23611e-09
0.00840004
5.58962e-09
0.00840004
1.50432e-08
0.00840008
3.72947e-08
0.00840008
1.00467e-07
0.00840043
2.46966e-07
0.00840022
6.64209e-07
0.00840289
1.63154e-06
0.00840132
4.37552e-06
0.00841877
1.08452e-05
2.91352e-05
0.00841857
0.00840003
2.57877e-16
0.00840003
1.47527e-15
0.00840003
5.53003e-15
0.00840003
1.66e-14
0.00840003
4.5208e-14
0.00840003
1.27986e-13
0.00840003
3.2995e-13
0.00840003
9.21903e-13
0.00840003
2.36236e-12
0.00840003
6.48227e-12
0.00840003
1.66938e-11
0.00840003
4.5063e-11
0.00840003
1.16369e-10
0.00840003
3.10158e-10
0.00840003
8.00435e-10
0.00840003
2.11587e-09
0.00840004
5.43737e-09
0.00840004
1.43297e-08
0.00840008
3.65015e-08
0.00840009
9.64212e-08
0.00840044
2.43012e-07
0.00840029
6.43406e-07
0.00840299
1.61347e-06
0.00840189
4.27274e-06
1.07714e-05
0.00841948
0.00840003
4.15792e-17
0.00840003
4.51868e-16
0.00840003
1.64335e-15
0.00840003
4.91238e-15
0.00840003
1.48964e-14
0.00840003
3.93023e-14
0.00840003
1.11108e-13
0.00840003
2.89774e-13
0.00840003
7.91096e-13
0.00840003
2.10724e-12
0.00840003
5.55549e-12
0.00840003
1.50732e-11
0.00840003
3.87525e-11
0.00840003
1.06196e-10
0.00840003
2.68502e-10
0.00840003
7.37155e-10
0.00840004
1.84763e-09
0.00840003
5.05459e-09
0.00840006
1.26341e-08
0.00840005
3.42698e-08
0.00840021
8.5751e-08
0.00840011
2.29798e-07
0.00840131
5.76948e-07
0.00840065
1.53258e-06
3.86363e-06
0.00840838
0.00840003
1.99222e-17
0.00840003
4.75152e-17
0.00840003
3.13443e-16
0.00840003
1.51905e-15
0.00840003
4.15938e-15
0.00840003
1.20254e-14
0.00840003
3.23704e-14
0.00840003
8.9445e-14
0.00840003
2.40876e-13
0.00840003
6.41349e-13
0.00840003
1.75908e-12
0.00840003
4.55667e-12
0.00840003
1.26087e-11
0.00840003
3.21489e-11
0.00840003
8.9068e-11
0.00840003
2.25824e-10
0.00840003
6.19342e-10
0.00840004
1.57392e-09
0.00840004
4.265e-09
0.00840005
1.08617e-08
0.00840007
2.91299e-08
0.00840014
7.40252e-08
0.00840028
1.9743e-07
0.00840078
4.99324e-07
1.33037e-06
0.00840159
0.00840003
8.33209e-17
0.00840003
2.52375e-16
0.00840003
4.00287e-16
0.00840003
6.63694e-16
0.00840003
1.42635e-15
0.00840003
3.61034e-15
0.00840003
9.3996e-15
0.00840003
2.51369e-14
0.00840003
6.86435e-14
0.00840003
1.87819e-13
0.00840003
4.93781e-13
0.00840003
1.37224e-12
0.00840003
3.54009e-12
0.00840003
9.84145e-12
0.00840003
2.53419e-11
0.00840003
6.94188e-11
0.00840003
1.80286e-10
0.00840003
4.83499e-10
0.00840003
1.27066e-09
0.00840004
3.33598e-09
0.00840004
8.84571e-09
0.00840008
2.29001e-08
0.0084001
6.06695e-08
0.00840035
1.56371e-07
4.11566e-07
0.0084005
0.00840003
2.13317e-17
0.00840003
1.17663e-16
0.00840003
2.81974e-16
0.00840003
4.21646e-16
0.00840003
6.93781e-16
0.00840003
1.21547e-15
0.00840003
2.92436e-15
0.00840003
6.9145e-15
0.00840003
1.9198e-14
0.00840003
4.96292e-14
0.00840003
1.38538e-13
0.00840003
3.58647e-13
0.00840003
1.00266e-12
0.00840003
2.61363e-12
0.00840003
7.1216e-12
0.00840003
1.90101e-11
0.00840003
4.99476e-11
0.00840003
1.36516e-10
0.00840003
3.49436e-10
0.00840003
9.63104e-10
0.00840004
2.43629e-09
0.00840004
6.7017e-09
0.00840007
1.68974e-08
0.0084001
4.60466e-08
1.16223e-07
0.00840026
0.00840003
7.70326e-17
0.00840003
1.18829e-16
0.00840003
1.0983e-16
0.00840003
1.73825e-16
0.00840003
1.42247e-16
0.00840003
2.23535e-16
0.00840003
6.30355e-16
0.00840003
1.64742e-15
0.00840003
4.60003e-15
0.00840003
1.2677e-14
0.00840003
3.38835e-14
0.00840003
9.46392e-14
0.00840003
2.48036e-13
0.00840003
6.84897e-13
0.00840003
1.81497e-12
0.00840003
4.87731e-12
0.00840003
1.31578e-11
0.00840003
3.44878e-11
0.00840003
9.41735e-11
0.00840003
2.43044e-10
0.00840003
6.64626e-10
0.00840004
1.70356e-09
0.00840004
4.63453e-09
0.00840006
1.188e-08
3.19036e-08
0.00840008
0.00840003
-1.29156e-16
0.00840003
-1.37287e-16
0.00840003
-1.37341e-16
0.00840003
-1.455e-16
0.00840003
-1.0674e-16
0.00840003
4.25549e-18
0.00840003
1.36311e-16
0.00840003
4.37421e-16
0.00840003
1.10778e-15
0.00840003
3.00424e-15
0.00840003
8.33738e-15
0.00840003
2.19637e-14
0.00840003
6.1136e-14
0.00840003
1.62309e-13
0.00840003
4.40131e-13
0.00840003
1.18909e-12
0.00840003
3.13211e-12
0.00840003
8.59984e-12
0.00840003
2.22391e-11
0.00840003
6.12898e-11
0.00840003
1.57256e-10
0.00840003
4.30655e-10
0.00840004
1.1103e-09
0.00840004
2.97685e-09
7.80959e-09
0.00840005
0.00840003
1.56477e-16
0.00840003
1.62901e-16
0.00840003
1.86727e-16
0.00840003
1.46882e-16
0.00840003
1.39293e-16
0.00840003
2.11718e-16
0.00840003
2.2733e-16
0.00840003
3.17509e-16
0.00840003
4.48589e-16
0.00840003
9.29947e-16
0.00840003
2.01011e-15
0.00840003
5.26841e-15
0.00840003
1.37535e-14
0.00840003
3.75411e-14
0.00840003
9.93698e-14
0.00840003
2.69657e-13
0.00840003
7.26087e-13
0.00840003
1.91353e-12
0.00840003
5.23976e-12
0.00840003
1.35599e-11
0.00840003
3.71835e-11
0.00840003
9.6084e-11
0.00840003
2.59041e-10
0.00840003
6.78941e-10
1.78254e-09
0.00840004
0.00840003
-7.60839e-17
0.00840003
-4.68646e-17
0.00840003
-4.20128e-17
0.00840003
3.41795e-17
0.00840003
6.13116e-17
0.00840003
6.11761e-17
0.00840003
1.08718e-16
0.00840003
2.08682e-16
0.00840003
2.69831e-16
0.00840003
3.93809e-16
0.00840003
6.11409e-16
0.00840003
1.31416e-15
0.00840003
3.08645e-15
0.00840003
8.16139e-15
0.00840003
2.20648e-14
0.00840003
5.80579e-14
0.00840003
1.56266e-13
0.00840003
4.20285e-13
0.00840003
1.10385e-12
0.00840003
3.0061e-12
0.00840003
7.79502e-12
0.00840003
2.11644e-11
0.00840003
5.5012e-11
0.00840003
1.46154e-10
3.86718e-10
0.00840003
0.00840003
4.0251e-17
0.00840003
4.8518e-18
0.00840003
3.7405e-18
0.00840003
-1.78351e-17
0.00840003
5.14454e-17
0.00840003
6.78982e-17
0.00840003
3.26887e-17
0.00840003
-6.12574e-18
0.00840003
1.27936e-16
0.00840003
2.30149e-16
0.00840003
4.26308e-16
0.00840003
7.2403e-16
0.00840003
1.16308e-15
0.00840003
2.08622e-15
0.00840003
4.76859e-15
0.00840003
1.2265e-14
0.00840003
3.2121e-14
0.00840003
8.57547e-14
0.00840003
2.30899e-13
0.00840003
6.02427e-13
0.00840003
1.63262e-12
0.00840003
4.22524e-12
0.00840003
1.13733e-11
0.00840003
2.95501e-11
7.78314e-11
0.00840003
0.00840003
-8.63838e-17
0.00840003
-3.03035e-17
0.00840003
9.83371e-17
0.00840003
1.91091e-17
0.00840003
-7.55689e-17
0.00840003
-1.28071e-16
0.00840003
-1.16064e-16
0.00840003
-2.22804e-17
0.00840003
-2.92464e-17
0.00840003
-2.43403e-17
0.00840003
-9.12898e-17
0.00840003
-6.35614e-17
0.00840003
1.67509e-17
0.00840003
2.16895e-16
0.00840003
8.59447e-16
0.00840003
2.33293e-15
0.00840003
6.40333e-15
0.00840003
1.70862e-14
0.00840003
4.47776e-14
0.00840003
1.20078e-13
0.00840003
3.12796e-13
0.00840003
8.3808e-13
0.00840003
2.16651e-12
0.00840003
5.77238e-12
1.49187e-11
0.00840003
0.00840003
1.10019e-16
0.00840003
1.0983e-16
0.00840003
4.98191e-17
0.00840003
1.02674e-16
0.00840003
8.83896e-17
0.00840003
2.09251e-17
0.00840003
9.60603e-17
0.00840003
1.01102e-17
0.00840003
-6.25585e-17
0.00840003
-8.80372e-17
0.00840003
-1.22677e-16
0.00840003
-2.22776e-16
0.00840003
-2.19985e-16
0.00840003
-1.8857e-16
0.00840003
-1.13651e-16
0.00840003
2.37711e-16
0.00840003
9.84889e-16
0.00840003
2.98752e-15
0.00840003
8.47212e-15
0.00840003
2.25357e-14
0.00840003
5.89625e-14
0.00840003
1.54914e-13
0.00840003
4.06543e-13
0.00840003
1.05452e-12
2.77448e-12
0.00840003
0.00840003
5.59448e-17
0.00840003
4.23652e-17
0.00840003
2.20906e-17
0.00840003
5.3668e-17
0.00840003
9.77408e-17
0.00840003
1.25524e-16
0.00840003
8.72783e-17
0.00840003
1.66235e-16
0.00840003
2.64898e-16
0.00840003
2.70129e-16
0.00840003
2.89374e-16
0.00840003
2.89265e-16
0.00840003
3.08754e-16
0.00840003
3.09431e-16
0.00840003
2.99375e-16
0.00840003
3.50035e-16
0.00840003
5.28034e-16
0.00840003
7.51677e-16
0.00840003
1.60855e-15
0.00840003
4.15827e-15
0.00840003
1.05962e-14
0.00840003
2.78534e-14
0.00840003
7.21461e-14
0.00840003
1.8938e-13
4.84906e-13
0.00840003
0.00840003
-1.48509e-16
0.00840003
-2.1375e-16
0.00840003
-1.9803e-16
0.00840003
-2.16895e-16
0.00840003
-1.99927e-16
0.00840003
-1.46205e-16
0.00840003
-8.94738e-17
0.00840003
-1.06523e-17
0.00840003
2.77014e-17
0.00840003
1.10236e-16
0.00840003
1.71819e-16
0.00840003
2.44325e-16
0.00840003
2.96936e-16
0.00840003
3.19352e-16
0.00840003
4.04868e-16
0.00840003
4.61138e-16
0.00840003
5.16405e-16
0.00840003
6.29054e-16
0.00840003
8.79911e-16
0.00840003
1.22065e-15
0.00840003
2.23137e-15
0.00840003
5.26895e-15
0.00840003
1.2856e-14
0.00840003
3.25651e-14
8.3839e-14
0.00840003
0.00840003
-5.99022e-17
0.00840003
-6.77084e-17
0.00840003
-1.23545e-16
0.00840003
-8.39986e-17
0.00840003
-6.61634e-17
0.00840003
-4.07389e-17
0.00840003
-6.22061e-17
0.00840003
-1.28749e-16
0.00840003
-1.79734e-16
0.00840003
-2.00984e-16
0.00840003
-1.89708e-16
0.00840003
-1.66913e-16
0.00840003
-1.17609e-16
0.00840003
-3.91397e-17
0.00840003
1.17799e-16
0.00840003
2.50857e-16
0.00840003
4.42165e-16
0.00840003
5.81946e-16
0.00840003
6.36237e-16
0.00840003
6.99012e-16
0.00840003
9.56646e-16
0.00840003
1.45928e-15
0.00840003
2.77659e-15
0.00840003
6.15545e-15
1.4321e-14
0.00840003
0.00840003
4.77862e-17
0.00840003
6.58653e-18
0.00840003
-3.68087e-17
0.00840003
-9.17235e-17
0.00840003
-1.28315e-16
0.00840003
-1.70382e-16
0.00840003
-1.3211e-16
0.00840003
-1.23951e-16
0.00840003
-9.85269e-17
0.00840003
-4.80573e-17
0.00840003
1.65612e-17
0.00840003
1.65937e-16
0.00840003
2.02448e-16
0.00840003
2.25677e-16
0.00840003
2.68096e-16
0.00840003
3.57597e-16
0.00840003
4.20508e-16
0.00840003
4.63551e-16
0.00840003
4.51109e-16
0.00840003
4.83744e-16
0.00840003
5.28034e-16
0.00840003
6.06177e-16
0.00840003
7.95777e-16
0.00840003
1.2989e-15
2.61057e-15
0.00840003
0.00840003
-3.52095e-17
0.00840003
-6.55671e-17
0.00840003
-8.2318e-17
0.00840003
-1.04273e-16
0.00840003
-1.59351e-16
0.00840003
-9.18048e-17
0.00840003
-2.39338e-17
0.00840003
9.79306e-17
0.00840003
1.46259e-16
0.00840003
2.7639e-16
0.00840003
3.26806e-16
0.00840003
3.80094e-16
0.00840003
5.26163e-16
0.00840003
6.21383e-16
0.00840003
6.05933e-16
0.00840003
5.57822e-16
0.00840003
4.80789e-16
0.00840003
4.23733e-16
0.00840003
3.83645e-16
0.00840003
4.13379e-16
0.00840003
3.66813e-16
0.00840003
3.12359e-16
0.00840003
3.44885e-16
0.00840003
3.76028e-16
5.45354e-16
0.00840003
0.00840003
4.55365e-17
0.00840003
2.05727e-16
0.00840003
3.54697e-16
0.00840003
4.88975e-16
0.00840003
6.07804e-16
0.00840003
6.25476e-16
0.00840003
6.37972e-16
0.00840003
5.13831e-16
0.00840003
5.40014e-16
0.00840003
4.51652e-16
0.00840003
3.82859e-16
0.00840003
2.96421e-16
0.00840003
2.41696e-16
0.00840003
2.11148e-16
0.00840003
1.90711e-16
0.00840003
2.12205e-16
0.00840003
1.7827e-16
0.00840003
2.10715e-16
0.00840003
2.50532e-16
0.00840003
1.57426e-16
0.00840003
4.53197e-17
0.00840003
-2.27411e-17
0.00840003
1.57209e-17
0.00840003
1.18151e-16
2.41886e-16
0.00840003
0.00840003
0.00840003
0.00840003
0.00840003
0.00840003
0.00840003
0.00840003
0.00840003
0.00840003
0.00840003
0.00840003
0.00840003
0.00840003
0.00840003
0.00840003
0.00840003
0.00840003
0.00840003
0.00840003
0.00840003
0.00840003
0.00840003
0.00840003
0.00840003
0.00840003
0.00451218
0.0038889
0.00298686
0.00152498
0.00232354
0.000661602
0.00206002
0.000257931
0.00201769
3.66437e-05
0.00215427
-0.000142458
0.00233341
-0.000184925
0.00245977
-0.000132797
0.00252907
-7.73851e-05
0.00255062
-2.98075e-05
0.00253861
3.43439e-06
0.00250546
2.37254e-05
0.00248335
1.28017e-05
0.00247497
2.11238e-07
0.00248258
-1.35201e-05
0.0024957
-1.65833e-05
0.00251137
-1.75418e-05
0.00252638
-1.59196e-05
0.00253945
-1.33406e-05
0.00255013
-1.11165e-05
0.00255817
-9.89985e-06
0.00256392
-9.68643e-06
0.00256856
-1.01069e-05
0.00257342
-1.07039e-05
0.00257957
-1.11506e-05
0.00258795
-1.13071e-05
0.00259906
-1.11571e-05
0.00261237
-1.07573e-05
0.00262641
-1.01972e-05
0.00263956
-9.50812e-06
0.00265005
-8.78799e-06
0.00265649
-8.21391e-06
0.00266019
-7.64507e-06
0.00266277
-7.06523e-06
0.00266303
-6.98823e-06
0.00266092
-7.30314e-06
0.00265947
-7.51571e-06
0.00266038
-7.69421e-06
0.00266462
-8.07598e-06
0.00267338
-8.75396e-06
0.00268589
-9.67485e-06
0.00270625
-1.07525e-05
0.00274333
-1.16743e-05
0.00282328
-1.24052e-05
0.00293595
-1.47857e-05
0.00307831
-1.72423e-05
0.00325071
-1.9209e-05
0.00345314
-2.14046e-05
0.003684
-2.37817e-05
0.00394013
-2.6248e-05
0.00421746
-2.86877e-05
0.00451095
-3.10418e-05
0.00481473
-3.32644e-05
0.00512228
-3.53016e-05
0.00542678
-3.70956e-05
0.00572168
-3.85922e-05
0.00600129
-3.97413e-05
0.00626137