/*--------------------------------*- C++ -*----------------------------------*\
  =========                 |
  \\      /  F ield         | OpenFOAM: The Open Source CFD Toolbox
   \\    /   O peration     | Website:  https://openfoam.org
    \\  /    A nd           | Version:  13
     \\/     M anipulation  |
\*---------------------------------------------------------------------------*/
FoamFile
{
    format      ascii;
    class       volScalarField;
    location    "0.5";
    object      rho;
}
// * * * * * * * * * * * * * * * * * * * * * * * * * * * * * * * * * * * * * //

dimensions      [1 -3 0 0 0 0 0];

internalField   nonuniform List<scalar> 
5250
(
1.40001
1.40001
1.40001
1.40001
1.40003
1.40007
1.40015
1.40039
1.40097
1.40243
1.40626
1.41551
1.43943
1.49532
1.62544
1.90267
2.70877
5.3058
6.00535
5.75283
5.71449
5.74017
5.6217
5.14343
5.23077
1.40001
1.40001
1.40001
1.40001
1.40003
1.40006
1.40015
1.40038
1.40095
1.40238
1.40615
1.41522
1.43875
1.49373
1.62203
1.89535
2.68736
5.24735
6.01591
5.75325
5.71358
5.74008
5.62858
5.14857
5.23039
1.40001
1.40001
1.40001
1.40001
1.40003
1.40006
1.40014
1.40037
1.40089
1.40234
1.40581
1.41486
1.43701
1.49086
1.61457
1.88037
2.64258
5.11201
6.03822
5.75262
5.70518
5.73045
5.63211
5.14913
5.21971
1.40001
1.40001
1.40001
1.40001
1.40002
1.40006
1.40013
1.40035
1.40084
1.40221
1.40546
1.41404
1.43487
1.48601
1.60387
1.85741
2.57457
4.89598
6.07696
5.75492
5.6892
5.7106
5.63257
5.14206
5.19817
1.40001
1.40001
1.40001
1.40001
1.40002
1.40006
1.40012
1.40033
1.40077
1.40205
1.40502
1.41297
1.43214
1.47964
1.58979
1.82715
2.48504
4.59673
6.13035
5.7618
5.66601
5.68175
5.62651
5.13857
5.17059
1.40001
1.40001
1.40001
1.40001
1.40002
1.40005
1.40011
1.4003
1.4007
1.40187
1.4045
1.4118
1.42885
1.47217
1.5724
1.79037
2.37006
4.21976
6.18652
5.77175
5.63751
5.6417
5.60603
5.1228
5.12533
1.40001
1.40001
1.40001
1.40001
1.40002
1.40005
1.4001
1.40028
1.40063
1.4017
1.404
1.41055
1.42542
1.46396
1.55255
1.74881
2.22676
3.77676
6.22422
5.78957
5.60229
5.58736
5.56793
5.11067
5.06734
1.40001
1.40001
1.40001
1.40001
1.40002
1.40005
1.40009
1.40026
1.40055
1.40157
1.40348
1.40961
1.42221
1.45696
1.53335
1.70659
2.06419
3.27089
6.20438
5.791
5.54402
5.51809
5.50252
5.06827
4.9665
1.40001
1.40001
1.40001
1.40001
1.40002
1.40004
1.40008
1.40023
1.40048
1.40141
1.40305
1.40865
1.41947
1.45113
1.51792
1.67516
1.95149
2.96198
5.99995
5.73095
5.4627
5.42725
5.39844
5.00794
4.83445
1.40001
1.40001
1.40001
1.40001
1.40002
1.40004
1.40007
1.4002
1.40042
1.40121
1.40263
1.4075
1.41683
1.4447
1.503
1.64307
1.90972
2.7323
5.55806
5.57677
5.41782
5.30509
5.24532
4.89812
4.55429
1.40001
1.40001
1.40001
1.40001
1.40001
1.40003
1.40006
1.40016
1.40035
1.40101
1.40221
1.40626
1.4142
1.43791
1.48789
1.60945
1.86218
2.54029
4.99266
5.48497
5.3488
5.17214
5.06204
4.64703
3.82831
1.40001
1.40001
1.40001
1.40001
1.40001
1.40002
1.40005
1.40012
1.40031
1.40072
1.402
1.40459
1.41253
1.4293
1.47467
1.57328
1.79121
2.37575
4.29672
5.41779
5.27082
5.04065
4.88123
4.45737
3.61566
1.40001
1.40001
1.40001
1.40001
1.40001
1.40002
1.40004
1.4001
1.40022
1.40063
1.40135
1.40399
1.4087
1.42438
1.45587
1.5402
1.71282
2.18597
3.452
5.32597
5.19154
4.91945
4.74935
4.34839
3.63027
1.40001
1.40001
1.40001
1.40001
1.40001
1.40002
1.40004
1.40007
1.4002
1.40042
1.4012
1.40268
1.40752
1.41721
1.4454
1.50561
1.64837
1.95174
2.75035
5.13782
5.09685
4.911
4.64998
4.31748
3.74179
1.40001
1.40001
1.40001
1.40001
1.40001
1.40001
1.40003
1.40006
1.40014
1.40033
1.40088
1.40204
1.40563
1.41303
1.43455
1.48122
1.59488
1.83282
2.44784
4.54403
4.96578
4.85766
4.59078
4.26306
3.80157
1.40001
1.40001
1.40001
1.40001
1.40001
1.40001
1.40002
1.40004
1.40009
1.40025
1.40057
1.40158
1.40372
1.40994
1.42395
1.46094
1.54475
1.73023
2.22524
3.6027
4.85401
4.7837
4.56263
4.22358
3.83204
1.40001
1.40001
1.40001
1.40001
1.40001
1.40001
1.40001
1.40003
1.40007
1.40018
1.40039
1.40114
1.40247
1.40716
1.41601
1.44322
1.49962
1.63655
1.93164
2.60842
4.67068
4.71738
4.59013
4.26256
3.87383
1.40001
1.40001
1.40001
1.40001
1.40001
1.40001
1.40001
1.40002
1.40005
1.40011
1.4003
1.40068
1.40189
1.40441
1.41187
1.42832
1.47173
1.56827
1.78123
2.29016
4.01731
4.61909
4.53626
4.28394
3.89943
1.40001
1.40001
1.40001
1.40001
1.40001
1.40001
1.40001
1.40002
1.40003
1.40008
1.40018
1.40047
1.40116
1.40293
1.40744
1.41835
1.44594
1.51078
1.65661
1.98231
2.82523
4.4654
4.45547
4.33275
3.99243
1.40001
1.40001
1.40001
1.40001
1.40001
1.40001
1.40001
1.40001
1.40002
1.40005
1.40012
1.40029
1.40075
1.40187
1.40468
1.41191
1.42947
1.47245
1.57304
1.78415
2.28713
3.93679
4.38656
4.32069
4.10382
1.40001
1.40001
1.40001
1.40001
1.40001
1.40001
1.40001
1.40001
1.40002
1.40004
1.40007
1.40019
1.40042
1.4012
1.40266
1.40748
1.41701
1.44523
1.50484
1.64822
1.94245
2.72366
4.23067
4.27634
4.17076
1.40001
1.40001
1.40001
1.40001
1.40001
1.40001
1.40001
1.40001
1.40001
1.40002
1.40004
1.40011
1.40026
1.40068
1.40166
1.40424
1.41063
1.42666
1.46531
1.55751
1.74836
2.19546
3.63038
4.17984
4.15086
1.40001
1.40001
1.40001
1.40001
1.40001
1.40001
1.40001
1.40001
1.40001
1.40001
1.40003
1.40006
1.40016
1.40035
1.40101
1.40225
1.40635
1.41439
1.43861
1.48895
1.61237
1.84203
2.40904
3.96119
4.10625
1.40001
1.40001
1.40001
1.40001
1.40001
1.40001
1.40001
1.40001
1.40001
1.40001
1.40002
1.40004
1.40008
1.40021
1.40049
1.40136
1.40309
1.40863
1.41985
1.45236
1.52283
1.68087
2.0253
3.04804
3.97103
1.40001
1.40001
1.40001
1.40001
1.40001
1.40001
1.40001
1.40001
1.40001
1.40001
1.40001
1.40002
1.40004
1.40012
1.40025
1.40074
1.40159
1.40469
1.41034
1.42894
1.4662
1.56578
1.74704
2.17718
3.49532
1.40001
1.40001
1.40001
1.40001
1.40001
1.40001
1.40001
1.40001
1.40001
1.40001
1.40001
1.40001
1.40003
1.40005
1.40015
1.40032
1.40094
1.40205
1.40594
1.41324
1.43625
1.48288
1.59869
1.78873
2.31914
1.40001
1.40001
1.40001
1.40001
1.40001
1.40001
1.40001
1.40001
1.40001
1.40001
1.40001
1.40001
1.40002
1.40003
1.40007
1.40016
1.40044
1.40101
1.40283
1.40638
1.41776
1.44046
1.50426
1.62719
1.88753
1.40001
1.40001
1.40001
1.40001
1.40001
1.40001
1.40001
1.40001
1.40001
1.40001
1.40001
1.40001
1.40001
1.40002
1.40003
1.40009
1.40018
1.40053
1.40114
1.40336
1.40739
1.42107
1.4475
1.52389
1.66014
1.40001
1.40001
1.40001
1.40001
1.40001
1.40001
1.40001
1.40001
1.40001
1.40001
1.40001
1.40001
1.40001
1.40001
1.40002
1.40004
1.40008
1.40023
1.40051
1.40149
1.40325
1.40954
1.4214
1.45797
1.53391
1.40001
1.40001
1.40001
1.40001
1.40001
1.40001
1.40001
1.40001
1.40001
1.40001
1.40001
1.40001
1.40001
1.40001
1.40001
1.40002
1.40004
1.40009
1.40025
1.40055
1.40156
1.4036
1.41
1.42351
1.46198
1.40001
1.40001
1.40001
1.40001
1.40001
1.40001
1.40001
1.40001
1.40001
1.40001
1.40001
1.40001
1.40001
1.40001
1.40001
1.40001
1.40002
1.40004
1.4001
1.40022
1.40063
1.4014
1.40407
1.40932
1.42588
1.40001
1.40001
1.40001
1.40001
1.40001
1.40001
1.40001
1.40001
1.40001
1.40001
1.40001
1.40001
1.40001
1.40001
1.40001
1.40001
1.40001
1.40002
1.40004
1.4001
1.40021
1.40061
1.40135
1.40396
1.40898
1.40001
1.40001
1.40001
1.40001
1.40001
1.40001
1.40001
1.40001
1.40001
1.40001
1.40001
1.40001
1.40001
1.40001
1.40001
1.40001
1.40001
1.40001
1.40002
1.40004
1.40008
1.40021
1.4005
1.40135
1.40332
1.40001
1.40001
1.40001
1.40001
1.40001
1.40001
1.40001
1.40001
1.40001
1.40001
1.40001
1.40001
1.40001
1.40001
1.40001
1.40001
1.40001
1.40001
1.40001
1.40001
1.40003
1.40007
1.40019
1.40041
1.40122
1.40001
1.40001
1.40001
1.40001
1.40001
1.40001
1.40001
1.40001
1.40001
1.40001
1.40001
1.40001
1.40001
1.40001
1.40001
1.40001
1.40001
1.40001
1.40001
1.40001
1.40001
1.40003
1.40005
1.40014
1.40034
1.40001
1.40001
1.40001
1.40001
1.40001
1.40001
1.40001
1.40001
1.40001
1.40001
1.40001
1.40001
1.40001
1.40001
1.40001
1.40001
1.40001
1.40001
1.40001
1.40001
1.40001
1.40001
1.40002
1.40005
1.4001
1.40001
1.40001
1.40001
1.40001
1.40001
1.40001
1.40001
1.40001
1.40001
1.40001
1.40001
1.40001
1.40001
1.40001
1.40001
1.40001
1.40001
1.40001
1.40001
1.40001
1.40001
1.40001
1.40001
1.40001
1.40003
1.40001
1.40001
1.40001
1.40001
1.40001
1.40001
1.40001
1.40001
1.40001
1.40001
1.40001
1.40001
1.40001
1.40001
1.40001
1.40001
1.40001
1.40001
1.40001
1.40001
1.40001
1.40001
1.40001
1.40001
1.40001
1.40001
1.40001
1.40001
1.40001
1.40001
1.40001
1.40001
1.40001
1.40001
1.40001
1.40001
1.40001
1.40001
1.40001
1.40001
1.40001
1.40001
1.40001
1.40001
1.40001
1.40001
1.40001
1.40001
1.40001
1.40001
1.40001
1.40001
1.40001
1.40001
1.40001
1.40001
1.40001
1.40001
1.40001
1.40001
1.40001
1.40001
1.40001
1.40001
1.40001
1.40001
1.40001
1.40001
1.40001
1.40001
1.40001
1.40001
1.40001
1.40001
1.40001
1.40001
1.40001
1.40001
1.40001
1.40001
1.40001
1.40001
1.40001
1.40001
1.40001
1.40001
1.40001
1.40001
1.40001
1.40001
1.40001
1.40001
1.40001
1.40001
1.40001
1.40001
1.40001
1.40001
1.40001
1.40001
1.40001
1.40001
1.40001
1.40001
1.40001
1.40001
1.40001
1.40001
1.40001
1.40001
1.40001
1.40001
1.40001
1.40001
1.40001
1.40001
1.40001
1.40001
1.40001
1.40001
1.40001
1.40001
1.40001
1.40001
1.40001
1.40001
1.40001
1.40001
1.40001
1.40001
1.40001
1.40001
1.40001
1.40001
1.40001
1.40001
1.40001
1.40001
1.40001
1.40001
1.40001
1.40001
1.40001
1.40001
1.40001
1.40001
1.40001
1.40001
1.40001
1.40001
1.40001
1.40001
1.40001
1.40001
1.40001
1.40001
1.40001
1.40001
1.40001
1.40001
1.40001
1.40001
1.40001
1.40001
1.40001
1.40001
1.40001
1.40001
1.40001
1.40001
1.40001
1.40001
1.40001
1.40001
1.40001
1.40001
1.40001
1.40001
1.40001
1.40001
1.40001
1.40001
1.40001
1.40001
1.40001
1.40001
1.40001
1.40001
1.40001
1.40001
1.40001
1.40001
1.40001
1.40001
1.40001
1.40001
1.40001
1.40001
1.40001
1.40001
1.40001
1.40001
1.40001
1.40001
1.40001
1.40001
1.40001
1.40001
1.40001
1.40001
1.40001
1.40001
1.40001
1.40001
1.40001
1.40001
1.40001
1.40001
1.40001
1.40001
1.40001
1.40001
1.40001
1.40001
1.40001
1.40001
1.40001
1.40001
1.40001
1.40001
1.40001
1.40001
1.40001
1.40001
1.40001
1.40001
1.40001
1.40001
1.40001
1.40001
1.40001
1.40001
1.40001
1.40001
1.40001
1.40001
1.40001
1.40001
1.40001
1.40001
1.40001
1.40001
1.40001
1.40001
1.40001
1.40001
1.40001
1.40001
1.40001
1.40001
1.40001
1.40001
1.40001
1.40001
1.40001
1.40001
1.40001
1.40001
1.40001
1.40001
1.40001
1.40001
1.40001
1.40001
1.40001
1.40001
1.40001
1.40001
1.40001
1.40001
1.40001
1.40001
1.40001
1.40001
1.40001
1.40001
1.40001
1.40001
1.40001
1.40001
1.40001
1.40001
1.40001
1.40001
1.40001
1.40001
1.40001
1.40001
1.40001
1.40001
1.40001
1.40001
1.40001
1.40001
1.40001
1.40001
1.40001
1.40001
1.40001
1.40001
1.40001
1.40001
1.40001
1.40001
1.40001
1.40001
1.40001
1.40001
1.40001
1.40001
1.40001
1.40001
1.40001
1.40001
1.40001
1.61544
0.868209
0.594649
0.502527
0.498266
0.512509
0.557736
0.603672
0.619774
0.620222
0.616898
0.60643
0.593411
0.584155
0.579941
0.577703
0.576186
0.57432
0.571739
0.568497
0.564713
0.560495
0.556134
0.552005
0.548377
0.545444
0.543373
0.542155
0.541518
0.541072
0.540465
0.53931
0.53754
0.535623
0.533633
0.53127
0.528871
0.527072
0.52585
0.52538
0.52574
0.5271
0.530479
0.539246
0.556039
0.578178
0.605614
0.638349
0.676142
0.718396
0.764329
0.813033
0.863463
0.914481
0.964884
1.01352
1.05937
1.10163
1.1398
1.17368
1.20339
1.22922
1.25158
1.27097
1.28794
1.30311
1.31703
1.33012
1.34256
1.35437
1.3654
1.37546
1.38444
1.39224
1.39884
1.40439
1.40908
1.41294
1.41593
1.41792
1.4182
1.41658
1.41509
1.41333
1.41132
1.40925
1.40729
1.40558
1.40415
1.40301
1.40212
1.40145
1.40096
1.40063
1.4004
1.40025
1.40015
1.40009
1.40005
1.40002
2.05272
1.30262
0.972168
0.825703
0.758921
0.713002
0.682452
0.668992
0.669378
0.671009
0.675634
0.675513
0.674244
0.670563
0.661426
0.65102
0.642646
0.636649
0.632251
0.628509
0.624688
0.620491
0.615977
0.611319
0.606644
0.602161
0.598171
0.594967
0.592745
0.591557
0.591254
0.591509
0.591854
0.591762
0.591043
0.589996
0.58912
0.588459
0.587362
0.585963
0.585509
0.586351
0.58803
0.591319
0.599191
0.613164
0.63281
0.657548
0.68704
0.720972
0.758956
0.80036
0.844374
0.890055
0.936436
0.982601
1.02771
1.07101
1.11184
1.14969
1.18421
1.21533
1.24318
1.26809
1.29038
1.31036
1.32826
1.34427
1.35863
1.37151
1.38299
1.39301
1.40146
1.40829
1.41358
1.41758
1.42067
1.42301
1.42462
1.42532
1.42412
1.42181
1.4194
1.41673
1.41396
1.4113
1.40889
1.40681
1.40506
1.40365
1.40257
1.40178
1.40121
1.4008
1.40053
1.40034
1.40021
1.40013
1.40008
1.40004
2.57524
1.84038
1.38975
1.11101
0.932546
0.817223
0.744862
0.698968
0.687905
0.689016
0.692615
0.70038
0.704348
0.704476
0.703114
0.6986
0.688942
0.679388
0.671279
0.665294
0.6602
0.655386
0.650464
0.645442
0.640408
0.635664
0.631327
0.627532
0.624474
0.622154
0.620542
0.619846
0.62011
0.620764
0.621306
0.621827
0.622616
0.623695
0.624408
0.624787
0.625362
0.626631
0.628526
0.632225
0.63962
0.6519
0.669257
0.691638
0.718858
0.750656
0.786645
0.826268
0.868794
0.913349
0.958994
1.00478
1.04983
1.09336
1.13465
1.17307
1.2081
1.2395
1.26725
1.29161
1.31294
1.33168
1.34818
1.3627
1.37543
1.38655
1.39619
1.40443
1.41121
1.41648
1.4203
1.42294
1.42482
1.42617
1.427
1.427
1.4254
1.42275
1.42001
1.41709
1.41415
1.41137
1.40889
1.40676
1.40499
1.40358
1.40251
1.40173
1.40117
1.40077
1.4005
1.40032
1.4002
1.40012
1.40007
1.40003
2.94101
2.25023
1.74772
1.40309
1.17021
1.01118
0.903735
0.834295
0.786169
0.755629
0.740678
0.734241
0.733341
0.733212
0.731695
0.730036
0.72683
0.720462
0.711144
0.701806
0.693166
0.685677
0.678914
0.673167
0.667987
0.663373
0.659028
0.655022
0.651471
0.648541
0.646298
0.645008
0.644964
0.645916
0.647243
0.648637
0.650281
0.652237
0.653644
0.654354
0.654998
0.656288
0.658405
0.662194
0.669754
0.68308
0.702448
0.727572
0.757999
0.793167
0.832297
0.874455
0.918593
0.963641
1.00854
1.05231
1.09411
1.13334
1.16961
1.20278
1.23283
1.25981
1.28388
1.30525
1.32421
1.34113
1.35633
1.37003
1.38234
1.39323
1.40263
1.4105
1.41689
1.42184
1.42544
1.42796
1.42969
1.43074
1.431
1.43009
1.42831
1.42516
1.4219
1.41857
1.4153
1.41227
1.40956
1.40724
1.40533
1.40383
1.4027
1.40187
1.40128
1.40085
1.40056
1.40036
1.40023
1.40015
1.40009
1.40004
3.1668
2.54794
2.04779
1.67317
1.40283
1.20688
1.06243
0.957317
0.881558
0.827794
0.791025
0.765648
0.750959
0.74357
0.739654
0.736652
0.734684
0.732768
0.729305
0.723055
0.716069
0.70813
0.700739
0.693623
0.687288
0.681895
0.677342
0.67323
0.669775
0.667084
0.665051
0.663866
0.663816
0.664736
0.666165
0.667903
0.670128
0.672837
0.674908
0.676215
0.677534
0.67981
0.683952
0.692818
0.706733
0.725394
0.748732
0.77658
0.808563
0.844103
0.882469
0.922814
0.964306
1.00609
1.04735
1.08735
1.12541
1.16103
1.19391
1.22394
1.2512
1.27584
1.29803
1.31795
1.33577
1.35172
1.36604
1.37894
1.39054
1.40082
1.40969
1.41704
1.42279
1.42697
1.42978
1.43154
1.43261
1.433
1.43259
1.43147
1.42947
1.42578
1.42222
1.41869
1.41529
1.41217
1.40942
1.40709
1.40519
1.40371
1.40261
1.4018
1.40122
1.40081
1.40053
1.40034
1.40022
1.40013
1.40008
1.40004
3.32505
2.79681
2.32516
1.94329
1.64663
1.42001
1.2503
1.12084
1.02138
0.944899
0.885037
0.840969
0.806393
0.780648
0.763996
0.754352
0.748911
0.747139
0.74607
0.744372
0.740957
0.734965
0.727912
0.720559
0.71336
0.706469
0.700404
0.695123
0.690779
0.687682
0.685601
0.684404
0.684414
0.685558
0.687051
0.688574
0.690497
0.693292
0.696025
0.698134
0.700657
0.705412
0.713973
0.726928
0.744554
0.76678
0.793174
0.823228
0.85644
0.892194
0.929802
0.968504
1.00763
1.04651
1.08457
1.12115
1.15567
1.18772
1.21704
1.24357
1.26748
1.28905
1.30859
1.32638
1.34261
1.35739
1.37083
1.38306
1.39415
1.40413
1.41284
1.42013
1.42583
1.42995
1.4327
1.43435
1.43502
1.43513
1.43497
1.43379
1.43128
1.42706
1.42318
1.41943
1.41585
1.41258
1.40971
1.40728
1.40532
1.40382
1.40269
1.40186
1.40127
1.40085
1.40056
1.40037
1.40023
1.40015
1.40009
1.40005
3.43207
2.9773
2.55347
2.18726
1.88536
1.64282
1.45118
1.29948
1.17811
1.07853
0.996952
0.929152
0.874527
0.832893
0.802205
0.781509
0.768297
0.760939
0.756896
0.754275
0.752322
0.749543
0.7456
0.740369
0.73422
0.727586
0.720939
0.714602
0.709135
0.705299
0.702802
0.70132
0.701046
0.701954
0.703332
0.704625
0.706459
0.709789
0.714025
0.718798
0.72483
0.733525
0.746181
0.763205
0.784737
0.810347
0.839334
0.870874
0.904328
0.939002
0.974734
1.01067
1.04656
1.08186
1.11589
1.14831
1.17899
1.2077
1.23427
1.25854
1.28037
1.30002
1.31791
1.3344
1.34963
1.36372
1.37668
1.38853
1.39928
1.40892
1.41735
1.42437
1.42978
1.43351
1.4357
1.43675
1.43727
1.43748
1.43697
1.43527
1.43186
1.42747
1.42339
1.41945
1.41575
1.4124
1.4095
1.40708
1.40515
1.40368
1.40258
1.40178
1.40121
1.40081
1.40053
1.40034
1.40022
1.40014
1.40008
1.40004
3.50993
3.12558
2.75165
2.40994
2.11407
1.8653
1.65748
1.4851
1.34072
1.22029
1.11885
1.03574
0.967897
0.914308
0.872517
0.840564
0.816882
0.799062
0.786133
0.777663
0.772441
0.768967
0.765833
0.762239
0.75784
0.752323
0.746083
0.740014
0.734374
0.729063
0.72475
0.721924
0.720344
0.720167
0.721147
0.7228
0.725265
0.729859
0.736828
0.745416
0.755469
0.767862
0.783864
0.803787
0.827649
0.85489
0.884712
0.916257
0.948825
0.981866
1.01508
1.04822
1.08101
1.11305
1.14394
1.17331
1.20092
1.22661
1.25016
1.27166
1.29159
1.30992
1.32652
1.34171
1.356
1.36954
1.38217
1.39373
1.40411
1.41328
1.42121
1.4278
1.43289
1.43636
1.43839
1.43947
1.44
1.43991
1.43897
1.43672
1.43256
1.42817
1.42389
1.41975
1.4159
1.41246
1.4095
1.40706
1.40514
1.40367
1.40258
1.40179
1.40122
1.40082
1.40054
1.40035
1.40023
1.40014
1.40009
1.40005
3.60118
3.23931
2.90873
2.59845
2.31558
2.06499
1.84867
1.66136
1.50171
1.36417
1.24817
1.15114
1.07158
1.00701
0.954031
0.911032
0.87562
0.846969
0.824796
0.807672
0.795224
0.786367
0.77951
0.774371
0.770037
0.765741
0.761057
0.756286
0.751626
0.747479
0.744289
0.741822
0.740064
0.739414
0.740286
0.742688
0.746725
0.753116
0.762872
0.774966
0.788679
0.80433
0.823016
0.845167
0.870279
0.897919
0.927379
0.957909
0.988774
1.01951
1.04975
1.07941
1.10853
1.13709
1.16474
1.19103
1.21565
1.23859
1.25995
1.27974
1.29791
1.31478
1.33073
1.34568
1.35966
1.37303
1.38581
1.39769
1.40835
1.41754
1.4252
1.43135
1.43605
1.43933
1.44141
1.44252
1.44274
1.4421
1.44029
1.43682
1.4325
1.42815
1.42377
1.41954
1.41563
1.41216
1.40921
1.40681
1.40494
1.40352
1.40247
1.4017
1.40116
1.40077
1.40051
1.40033
1.40021
1.40013
1.40008
1.40004
3.70468
3.36672
3.05037
2.7587
2.48897
2.24198
2.01992
1.82302
1.65143
1.50365
1.37833
1.27246
1.18431
1.11
1.04758
0.994055
0.949003
0.911265
0.87971
0.854609
0.83437
0.818298
0.806139
0.796097
0.787942
0.781775
0.776938
0.773077
0.770216
0.767954
0.766045
0.764816
0.764382
0.764886
0.767057
0.771372
0.777954
0.786846
0.798417
0.812885
0.829047
0.846394
0.865474
0.887112
0.911482
0.937768
0.965538
0.994221
1.02307
1.05133
1.07858
1.10506
1.13104
1.15649
1.18121
1.20488
1.22714
1.24781
1.26698
1.28495
1.30191
1.31786
1.33286
1.34722
1.36103
1.37433
1.38727
1.39957
1.41073
1.42033
1.42814
1.43411
1.43844
1.44156
1.44374
1.44495
1.44498
1.44393
1.44145
1.43718
1.43275
1.42823
1.4237
1.41937
1.41541
1.41193
1.40899
1.40664
1.40481
1.40343
1.4024
1.40166
1.40113
1.40076
1.4005
1.40032
1.40021
1.40013
1.40008
1.40004
3.88071
3.50199
3.19149
2.90786
2.64207
2.39786
2.17452
1.97339
1.79502
1.6399
1.50657
1.39382
1.2976
1.21558
1.14439
1.08261
1.02916
0.983255
0.944455
0.911274
0.883486
0.860028
0.839894
0.823899
0.81086
0.800496
0.793532
0.788986
0.786151
0.785118
0.785347
0.786706
0.789417
0.79334
0.798316
0.805113
0.814218
0.825329
0.838246
0.853209
0.869876
0.887866
0.907173
0.928003
0.950902
0.975474
1.00174
1.02899
1.05613
1.08229
1.10732
1.13144
1.15475
1.17734
1.19921
1.22021
1.24008
1.25865
1.27587
1.29189
1.30712
1.32182
1.33597
1.34958
1.36271
1.37555
1.38822
1.40063
1.4122
1.42226
1.43041
1.4365
1.44071
1.44349
1.44533
1.44634
1.44632
1.44522
1.44265
1.43794
1.43294
1.42809
1.42337
1.41893
1.41494
1.41148
1.40861
1.40632
1.40457
1.40325
1.40227
1.40156
1.40106
1.40071
1.40047
1.4003
1.40019
1.40012
1.40008
1.40004
3.99891
3.67448
3.33703
3.04862
2.79003
2.54472
2.32042
2.11665
1.93503
1.77599
1.63767
1.51791
1.41377
1.32328
1.24369
1.17473
1.11369
1.06194
1.01612
0.97726
0.94284
0.912982
0.887282
0.865054
0.846917
0.832974
0.821916
0.814537
0.810386
0.808427
0.809132
0.811871
0.816081
0.82202
0.829432
0.838289
0.849111
0.862232
0.876664
0.891868
0.908293
0.926289
0.945568
0.966199
0.988011
1.01127
1.03646
1.06282
1.08896
1.11397
1.13759
1.16007
1.18165
1.20239
1.22217
1.2409
1.25861
1.27531
1.29087
1.30534
1.31883
1.33176
1.34447
1.357
1.36919
1.38103
1.39271
1.40434
1.41555
1.42554
1.43367
1.43971
1.44384
1.44625
1.44743
1.4479
1.44776
1.44675
1.44406
1.43878
1.43317
1.42795
1.42301
1.41847
1.41446
1.41104
1.40824
1.40604
1.40435
1.40309
1.40216
1.40149
1.40101
1.40067
1.40044
1.40029
1.40019
1.40012
1.40007
1.40004
4.0358
3.84506
3.50885
3.20093
2.93002
2.69006
2.46425
2.25892
2.07488
1.91198
1.76912
1.64364
1.53271
1.43443
1.3474
1.27111
1.20418
1.14588
1.095
1.05055
1.01077
0.976187
0.944981
0.918406
0.895593
0.87682
0.862262
0.851138
0.843297
0.839214
0.837597
0.839048
0.843123
0.84895
0.856724
0.866491
0.877542
0.891063
0.906371
0.921928
0.937876
0.955499
0.97528
0.996161
1.01753
1.04017
1.06479
1.09077
1.11628
1.14051
1.16328
1.18462
1.20485
1.22405
1.24231
1.25965
1.27576
1.29069
1.30474
1.31814
1.33095
1.34326
1.35529
1.36719
1.37877
1.38989
1.40062
1.41116
1.42147
1.43093
1.43886
1.44474
1.44839
1.45015
1.45069
1.45068
1.45004
1.44804
1.44391
1.43814
1.43267
1.42734
1.42231
1.41777
1.4138
1.41046
1.40777
1.40567
1.40408
1.40288
1.40201
1.40138
1.40093
1.40062
1.40041
1.40027
1.40017
1.40011
1.40007
1.40004
4.01089
3.9185
3.69034
3.3751
3.08766
2.83457
2.61247
2.40917
2.22295
2.0553
1.90504
1.77159
1.65315
1.54789
1.45463
1.37242
1.30051
1.23733
1.18188
1.13213
1.08833
1.04805
1.01356
0.982241
0.95594
0.933889
0.915288
0.901195
0.890115
0.88231
0.877822
0.875755
0.876647
0.880917
0.886776
0.894949
0.905696
0.917706
0.931221
0.946621
0.962039
0.977787
0.995423
1.01532
1.03613
1.05735
1.08028
1.10462
1.12858
1.1513
1.17257
1.19249
1.21147
1.22976
1.2474
1.26434
1.28047
1.29575
1.31027
1.32395
1.33723
1.35018
1.36271
1.3748
1.38677
1.39844
1.40937
1.41947
1.42892
1.4377
1.44528
1.45094
1.4542
1.4554
1.45541
1.45457
1.45227
1.44801
1.44286
1.4375
1.43196
1.42654
1.42149
1.41698
1.4131
1.40987
1.4073
1.40531
1.40381
1.40269
1.40187
1.40128
1.40087
1.40058
1.40038
1.40025
1.40016
1.4001
1.40007
1.40004
3.92594
3.91905
3.8118
3.566
3.26594
3.00214
2.76871
2.56155
2.37579
2.2054
2.0497
1.9083
1.78087
1.66757
1.56778
1.48022
1.40361
1.336
1.27595
1.222
1.17335
1.12963
1.09057
1.05627
1.02669
1.00092
0.980121
0.962045
0.948071
0.937332
0.928996
0.924494
0.92156
0.921309
0.924614
0.929689
0.936592
0.946202
0.957183
0.969289
0.984114
0.999139
1.01425
1.03147
1.05044
1.06835
1.08721
1.10794
1.1285
1.14813
1.16651
1.18388
1.20079
1.21763
1.23454
1.25139
1.26807
1.28451
1.30062
1.31641
1.33186
1.34694
1.36168
1.37603
1.38973
1.40257
1.41452
1.42533
1.43488
1.44326
1.4504
1.45582
1.4591
1.46018
1.45951
1.45729
1.45285
1.44763
1.44228
1.43665
1.43095
1.42547
1.42045
1.41603
1.41227
1.40919
1.40677
1.40491
1.40351
1.40247
1.40171
1.40117
1.40079
1.40053
1.40035
1.40023
1.40014
1.40009
1.40006
1.40003
3.65219
3.85123
3.8262
3.70761
3.46453
3.18859
2.94313
2.72582
2.53117
2.35632
2.19687
2.05039
1.91688
1.797
1.69073
1.5973
1.51518
1.44245
1.37756
1.31907
1.26629
1.21882
1.17637
1.13905
1.10615
1.07804
1.05344
1.03325
1.01596
1.00218
0.991742
0.983322
0.978425
0.975506
0.973697
0.97532
0.978478
0.983215
0.990813
0.999642
1.00983
1.02185
1.03622
1.05041
1.06581
1.08182
1.09726
1.11385
1.13165
1.14761
1.16239
1.17632
1.19019
1.20456
1.21961
1.23532
1.2516
1.26829
1.28534
1.30265
1.32002
1.33732
1.35433
1.37088
1.38674
1.40173
1.41543
1.42757
1.43799
1.44657
1.45341
1.45858
1.46196
1.46313
1.46208
1.45893
1.45326
1.44746
1.4416
1.43563
1.42976
1.42424
1.41928
1.41498
1.41138
1.40849
1.40623
1.4045
1.4032
1.40225
1.40156
1.40106
1.40072
1.40048
1.40031
1.4002
1.40013
1.40008
1.40005
1.40003
2.63562
3.65332
3.77328
3.74262
3.62426
3.38257
3.12885
2.90295
2.69988
2.51528
2.34732
2.19528
2.0575
1.93315
1.8218
1.72289
1.63526
1.5572
1.48721
1.42403
1.36706
1.31578
1.27005
1.2295
1.19381
1.16268
1.1356
1.11238
1.09266
1.07615
1.06273
1.05221
1.0439
1.03826
1.03463
1.03226
1.03199
1.0328
1.03542
1.04107
1.04802
1.05585
1.06674
1.07777
1.08975
1.10294
1.1147
1.12521
1.13894
1.15259
1.16458
1.17605
1.18776
1.20031
1.21389
1.22837
1.24365
1.25973
1.27653
1.29391
1.3117
1.32965
1.34762
1.3654
1.38262
1.39888
1.41385
1.42717
1.43845
1.44761
1.45456
1.45945
1.46267
1.4639
1.46299
1.45984
1.45367
1.44702
1.44061
1.43432
1.4283
1.4228
1.41795
1.41381
1.41042
1.40773
1.40565
1.40406
1.40288
1.40202
1.40139
1.40095
1.40064
1.40043
1.40028
1.40018
1.40012
1.40008
1.40005
1.40003
1.98411
2.88189
3.6232
3.70527
3.66716
3.55114
3.3205
3.08799
2.87699
2.68541
2.50944
2.34897
2.20407
2.07437
1.95854
1.85517
1.76247
1.67924
1.60417
1.53638
1.47519
1.4202
1.37111
1.32746
1.28891
1.25494
1.22516
1.19918
1.17671
1.15759
1.14148
1.12826
1.11757
1.10891
1.10262
1.09782
1.09471
1.09371
1.09385
1.09481
1.09897
1.10414
1.11032
1.11875
1.12701
1.1351
1.14469
1.1533
1.16074
1.1715
1.18115
1.18869
1.19751
1.20751
1.21893
1.23166
1.24547
1.26039
1.27632
1.29305
1.31038
1.32819
1.34631
1.36443
1.38209
1.39885
1.41423
1.42793
1.43957
1.4489
1.45571
1.46019
1.46298
1.46414
1.46338
1.46048
1.45439
1.44659
1.43947
1.43279
1.42664
1.42118
1.41649
1.41258
1.40943
1.40696
1.40506
1.40363
1.40256
1.40179
1.40123
1.40084
1.40056
1.40037
1.40025
1.40016
1.4001
1.40007
1.40004
1.40002
1.68586
2.03709
3.01281
3.57281
3.64443
3.59898
3.48821
3.27862
3.06289
2.86287
2.68031
2.51301
2.36077
2.22404
2.10186
1.99287
1.89533
1.80747
1.72791
1.65579
1.59059
1.53193
1.47948
1.43271
1.39116
1.3542
1.32146
1.29253
1.26722
1.24532
1.22651
1.21064
1.19713
1.18605
1.17681
1.16973
1.16445
1.16104
1.15967
1.1602
1.16156
1.16463
1.16747
1.17141
1.17659
1.18115
1.18611
1.19221
1.1969
1.20308
1.21206
1.21851
1.2231
1.23066
1.23995
1.25079
1.26284
1.27607
1.29038
1.30566
1.32175
1.33844
1.35561
1.37283
1.38977
1.40582
1.4205
1.43342
1.44425
1.45283
1.45885
1.46267
1.46493
1.4658
1.465
1.46175
1.45459
1.44561
1.43785
1.43087
1.4247
1.41939
1.41494
1.41131
1.40842
1.40617
1.40447
1.40319
1.40224
1.40156
1.40107
1.40073
1.40049
1.40032
1.40021
1.40014
1.40009
1.40006
1.40004
1.40002
1.54219
1.69628
2.06394
3.05685
3.5124
3.58317
3.53837
3.4359
3.25101
3.05071
2.85931
2.68456
2.52557
2.38196
2.25321
2.13798
2.03456
1.94145
1.85731
1.78114
1.71222
1.65004
1.59419
1.54415
1.49937
1.45925
1.4234
1.39145
1.36324
1.33845
1.31685
1.2981
1.28192
1.26813
1.2565
1.24718
1.23989
1.23492
1.23176
1.23049
1.23053
1.23123
1.23308
1.23441
1.23584
1.238
1.23913
1.24159
1.24518
1.2473
1.25277
1.26013
1.26447
1.26821
1.27463
1.28359
1.29393
1.30536
1.31788
1.33136
1.3458
1.36081
1.37643
1.39193
1.40723
1.42156
1.43449
1.44558
1.45457
1.46132
1.46594
1.46892
1.47067
1.47114
1.46912
1.46256
1.45212
1.4434
1.43557
1.42861
1.42259
1.41754
1.41339
1.41005
1.40743
1.40542
1.4039
1.40277
1.40194
1.40134
1.40092
1.40062
1.40042
1.40028
1.40018
1.40012
1.40008
1.40005
1.40003
1.40002
1.4603
1.548
1.69091
2.07032
3.03155
3.44235
3.52064
3.48194
3.39341
3.23504
3.04929
2.86675
2.69941
2.54827
2.41254
2.29092
2.18156
2.08287
1.99355
1.91262
1.83935
1.77321
1.71368
1.66018
1.61211
1.56881
1.52987
1.49488
1.46368
1.43592
1.41142
1.38981
1.37095
1.35461
1.34082
1.32954
1.32069
1.31416
1.30947
1.30632
1.30388
1.30221
1.30076
1.29986
1.29929
1.29904
1.29967
1.29994
1.30154
1.3033
1.30474
1.30978
1.31539
1.31843
1.32201
1.32778
1.33644
1.34633
1.357
1.36872
1.38114
1.39418
1.40744
1.42063
1.43326
1.44489
1.45533
1.46388
1.47044
1.4751
1.47831
1.4806
1.48149
1.47847
1.46851
1.45845
1.44935
1.44084
1.43308
1.42627
1.4205
1.41574
1.4119
1.40885
1.4065
1.4047
1.40336
1.40237
1.40166
1.40114
1.40078
1.40053
1.40035
1.40023
1.40015
1.4001
1.40007
1.40004
1.40003
1.40002
1.42523
1.45827
1.5434
1.68011
2.04636
2.94589
3.36282
3.45746
3.43017
3.36013
3.22971
3.0575
2.88499
2.72579
2.58188
2.45267
2.33637
2.23139
2.13641
2.05032
1.97221
1.90156
1.83791
1.78063
1.72902
1.68234
1.6401
1.60193
1.56761
1.53687
1.50948
1.48512
1.4638
1.44532
1.42978
1.41695
1.40667
1.39834
1.39143
1.38537
1.38002
1.37534
1.37133
1.36809
1.36528
1.36336
1.36188
1.36097
1.36096
1.36191
1.36294
1.36493
1.37032
1.37455
1.37702
1.38114
1.38712
1.39505
1.40397
1.41336
1.42338
1.43393
1.44463
1.45508
1.46504
1.4737
1.4814
1.48727
1.49154
1.49469
1.49701
1.4952
1.48575
1.47602
1.46627
1.45648
1.44702
1.43831
1.43062
1.42402
1.4185
1.41403
1.4105
1.40774
1.40564
1.40405
1.40287
1.40202
1.4014
1.40096
1.40065
1.40044
1.40029
1.40019
1.40013
1.40008
1.40006
1.40004
1.40003
1.40002
1.40885
1.42175
1.45589
1.52863
1.66458
1.99208
2.80207
3.27112
3.39484
3.38172
3.33036
3.22911
3.0712
2.91111
2.76096
2.62376
2.4996
2.38742
2.28586
2.19384
2.11051
2.03509
1.967
1.90556
1.85004
1.79968
1.75396
1.71248
1.67504
1.64141
1.61138
1.58474
1.56135
1.54112
1.52381
1.50911
1.49646
1.48523
1.47514
1.466
1.45785
1.45061
1.44429
1.43883
1.43421
1.43033
1.42735
1.42508
1.42358
1.42329
1.42364
1.42426
1.42696
1.43132
1.43418
1.43698
1.44108
1.44694
1.45413
1.46159
1.46972
1.47792
1.48605
1.49371
1.50082
1.5067
1.51153
1.51533
1.51784
1.51576
1.50679
1.49777
1.48757
1.4766
1.46542
1.4546
1.44461
1.43574
1.42811
1.42174
1.41655
1.41241
1.40917
1.4067
1.40483
1.40344
1.40243
1.40169
1.40117
1.4008
1.40054
1.40036
1.40024
1.40016
1.4001
1.40007
1.40005
1.40003
1.40002
1.40001
1.40268
1.408
1.41784
1.45002
1.51053
1.63471
1.91717
2.6085
3.16418
3.32779
3.33039
3.2972
3.21808
3.08142
2.93908
2.80072
2.67126
2.55222
2.44358
2.34499
2.25566
2.17463
2.10128
2.03508
1.97535
1.92125
1.87213
1.82756
1.78731
1.75112
1.71876
1.68987
1.66419
1.64148
1.62141
1.60353
1.58759
1.57324
1.56025
1.54844
1.53776
1.52818
1.51971
1.51227
1.50583
1.50035
1.49582
1.49223
1.48952
1.48778
1.48711
1.48685
1.48777
1.49014
1.49293
1.49552
1.49846
1.50219
1.50739
1.51319
1.51894
1.52485
1.53028
1.5353
1.53963
1.54314
1.54451
1.54069
1.53407
1.52549
1.51478
1.50253
1.48946
1.47629
1.46365
1.45201
1.44167
1.43279
1.42537
1.41933
1.41452
1.41076
1.40788
1.40569