/*--------------------------------*- C++ -*----------------------------------*\
  =========                 |
  \\      /  F ield         | OpenFOAM: The Open Source CFD Toolbox
   \\    /   O peration     | Website:  https://openfoam.org
    \\  /    A nd           | Version:  13
     \\/     M anipulation  |
\*---------------------------------------------------------------------------*/
FoamFile
{
    format      ascii;
    class       volScalarField;
    location    "0.5";
    object      T;
}
// * * * * * * * * * * * * * * * * * * * * * * * * * * * * * * * * * * * * * //

dimensions      [0 0 0 1 0 0 0];

internalField   nonuniform List<scalar> 
5250
(
1
1
1
1.00001
1.00001
1.00004
1.00009
1.00027
1.00058
1.00176
1.00381
1.01114
1.0263
1.0731
1.19864
1.56491
2.30773
2.97639
2.9194
2.87213
2.88959
2.93969
3.08474
3.39561
3.37111
1
1
1
1.00001
1.00001
1.00004
1.00009
1.00027
1.00057
1.00173
1.00374
1.01093
1.02582
1.07174
1.19484
1.55488
2.29215
2.97325
2.91764
2.87019
2.88776
2.93791
3.08045
3.3914
3.37072
1
1
1
1.00001
1.00001
1.00004
1.00009
1.00025
1.00055
1.00165
1.00361
1.01053
1.02478
1.06897
1.18681
1.5333
2.25654
2.9656
2.91327
2.86539
2.88296
2.93331
3.07044
3.38123
3.36861
1
1
1
1.00001
1.00001
1.00004
1.00008
1.00024
1.00053
1.00156
1.0034
1.00994
1.02329
1.06485
1.17495
1.50066
2.2016
2.95067
2.9051
2.85794
2.87526
2.92565
3.05329
3.36672
3.36441
1
1
1
1.00001
1.00001
1.00003
1.00008
1.00022
1.00049
1.00144
1.00314
1.00919
1.0214
1.05961
1.15979
1.45801
2.12696
2.92573
2.89262
2.84906
2.86612
2.9153
3.03091
3.34021
3.35512
1
1
1
1
1.00001
1.00003
1.00007
1.0002
1.00045
1.0013
1.00286
1.00832
1.01927
1.05352
1.14214
1.40649
2.03423
2.88045
2.87298
2.84053
2.8558
2.90267
3.00471
3.30858
3.34313
1
1
1
1
1.00001
1.00003
1.00007
1.00018
1.00041
1.00116
1.00259
1.00739
1.01712
1.0471
1.12348
1.34974
1.92984
2.79124
2.85274
2.82817
2.84451
2.88874
2.97275
3.25513
3.31732
1
1
1
1
1.00001
1.00002
1.00006
1.00016
1.00039
1.00101
1.00239
1.00648
1.01537
1.04128
1.1071
1.29714
1.82435
2.6428
2.8255
2.81618
2.83632
2.87167
2.93459
3.19498
3.28466
1
1
1
1
1.00001
1.00002
1.00006
1.00014
1.00035
1.00088
1.00215
1.00564
1.01374
1.03614
1.094
1.25768
1.74814
2.50032
2.7866
2.81083
2.82947
2.85088
2.88838
3.10577
3.2094
1
1
1
1
1.00001
1.00002
1.00005
1.00012
1.0003
1.00075
1.00185
1.00484
1.01181
1.03105
1.08026
1.22002
1.62527
2.35758
2.73568
2.80096
2.81258
2.82181
2.83867
2.98977
3.10682
1
1
1
1
1.00001
1.00001
1.00004
1.0001
1.00024
1.00062
1.00153
1.00405
1.00977
1.02606
1.06638
1.18258
1.50712
2.19175
2.67398
2.7828
2.78675
2.78118
2.76676
2.83506
2.85686
1
1
1
1
1
1.00001
1.00003
1.00008
1.00017
1.00055
1.00112
1.00343
1.00756
1.02135
1.05265
1.14565
1.40701
1.98413
2.60915
2.76885
2.76498
2.73801
2.69005
2.69027
2.67591
1
1
1
1
1
1.00001
1.00003
1.00005
1.00016
1.00036
1.00101
1.00235
1.00633
1.01549
1.0411
1.10821
1.30398
1.76179
2.53008
2.74192
2.7335
2.70278
2.62055
2.58113
2.5632
1
1
1
1
1
1.00001
1.00002
1.00005
1.00012
1.00029
1.00075
1.00182
1.00489
1.01174
1.03133
1.08074
1.22282
1.60653
2.33488
2.66284
2.66121
2.63791
2.57142
2.49097
2.45742
1
1
1
1
1
1.00001
1.00001
1.00004
1.00008
1.00024
1.00049
1.00152
1.00327
1.00948
1.02228
1.06118
1.16273
1.45616
2.0868
2.55622
2.60393
2.58411
2.53959
2.45244
2.39823
1
1
1
1
1
1
1.00001
1.00002
1.00006
1.00016
1.00037
1.00104
1.00234
1.00672
1.01561
1.04315
1.11227
1.31781
1.78036
2.45292
2.57229
2.55828
2.51991
2.43881
2.36975
1
1
1
1
1
1
1.00001
1.00002
1.00004
1.0001
1.00028
1.00066
1.00176
1.00435
1.01119
1.02856
1.07512
1.20412
1.54303
2.2282
2.48462
2.4969
2.47115
2.41842
2.34721
1
1
1
1
1
1
1
1.00001
1.00003
1.00007
1.00019
1.00044
1.00123
1.00279
1.00793
1.01858
1.05112
1.1343
1.37601
1.91944
2.3737
2.45476
2.44052
2.40469
2.34514
1
1
1
1
1
1
1
1.00001
1.00002
1.00005
1.00011
1.00032
1.00068
1.00205
1.00442
1.0128
1.03009
1.08302
1.22206
1.58743
2.19903
2.37198
2.38423
2.3646
2.332
1
1
1
1
1
1
1
1
1.00001
1.00003
1.00008
1.00017
1.00051
1.00108
1.00327
1.00712
1.02042
1.04963
1.13759
1.37476
1.89298
2.25737
2.34156
2.33381
2.30959
1
1
1
1
1
1
1
1
1.00001
1.00002
1.00004
1.00011
1.00028
1.00072
1.00175
1.00466
1.01124
1.02993
1.07663
1.20927
1.54985
2.08922
2.25034
2.27648
2.26141
1
1
1
1
1
1
1
1
1
1.00001
1.00002
1.00007
1.00015
1.00045
1.00096
1.00287
1.0063
1.01805
1.04357
1.1204
1.32634
1.7795
2.13857
2.2296
2.22516
1
1
1
1
1
1
1
1
1
1.00001
1.00001
1.00004
1.00009
1.00023
1.0006
1.00146
1.00387
1.00935
1.02487
1.06294
1.16957
1.45119
1.91789
2.11583
2.17711
1
1
1
1
1
1
1
1
1
1
1.00001
1.00002
1.00005
1.00011
1.00034
1.00073
1.00215
1.00486
1.01347
1.03296
1.08943
1.24097
1.59737
2.01313
2.1015
1
1
1
1
1
1
1
1
1
1
1
1.00001
1.00003
1.00006
1.00018
1.00038
1.00111
1.00256
1.00702
1.01704
1.04591
1.11929
1.33014
1.73772
1.99385
1
1
1
1
1
1
1
1
1
1
1
1.00001
1.00001
1.00003
1.00008
1.00021
1.00052
1.00132
1.00343
1.00846
1.02226
1.05661
1.15112
1.40547
1.76613
1
1
1
1
1
1
1
1
1
1
1
1
1.00001
1.00002
1.00003
1.00011
1.00022
1.0007
1.00144
1.00438
1.0097
1.02736
1.06762
1.18636
1.46658
1
1
1
1
1
1
1
1
1
1
1
1
1
1.00001
1.00002
1.00004
1.00011
1.00028
1.00072
1.00187
1.00457
1.01232
1.03051
1.08215
1.22086
1
1
1
1
1
1
1
1
1
1
1
1
1
1
1.00001
1.00002
1.00005
1.00011
1.00034
1.00075
1.00214
1.00505
1.01366
1.03458
1.09205
1
1
1
1
1
1
1
1
1
1
1
1
1
1
1
1.00001
1.00002
1.00005
1.00013
1.00032
1.00087
1.00206
1.0058
1.01371
1.03795
1
1
1
1
1
1
1
1
1
1
1
1
1
1
1
1
1.00001
1.00002
1.00005
1.00013
1.00033
1.00082
1.00222
1.00535
1.01487
1
1
1
1
1
1
1
1
1
1
1
1
1
1
1
1
1
1.00001
1.00002
1.00005
1.00012
1.00031
1.00078
1.0021
1.00512
1
1
1
1
1
1
1
1
1
1
1
1
1
1
1
1
1
1
1.00001
1.00002
1.00004
1.00011
1.00025
1.00076
1.00168
1
1
1
1
1
1
1
1
1
1
1
1
1
1
1
1
1
1
1
1.00001
1.00001
1.00004
1.00008
1.00025
1.00055
1
1
1
1
1
1
1
1
1
1
1
1
1
1
1
1
1
1
1
1
1
1.00001
1.00003
1.00006
1.0002
1
1
1
1
1
1
1
1
1
1
1
1
1
1
1
1
1
1
1
1
1
1
1.00001
1.00002
1.00005
1
1
1
1
1
1
1
1
1
1
1
1
1
1
1
1
1
1
1
1
1
1
1
1.00001
1.00001
1
1
1
1
1
1
1
1
1
1
1
1
1
1
1
1
1
1
1
1
1
1
1
1
1
1
1
1
1
1
1
1
1
1
1
1
1
1
1
1
1
1
1
1
1
1
1
1
1
1
1
1
1
1
1
1
1
1
1
1
1
1
1
1
1
1
1
1
1
1
1
1
1
1
1
1
1
1
1
1
1
1
1
1
1
1
1
1
1
1
1
1
1
1
1
1
1
1
1
1
1
1
1
1
1
1
1
1
1
1
1
1
1
1
1
1
1
1
1
1
1
1
1
1
1
1
1
1
1
1
1
1
1
1
1
1
1
1
1
1
1
1
1
1
1
1
1
1
1
1
1
1
1
1
1
1
1
1
1
1
1
1
1
1
1
1
1
1
1
1
1
1
1
1
1
1
1
1
1
1
1
1
1
1
1
1
1
1
1
1
1
1
1
1
1
1
1
1
1
1
1
1
1
1
1
1
1
1
1
1
1
1
1
1
1
1
1
1
1
1
1
1
1
1
1
1
1
1
1
1
1
1
1
1
1
1
1
1
1
1
1
1
1
1
1
1
1
1
1
1
1
1
1
1
1
1
1
1
1
1
1
1
1
1
1
1
1
1
1
1
1
1
1
1
1
1
1
1
1
1
1
1
1
1
1
1
1
1
1
1
1
1
1
1
1
1
1
1
1
1
1
1
1
1
1
1
1
1
1
1
1
1
1
1
1
1
1
1
1
1
1
1
1
1
1
2.72827
2.51729
2.43891
2.45046
2.50655
2.56764
2.61885
2.64419
2.64071
2.63019
2.61428
2.59202
2.57086
2.55464
2.53906
2.52196
2.50335
2.48375
2.46355
2.44333
2.42423
2.40727
2.39223
2.37799
2.36348
2.34786
2.33049
2.31152
2.29219
2.27451
2.26015
2.25005
2.24507
2.24442
2.24535
2.24886
2.25586
2.26279
2.26815
2.27077
2.27084
2.26876
2.26006
2.23361
2.17733
2.10382
2.01925
1.92725
1.83173
1.73657
1.64494
1.55899
1.4801
1.40903
1.34607
1.29111
1.2438
1.20358
1.16982
1.14187
1.11905
1.10073
1.08636
1.07538
1.06721
1.0612
1.05673
1.05319
1.05015
1.04724
1.04423
1.04096
1.03735
1.03342
1.02937
1.02548
1.02205
1.01912
1.01653
1.01391
1.01078
1.00811
1.00507
1.00246
1.00076
0.999758
0.999255
0.999072
0.999058
0.999104
0.99926
0.999463
0.99962
0.999737
0.999821
0.999881
0.999923
0.999951
0.99997
0.999981
2.64042
2.55758
2.49286
2.44466
2.39584
2.34656
2.3098
2.30063
2.30155
2.30415
2.30538
2.30463
2.30025
2.2901
2.27455
2.25968
2.24546
2.23077
2.21551
2.20067
2.18715
2.17479
2.16299
2.15138
2.14011
2.12916
2.11813
2.10637
2.09353
2.07964
2.06513
2.05119
2.03944
2.0313
2.0272
2.0261
2.02621
2.02717
2.03056
2.03585
2.03884
2.03928
2.03837
2.03374
2.01827
1.98439
1.93166
1.86971
1.80125
1.72888
1.65498
1.58193
1.51173
1.44585
1.38514
1.33001
1.28052
1.23657
1.19803
1.1647
1.13634
1.11262
1.09313
1.07735
1.06478
1.05495
1.04744
1.04176
1.03741
1.03387
1.03071
1.02764
1.02456
1.02147
1.01851
1.01586
1.01365
1.01187
1.01035
1.00879
1.00703
1.00454
1.00182
0.999979
0.998885
0.998349
0.998189
0.998206
0.998311
0.998621
0.998966
0.99924
0.999452
0.999612
0.999731
0.999817
0.999877
0.999919
0.999948
0.999965
2.54165
2.50788
2.44878
2.37128
2.28832
2.21565
2.16131
2.13666
2.13371
2.13488
2.13756
2.14155
2.13897
2.13577
2.12956
2.12004
2.10827
2.09562
2.08297
2.0708
2.05971
2.04935
2.03973
2.03062
2.02181
2.01274
2.00352
1.99411
1.98431
1.97437
1.96447
1.95415
1.94319
1.93298
1.92536
1.91951
1.91397
1.90985
1.90777
1.90716
1.90698
1.90643
1.90522
1.90083
1.88946
1.86467
1.82537
1.77672
1.72084
1.65992
1.59623
1.53193
1.46894
1.40875
1.35242
1.30059
1.25353
1.21135
1.17406
1.14164
1.11406
1.09114
1.07259
1.05794
1.04671
1.03834
1.03228
1.02804
1.02511
1.02302
1.0213
1.01959
1.01773
1.01576
1.01386
1.01218
1.01084
1.00978
1.00882
1.00774
1.00632
1.00364
1.00123
0.999625
0.99869
0.998254
0.998142
0.99817
0.998316
0.998667
0.999005
0.999272
0.999477
0.999632
0.999746
0.999829
0.999886
0.999926
0.999953
0.999969
2.42759
2.39505
2.34821
2.28961
2.23116
2.1762
2.12964
2.09192
2.06002
2.03886
2.02179
2.01515
2.015
2.01573
2.0188
2.01916
2.01733
2.01255
2.00225
1.98924
1.97729
1.96643
1.95746
1.94865
1.94017
1.93147
1.92312
1.91481
1.90645
1.89794
1.88937
1.88035
1.87006
1.85889
1.84897
1.84069
1.83288
1.82653
1.82268
1.82117
1.82077
1.82015
1.81882
1.81473
1.80382
1.77934
1.73899
1.68885
1.63184
1.5708
1.50852
1.44737
1.38915
1.33507
1.2858
1.24164
1.20258
1.16842
1.1388
1.11334
1.09171
1.07365
1.05891
1.04723
1.03828
1.03162
1.02678
1.02334
1.02087
1.01903
1.01752
1.01606
1.01446
1.01266
1.01082
1.00919
1.00796
1.00709
1.00646
1.00581
1.00426
1.00175
0.999777
0.998508
0.997838
0.9976
0.997598
0.997703
0.99804
0.998501
0.998876
0.999172
0.999402
0.999575
0.999704
0.999798
0.999864
0.99991
0.999942
0.99996
2.36263
2.33387
2.29987
2.25892
2.21012
2.1591
2.11052
2.0611
2.01286
1.97076
1.93997
1.9207
1.91953
1.92158
1.92729
1.93416
1.93702
1.9365
1.93382
1.92729
1.91671
1.90701
1.89659
1.88791
1.87931
1.87116
1.86326
1.85568
1.8478
1.83955
1.8313
1.82278
1.81321
1.80266
1.79287
1.78396
1.77487
1.76697
1.76167
1.75883
1.75683
1.75406
1.74791
1.73339
1.70738
1.67227
1.62947
1.58097
1.5289
1.47537
1.42226
1.37109
1.32289
1.27831
1.23765
1.20103
1.16843
1.13976
1.11481
1.09329
1.07493
1.05947
1.04676
1.03666
1.02897
1.02339
1.01953
1.01696
1.01525
1.01402
1.01299
1.01195
1.0108
1.00953
1.00823
1.00712
1.00635
1.00591
1.00568
1.00496
1.00344
1.00112
0.999349
0.998245
0.997695
0.997531
0.997556
0.997703
0.998116
0.998569
0.998931
0.999216
0.999435
0.999601
0.999723
0.999813
0.999875
0.999918
0.999948
0.999965
2.31702
2.27485
2.2395
2.20272
2.16361
2.12123
2.07256
2.02497
1.98085
1.9415
1.91111
1.88881
1.87487
1.86873
1.86879
1.87009
1.87253
1.87318
1.87239
1.86961
1.86389
1.85626
1.84795
1.8387
1.82979
1.82081
1.81187
1.80361
1.79587
1.78795
1.77982
1.77158
1.76224
1.75151
1.74183
1.73362
1.72542
1.71719
1.71047
1.70564
1.70056
1.69146
1.67596
1.65241
1.62061
1.58181
1.53804
1.49131
1.44337
1.39576
1.34975
1.30622
1.26577
1.22865
1.19483
1.16439
1.13733
1.11358
1.09302
1.07545
1.06058
1.04813
1.03789
1.02972
1.0235
1.01904
1.01606
1.01418
1.013
1.01213
1.01131
1.01038
1.00928
1.00803
1.00676
1.00569
1.00507
1.00478
1.00438
1.00375
1.00241
1.0002
0.998542
0.997586
0.997185
0.997124
0.9972
0.99748
0.998024
0.998492
0.99887
0.999168
0.999399
0.999573
0.999702
0.999796
0.999863
0.999909
0.999941
0.99996
2.29112
2.24363
2.20076
2.15952
2.11801
2.07505
2.02952
1.98364
1.94028
1.90404
1.87444
1.85466
1.83985
1.82809
1.81844
1.80971
1.8032
1.79936
1.79699
1.79637
1.79566
1.79418
1.79073
1.78515
1.77838
1.77079
1.76298
1.75567
1.7482
1.74047
1.73204
1.72349
1.7144
1.70433
1.69528
1.68818
1.68087
1.67228
1.66246
1.65193
1.63953
1.62291
1.6003
1.57068
1.53472
1.49426
1.45146
1.40829
1.36605
1.32574
1.28745
1.25194
1.21914
1.18919
1.16217
1.13786
1.11594
1.09623
1.07883
1.0639
1.0513
1.04073
1.03201
1.02501
1.01964
1.01575
1.01317
1.01158
1.01063
1.00996
1.00925
1.00836
1.00727
1.0061
1.00505
1.00443
1.00423
1.00393
1.0037
1.0031
1.00168
0.999559
0.998113
0.997337
0.997053
0.997045
0.997161
0.997546
0.998101
0.998558
0.998923
0.99921
0.999431
0.999598
0.999721
0.99981
0.999873
0.999917
0.999946
0.999964
2.28016
2.21941
2.167
2.11991
2.07416
2.02877
1.98592
1.94595
1.91149
1.88185
1.8584
1.83743
1.81907
1.80093
1.78279
1.76687
1.75353
1.74393
1.73854
1.73538
1.73347
1.73242
1.73121
1.72895
1.72551
1.72196
1.71778
1.71204
1.70582
1.69883
1.69104
1.68257
1.67406
1.66497
1.65546
1.64687
1.63781
1.6261
1.61076
1.59261
1.57258
1.54963
1.52247
1.49045
1.45427
1.41567
1.37649
1.33826
1.30195
1.26805
1.23666
1.2077
1.1811
1.15677
1.13465
1.11472
1.09685
1.0808
1.0664
1.05422
1.04394
1.03471
1.02719
1.02143
1.01707
1.01393
1.01183
1.01055
1.00983
1.00935
1.00876
1.00783
1.00657
1.00526
1.00437
1.0041
1.0037
1.00351
1.00324
1.00249
1.00072
0.998778
0.997567
0.996964
0.99679
0.996824
0.997015
0.997527
0.998092
0.998549
0.998915
0.999202
0.999424
0.999591
0.999715
0.999805
0.999869
0.999913
0.999944
0.999961
2.27031
2.21259
2.15205
2.09678
2.04729
2.00272
1.96116
1.92526
1.89338
1.8678
1.84509
1.82401
1.80217
1.77918
1.75708
1.73624
1.71899
1.70492
1.69347
1.68553
1.67922
1.67435
1.67213
1.67118
1.67096
1.6705
1.66969
1.66766
1.66391
1.65808
1.65097
1.64294
1.6346
1.62559
1.61504
1.60319
1.58992
1.57314
1.55234
1.52829
1.50244
1.47495
1.44499
1.41255
1.37832
1.34334
1.30892
1.27611
1.24563
1.21773
1.19248
1.16956
1.14864
1.12936
1.1115
1.09528
1.08071
1.0676
1.05588
1.04557
1.03685
1.02987
1.0241
1.01879
1.01491
1.01245
1.01075
1.00962
1.00891
1.00844
1.0079
1.00705
1.00585
1.00464
1.00401
1.00338
1.00309
1.00301
1.00276
1.00188
0.999841
0.998189
0.997196
0.996749
0.996666
0.996739
0.997027
0.997639
0.998176
0.998616
0.998968
0.999243
0.999455
0.999615
0.999733
0.999818
0.999878
0.99992
0.999948
0.999965
2.26062
2.19455
2.13836
2.08297
2.03234
1.98817
1.95022
1.91788
1.88947
1.86364
1.83845
1.81365
1.78777
1.76277
1.7387
1.71779
1.69896
1.68246
1.66836
1.65486
1.64431
1.63644
1.63041
1.62753
1.62693
1.6263
1.62564
1.62432
1.62144
1.61705
1.61129
1.60376
1.59454
1.58384
1.57055
1.55423
1.53512
1.51327
1.48836
1.46134
1.433
1.40428
1.37497
1.34484
1.31455
1.28435
1.25493
1.22699
1.20113
1.17773
1.15721
1.13916
1.12241
1.10679
1.09225
1.07885
1.06673
1.05592
1.04632
1.03783
1.03051
1.02454
1.01998
1.0164
1.01309
1.01096
1.00984
1.00897
1.00826
1.0077
1.00716
1.00645
1.00562
1.00497
1.00401
1.0031
1.00278
1.00266
1.00228
1.00118
0.999141
0.997664
0.996837
0.996525
0.996516
0.996644
0.997073
0.997704
0.998229
0.998656
0.998998
0.999265
0.999471
0.999625
0.999739
0.999822
0.99988
0.999921
0.999949
0.999965
2.23726
2.18599
2.12341
2.07094
2.02471
1.98289
1.94682
1.91584
1.8886
1.86263
1.83692
1.80979
1.78263
1.75577
1.73127
1.70917
1.68907
1.67067
1.65293
1.63722
1.62274
1.61058
1.60178
1.5943
1.58891
1.58513
1.58073
1.57613
1.57145
1.5653
1.55786
1.54909
1.53792
1.52456
1.50945
1.4914
1.46999
1.4461
1.42103
1.39539
1.36873
1.34145
1.31418
1.28744
1.2615
1.23607
1.21118
1.18738
1.16538
1.14601
1.12966
1.11516
1.10182
1.08946
1.07781
1.06681
1.05663
1.04739
1.03924
1.03216
1.02609
1.02106
1.01718
1.01434
1.01218
1.01028
1.00946
1.00878
1.00793
1.00704
1.00624
1.00554
1.00511
1.0047
1.00372
1.00289
1.00254
1.00237
1.00187
1.00069
0.998644
0.997276
0.996601
0.996413
0.996452
0.99666
0.997213
0.997825
0.998326
0.998733
0.999057
0.999311
0.999505
0.999651
0.999758
0.999835
0.999889
0.999927
0.999953
0.999968
2.20564
2.16473
2.11394
2.061
2.01447
1.97778
1.94423
1.91435
1.88685
1.8598
1.83247
1.80494
1.77831
1.75274
1.72936
1.70675
1.68654
1.66544
1.6466
1.6275
1.61095
1.59617
1.58302
1.57209
1.56192
1.55191
1.54349
1.53403
1.52446
1.51516
1.50444
1.49236
1.47926
1.46406
1.44743
1.42916
1.40801
1.38438
1.36065
1.3374
1.31341
1.28859
1.26412
1.24107
1.21906
1.19767
1.17667
1.15629
1.13752
1.12187
1.10915
1.09769
1.08722
1.07742
1.06814
1.05932
1.0509
1.04299
1.03585
1.0296
1.02428
1.01994
1.01655
1.01402
1.01225
1.01076
1.01007
1.00959
1.00864
1.00735
1.00612
1.00542
1.005
1.00412
1.00338
1.003
1.00282
1.00259
1.00189
1.00019
0.998123
0.996967
0.996477
0.996391
0.996463
0.996755
0.997387
0.997953
0.998425
0.998808
0.999113
0.999352
0.999535
0.999672
0.999772
0.999844
0.999896
0.999931
0.999956
0.999969
2.1688
2.14551
2.097
2.0502
2.00782
1.9684
1.93846
1.90974
1.88216
1.85485
1.82721
1.79969
1.77363
1.74952
1.72723
1.70553
1.68436
1.66316
1.64211
1.62147
1.6028
1.58467
1.56923
1.55404
1.53983
1.52595
1.5114
1.49755
1.48351
1.46844
1.45444
1.4393
1.42306
1.40658
1.3887
1.36942
1.3491
1.32738
1.30497
1.28326
1.26236
1.24109
1.21993
1.19988
1.18103
1.16344
1.14637
1.12907
1.11338
1.10134
1.09144
1.08271
1.07489
1.06754
1.06032
1.05316
1.04629
1.03985
1.03388
1.0284
1.02379
1.02006
1.0172
1.01515
1.01361
1.01227
1.01163
1.01121
1.01035
1.00872
1.00711
1.00601
1.00466
1.00379
1.00345
1.00338
1.00333
1.00299
1.00165
0.999174
0.997586
0.996749
0.996434
0.996417
0.996532
0.996937
0.997565
0.998099
0.99854
0.998898
0.999182
0.999404
0.999573
0.999699
0.999792
0.999858
0.999905
0.999937
0.99996
0.999972
2.12005
2.1057
2.07865
2.03554
1.99633
1.96145
1.92638
1.89691
1.86961
1.84295
1.81759
1.79302
1.76918
1.74647
1.72459
1.70291
1.68065
1.65815
1.63542
1.61403
1.59295
1.57465
1.55551
1.5386
1.52086
1.50299
1.48573
1.46724
1.44926
1.4314
1.41242
1.39438
1.37622
1.35647
1.33766
1.31812
1.29749
1.27729
1.25713
1.2367
1.21728
1.19887
1.18018
1.16222
1.14555
1.13077
1.11687
1.10219
1.08881
1.07954
1.07196
1.06561
1.06014
1.05495
1.0498
1.04461
1.03948
1.03466
1.03015
1.02619
1.02269
1.01964
1.01733
1.0158
1.01477
1.01382
1.01315
1.01286
1.01221
1.01083
1.00909
1.00685
1.00494
1.00413
1.00404
1.00414
1.00399
1.00299
1.00051
0.998528
0.997291
0.996663
0.996465
0.996498
0.996668
0.997176
0.997767
0.99826
0.998665
0.998994
0.999255
0.999457
0.999611
0.999727
0.999811
0.999871
0.999914
0.999942
0.999963
0.999974
2.06702
2.06339
2.04813
2.02292
1.98569
1.9472
1.9137
1.88194
1.85197
1.8256
1.80138
1.77941
1.75935
1.7395
1.71871
1.69691
1.67374
1.6501
1.6266
1.60399
1.5826
1.5621
1.54239
1.52271
1.50269
1.48312
1.46207
1.44234
1.42163
1.40088
1.38081
1.35921
1.33832
1.31781
1.29624
1.2758
1.25598
1.23559
1.21652
1.19855
1.1805
1.16311
1.14699
1.13043
1.11467
1.10111
1.08929
1.07696
1.06463
1.05688
1.05098
1.04624
1.04241
1.0389
1.03539
1.03193
1.02862
1.02561
1.02291
1.02056
1.0186
1.01703
1.01589
1.01511
1.01456
1.01435
1.01401
1.01377
1.01331
1.01246
1.01067
1.00756
1.00532
1.00445
1.00441
1.00448
1.00408
1.00242
0.999957
0.998184
0.997127
0.996649
0.99655
0.996611
0.99687
0.997448
0.99798
0.998428
0.998797
0.999095
0.999331
0.999514
0.999653
0.999756
0.999831
0.999885
0.999923
0.999949
0.999968
0.999977
1.95733
2.01861
2.01278
1.99898
1.96963
1.93463
1.89936
1.86712
1.83762
1.80957
1.78504
1.764
1.7447
1.72571
1.70608
1.68481
1.6621
1.63868
1.61522
1.59242
1.57039
1.54897
1.52792
1.50665
1.48553
1.46374
1.44252
1.4204
1.399
1.37717
1.35489
1.33345
1.31092
1.28868
1.26734
1.24523
1.22496
1.20586
1.18659
1.16866
1.15222
1.13553
1.11983
1.10517
1.09055
1.07739
1.06732
1.05762
1.04655
1.03868
1.0341
1.03011
1.02706
1.02438
1.02181
1.0194
1.01734
1.01572
1.01448
1.01356
1.01297
1.0127
1.01271
1.0129
1.01338
1.01369
1.01374
1.01371
1.01355
1.0129
1.01124
1.00807
1.00569
1.00461
1.00444
1.00441
1.00385
1.00195
0.99956
0.997944
0.997065
0.99673
0.996705
0.996808
0.997172
0.997729
0.998206
0.998606
0.998935
0.9992
0.99941
0.999572
0.999695
0.999786
0.999852
0.999899
0.999933
0.999955
0.999972
0.999979
1.82281
1.92588
1.97276
1.96318
1.94833
1.9179
1.88566
1.85194
1.82118
1.79449
1.77063
1.74865
1.72885
1.71007
1.69045
1.66949
1.64729
1.6244
1.60139
1.5788
1.55661
1.53478
1.51293
1.49098
1.46885
1.44654
1.42426
1.4019
1.37959
1.3573
1.33498
1.31242
1.29053
1.26817
1.24666
1.2259
1.20497
1.18576
1.16776
1.1494
1.13266
1.11715
1.10138
1.08699
1.07448
1.06189
1.05158
1.04371
1.03501
1.0264
1.02231
1.0191
1.01666
1.01463
1.01264
1.01086
1.00956
1.00879
1.00841
1.00833
1.00844
1.0089
1.00989
1.01092
1.01188
1.01266
1.01306
1.01312
1.01302
1.01245
1.01096
1.00806
1.00579
1.00463
1.00433
1.00418
1.00351
1.00147
0.999175
0.997764
0.997088
0.996893
0.996919
0.99708
0.997522
0.998015
0.998433
0.998783
0.999072
0.999305
0.999488
0.999629
0.999736
0.999815
0.999872
0.999913
0.999942
0.999961
0.999976
0.999982
1.52021
1.81884
1.8928
1.92547
1.91604
1.90003
1.86884
1.83874
1.80749
1.77866
1.75429
1.73314
1.71337
1.69363
1.67372
1.65307
1.63149
1.60922
1.58676
1.56446
1.54236
1.5203
1.49809
1.47571
1.45312
1.43052
1.40797
1.38558
1.36334
1.3411
1.31899
1.29688
1.27501
1.2538
1.23277
1.21279
1.19369
1.17465
1.1567
1.13925
1.12216
1.10642
1.09191
1.07762
1.0653
1.05495
1.04462
1.03696
1.03078
1.02234
1.01602
1.01377
1.01142
1.00958
1.00775
1.00616
1.00522
1.00496
1.00499
1.00522
1.00587
1.0072
1.00862
1.00999
1.01122
1.01222
1.01278
1.0129
1.01277
1.0121
1.0104
1.00788
1.00593
1.00487
1.00453
1.00419
1.00317
1.00091
0.998816
0.997701
0.997252
0.997171
0.997226
0.997448
0.997895
0.998305
0.998661
0.998961
0.999209
0.999408
0.999565
0.999685
0.999776
0.999843
0.999892
0.999926
0.999951
0.999967
0.999979
0.999985
1.25253
1.54315
1.79367
1.85972
1.8773
1.87032
1.85361
1.82338
1.7958
1.76712
1.74022
1.71709
1.69681
1.67742
1.65769
1.63691
1.61533
1.59349
1.57171
1.54983
1.52792
1.50586
1.48355
1.46107
1.43848
1.41603
1.3938
1.37184
1.35005
1.32835
1.30681
1.28537
1.26445
1.24392
1.2242
1.20501
1.18657
1.16877
1.15111
1.13457
1.11831
1.10248
1.08829
1.07544
1.0635
1.0536
1.04499
1.03696
1.031
1.02571
1.01838
1.01393
1.01231
1.01048
1.00866
1.00701
1.0061
1.00596
1.00605
1.00646
1.00735
1.00879
1.01026
1.01163
1.01275
1.01356
1.01395
1.01394
1.01359
1.01242
1.01029
1.00817
1.0066
1.0057
1.00525
1.00452
1.00283
1.00016
0.998565
0.997825
0.997577
0.997558
0.99763
0.99787
0.998246
0.998587
0.998883
0.999135
0.999342
0.999508
0.999639
0.999739
0.999814
0.99987
0.99991
0.999939
0.999959
0.999972
0.999983
0.999987
1.09676
1.26525
1.53871
1.76101
1.8226
1.83107
1.82516
1.80961
1.78179
1.75671
1.73044
1.70512
1.68251
1.66196
1.64205
1.62177
1.60082
1.57916
1.55718
1.53528
1.51354
1.49181
1.46989
1.4478
1.42571
1.40381
1.38217
1.36083
1.33967
1.31872
1.29796
1.27754
1.25756
1.23812
1.2193
1.20093
1.18316
1.16564
1.1488
1.13253
1.11714
1.10297
1.08991
1.07831
1.06806
1.05852
1.05067
1.04341
1.03682
1.03211
1.02676
1.02085
1.01791
1.01646
1.01465
1.01287
1.01169
1.01145
1.01154
1.01189
1.01271
1.01389
1.01509
1.0161
1.0168
1.01716
1.01712
1.01676
1.01564
1.01371
1.01164
1.00978
1.00846
1.00758
1.00657
1.00461
1.00152
0.999667
0.99867
0.998196
0.998037
0.998031
0.998094
0.998293
0.998592
0.998864
0.999102
0.999304
0.999471
0.999604
0.999709
0.99979
0.99985
0.999895
0.999928
0.999951
0.999967
0.999978
0.999986
0.999989
1.03648
1.09894
1.26314
1.51187
1.72283
1.78178
1.78711
1.78216
1.7682
1.74388
1.72081
1.69587
1.67162
1.64925
1.62828
1.60766
1.58681
1.5656
1.54416
1.52266
1.50115
1.47962
1.45804
1.43647
1.41499
1.39377
1.37285
1.35229
1.33196
1.31192
1.29213
1.27273
1.25372
1.2352
1.21705
1.19926
1.18182
1.16481
1.14852
1.13304
1.11887
1.10598
1.09465
1.08442
1.07526
1.06712
1.05969
1.05328
1.04707
1.04178
1.03756
1.03243
1.02795
1.02598
1.02439
1.02253
1.02111
1.02054
1.02056
1.02073
1.02131
1.02206
1.02262
1.02299
1.02306
1.02285
1.02215
1.0207
1.01888
1.01676
1.01472
1.01305
1.01163
1.0097
1.00591
1.00313
1.00122
0.999933
0.999129
0.998704
0.998549
0.998536
0.998578
0.998715
0.998932
0.999134
0.999313
0.999466
0.999593
0.999695
0.999776
0.999837
0.999884
0.999918
0.999944
0.999961
0.999974
0.999982
0.999989
0.999991
1.01403
1.03487
1.09353
1.24694
1.47344
1.6801
1.73693
1.74458
1.74059
1.72912
1.70888
1.68691
1.66247
1.63886
1.61681
1.59563
1.57472
1.55371
1.5326
1.51156
1.49071
1.46994
1.44911
1.4282
1.40735
1.38677
1.36655
1.3467
1.32716
1.30791
1.28894
1.27036
1.2521
1.23421
1.2165
1.19909
1.18203
1.16567
1.15031
1.13633
1.1238
1.11255
1.1024
1.0931
1.08483
1.07714
1.0703
1.06417
1.05845
1.05328
1.04897
1.04516
1.04078
1.03766
1.03633
1.03462
1.03311
1.03212
1.03167
1.03168
1.03173
1.03182
1.03177
1.03154
1.03085
1.02965
1.02796
1.02594
1.02373
1.02155
1.01945
1.01654
1.01211
1.00854
1.00566
1.0034
1.00171
1.00052
0.999739
0.999288
0.999091
0.999053
0.999068
0.999128
0.999258
0.99939
0.999512
0.999618
0.999706
0.999779
0.999836
0.999881
0.999914
0.999939
0.999958
0.999971
0.999981
0.999987
0.999992
0.999993
1.00509
1.01146
1.03293
1.08164
1.21844
1.42619
1.6309
1.68891
1.70311
1.7003
1.6918
1.67586
1.65412
1.63037
1.60791
1.58669
1.56584
1.54493
1.52403
1.5033
1.48283
1.46258
1.44239
1.42222
1.40216
1.38235
1.36287
1.34375
1.3249
1.30631
1.288
1.26995
1.25211
1.23448
1.21716
1.20031
1.18418
1.16919
1.15556
1.14325
1.13199
1.12171
1.11231
1.10372
1.09585
1.08872
1.08215
1.07614
1.07085
1.06572
1.0613
1.05779
1.05414
1.05072
1.04879
1.04732
1.04576
1.04453
1.04386
1.04349
1.04304
1.04257
1.04179
1.04068
1.03915
1.03719
1.03494
1.03252
1.02988
1.0258
1.02096
1.01655
1.01255
1.00911
1.00628
1.00405
1.00238
1.00121
1.00042
0.999941
0.999661
0.999533
0.99951
0.999519
0.999555
0.999621
0.999689
0.999751
0.999806
0.999852
0.999889
0.999918
0.999941
0.999958
0.99997
0.999979
0.999986
0.99999
0.999994
0.999995
1.00161
1.00381
1.0105
1.02627
1.06996
1.18295
1.36787
1.57037
1.64072
1.66469
1.66223
1.65445
1.6424
1.62203
1.6012
1.58097
1.5606
1.53982
1.51896
1.49823
1.47786
1.45799
1.43847
1.41905
1.39968
1.38048
1.36155
1.34292
1.32452
1.30629
1.28823
1.27049
1.25313
1.23621
1.21984
1.20434
1.18985
1.17643
1.16402
1.15264
1.1422
1.13263
1.1238
1.11568
1.10819
1.10131
1.09499
1.08915
1.08387
1.0791
1.07457
1.0709
1.06787
1.06444
1.06227
1.06058
1.05904
1.0577
1.0567
1.05584
1.0548
1.05365
1.05208
1.05025
1.04799
1.04545
1.04213
1.03745
1.03255
1.02744
1.02233
1.01756
1.01336
1.00982
1.00695
1.00473
1.00307
1.00189
1.00107
1.00053
1.00019
0.999983
0.99987
0.999817
0.999811
0.999816
0.999835
0.999861
0.999888
0.999911
0.999932
0.999949
0.999962
0.999973
0.999981
0.999986
0.999991
0.999993
0.999996
0.999996
1.00041
1.00133
1.00283
1.00864
1.01991
1.05571
1.14046
1.30487
1.49465
1.59613
1.62785
1.62505
1.61838
1.60889
1.59323
1.57592
1.55721
1.53743
1.5169
1.49643
1.47638
1.45685
1.4377
1.41865
1.39956
1.38056
1.36182
1.34339
1.32523
1.30735
1.2898
1.27275
1.25636
1.2408
1.22593
1.21176
1.19833
1.18579
1.17426
1.16368
1.15396
1.14496
1.13659
1.1288
1.12156
1.11487
1.10868
1.10296
1.09774
1.09302
1.08871
1.0849
1.08189
1.07893
1.07601
1.07436
1.07286
1.07134
1.06987
1.06838
1.06669
1.06473
1.06246
1.05954
1.05584
1.05148
1.0464
1.0407
1.03469
1.02875
1.02317
1.01816
1.01386
1.01028
1.00742
1.00523
1.0036
1.00241
1.00157
1.00098
1.00058
1.00032
1.00015
1.00004
0.999986
0.999955
0.999945
0.999944
0.999949
0.999956
0.999964
0.999972
0.999979
0.999984
0.999988
0.999992
0.999994
0.999996
0.999998
0.999997
1.00012
1.00036
1.00083
1.00239
1.00566
1.01576
1.0387
1.10371
1.23469
1.41169
1.55818
1.58949
1.58683
1.58415
1.57759
1.56621
1.55195
1.53512
1.51625
1.49679
1.4771
1.45773
1.4387
1.41985
1.40102
1.38229
1.3639
1.34588
1.32819
1.31091
1.29426
1.27836
1.26319
1.24858
1.23451
1.22106
1.20847
1.19682
1.18612
1.17631
1.16717
1.15861
1.15051
1.14293
1.13586
1.12927
1.12318
1.11754
1.11238
1.10769
1.10345
1.09968
1.09649
1.09357
1.0906
1.08839
1.08682
1.08493
1.08286
1.08057
1.07799
1.07498
1.07136
1.06701
1.0618
1.05578
1.04916
1.04228
1.03548
1.02906
1.02322
1.01809
1.01374
1.01022
1.00748
1.00539
1.00383
1.00267
1.00183
1.00123
1.00081
1.00051
1.00031
1.00018
1.0001
1.00004
1.00001
0.999997
0.999989
0.999986
0.999986
0.999988
0.99999
0.999992
0.999994
0.999995
0.999997
0.999998
0.999999
0.999998
1.00004
1.00008
1.00025
1.00055
1.00166
1.00371
1.01096
1.02559
1.07011
1.16651
1.31848
1.48712
1.54061
1.55365
1.55055
1.54643
1.54006
1.52919
1.51443
1.49717
1.47956
1.46129
1.44291
1.42459
1.4063
1.38809
1.37011
1.35262
1.33548
1.31871
1.30257
1.28717
1.27249
1.25845
1.24502
1.23233
1.22055
1.20978
1.19985
1.19058
1.18185
1.17348
1.16556
1.15805
1.15106
1.14455
1.13849
1.13292
1.12778
1.12309
1.11884
1.11502
1.11162
1.10843
1.10531
1.1027
1.10062
1.09804
1.09502
1.09171
1.08793
1.08348
1.07817
1.07197
1.065
1.0575
1.04979
1.04217
1.03487
1.02807
1.022
1.01689
1.01278
1.00956
1.00706
1.00515
1.00371
1.00264
1.00185
1.00127
1.00086
1.00057
1.00037
1.00024
1.00015
1.00009
1.00005
1.00002
1.00001
1
0.999999
0.999997
0.999997
0.999997
0.999997
0.999998
0.999998
0.999999
0.999999
0.999999
1.00001
1.00002
1.00005
1.00016
1.00034
1.00104
1.00231
1.0068
1.01573
1.04338
1.1041
1.22265
1.37633
1.49031
1.51717
1.52079
1.51728
1.51223
1.50553
1.4944
1.47966
1.464
1.4478
1.43114
1.41403
1.39655
1.37911
1.36198
1.34531
1.32892
1.31316
1.29831
1.28422
1.27073
1.25795
1.24597
1.23496
1.22487
1.21548
1.20654
1.19788
1.18959
1.1816
1.17414
1.16717
1.16072
1.15468
1.14908
1.1439
1.13911
1.13472
1.13069
1.12691
1.12325
1.11976
1.11675
1.11363
1.10976
1.10546
1.10062
1.09505
1.08867
1.08149
1.07365
1.06536
1.05686
1.04828
1.03981
1.03187
1.02497
1.01931
1.01477
1.01117
1.00836
1.00618
1.00452
1.00327
1.00233
1.00165
1.00115
1.00079
1.00054
1.00036
1.00024
1.00015
1.0001
1.00006
1.00003
1.00002
1.00001
1.00001
1
1
1
0.999999
0.999999
0.999999
0.999999
1
0.999999
1
1
1.00001
1.00003
1.00009
1.00021
1.00056
1.00141
1.00365
1.00936
1.0237
1.05963
1.13948
1.25078
1.40381
1.47592
1.48204
1.48751
1.48521
1.47985
1.47203
1.46138
1.44801
1.43379
1.41879
1.40325
1.38735
1.37152
1.35605
1.34083
1.32586
1.31159
1.2982
1.28539
1.2732
1.26186
1.25141
1.24175
1.2326
1.2237
1.21495
1.2065
1.19853
1.19106
1.18408
1.17753
1.17141
1.16566
1.1603
1.15525
1.15051
1.14593
1.1415
1.13713
1.13299
1.12887
1.1238
1.11824
1.11216
1.10544
1.09803
1.08999
1.0814
1.07232
1.06269
1.05258
1.04267
1.03389
1.0266
1.02068
1.01589
1.01208
1.00908
1.00675
1.00497
1.00362
1.00262
1.00187
1.00132
1.00093
1.00064
1.00044
1.0003
1.0002
1.00013
1.00008
1.00005
1.00003
1.00002
1.00001
1.00001
1
1
1
1
1
1
1
1
1
1
1
1
1.00001
1.00002
1.00004
1.00011