/*--------------------------------*- C++ -*----------------------------------*\
  =========                 |
  \\      /  F ield         | OpenFOAM: The Open Source CFD Toolbox
   \\    /   O peration     | Website:  https://openfoam.org
    \\  /    A nd           | Version:  13
     \\/     M anipulation  |
\*---------------------------------------------------------------------------*/
FoamFile
{
    format      ascii;
    class       volVectorField;
    location    "0.5";
    object      U;
}
// * * * * * * * * * * * * * * * * * * * * * * * * * * * * * * * * * * * * * //

dimensions      [0 1 -1 0 0 0 0];

internalField   nonuniform List<vector> 
5250
(
(3 6.10437e-10 0)
(3 4.01505e-09 0)
(3 1.36084e-08 0)
(3 4.08184e-08 0)
(2.99999 1.07946e-07 0)
(2.99997 2.91633e-07 0)
(2.99992 7.44504e-07 0)
(2.9998 1.96968e-06 0)
(2.99948 5.00673e-06 0)
(2.99869 1.3078e-05 0)
(2.99666 3.33218e-05 0)
(2.99144 8.5973e-05 0)
(2.9779 0.000220724 0)
(2.941 0.000576053 0)
(2.83378 0.0015681 0)
(2.50035 0.00452975 0)
(1.50056 0.013528 0)
(0.551593 0.0353974 0)
(0.279302 0.0298757 0)
(0.429379 0.0298846 0)
(0.4085 0.0334998 0)
(0.295634 0.0389285 0)
(0.206991 0.043886 0)
(0.109777 0.0463439 0)
(0.0379569 0.0430897 0)
(3 2.12602e-09 0)
(3 1.13931e-08 0)
(3 4.41712e-08 0)
(3 1.17523e-07 0)
(2.99999 3.38493e-07 0)
(2.99997 8.49283e-07 0)
(2.99992 2.30791e-06 0)
(2.9998 5.69568e-06 0)
(2.99949 1.58346e-05 0)
(2.99871 3.7815e-05 0)
(2.99672 0.000105233 0)
(2.9916 0.000252663 0)
(2.97831 0.000684679 0)
(2.94212 0.00174164 0)
(2.83708 0.00481497 0)
(2.5102 0.0139295 0)
(1.52443 0.0416754 0)
(0.564812 0.106343 0)
(0.275321 0.0845757 0)
(0.430806 0.0795845 0)
(0.410573 0.0849107 0)
(0.297538 0.093544 0)
(0.20972 0.10036 0)
(0.115108 0.10447 0)
(0.0406406 0.0990336 0)
(3 3.29117e-09 0)
(3 1.86064e-08 0)
(3 6.95461e-08 0)
(3 1.91092e-07 0)
(2.99999 5.39179e-07 0)
(2.99997 1.372e-06 0)
(2.99992 3.69191e-06 0)
(2.99981 9.27195e-06 0)
(2.99951 2.52583e-05 0)
(2.99876 6.21173e-05 0)
(2.99684 0.000169694 0)
(2.99193 0.00041766 0)
(2.97914 0.00112071 0)
(2.94444 0.0028876 0)
(2.84398 0.00798155 0)
(2.53127 0.0232493 0)
(1.57832 0.0701057 0)
(0.595728 0.182544 0)
(0.27149 0.143331 0)
(0.436914 0.133494 0)
(0.419466 0.143838 0)
(0.306121 0.159128 0)
(0.217712 0.171317 0)
(0.123177 0.180142 0)
(0.0432502 0.173569 0)
(3 3.93171e-09 0)
(3 2.52476e-08 0)
(3 8.67368e-08 0)
(3 2.55814e-07 0)
(2.99999 6.85998e-07 0)
(2.99997 1.81019e-06 0)
(2.99993 4.7223e-06 0)
(2.99982 1.23128e-05 0)
(2.99954 3.2047e-05 0)
(2.99883 8.32942e-05 0)
(2.99702 0.00021811 0)
(2.99239 0.000562734 0)
(2.98037 0.00147503 0)
(2.94785 0.0038836 0)
(2.85416 0.0106909 0)
(2.56265 0.0313177 0)
(1.66246 0.0952094 0)
(0.645015 0.255604 0)
(0.269738 0.201555 0)
(0.44814 0.187474 0)
(0.435756 0.203639 0)
(0.321744 0.226039 0)
(0.231375 0.244887 0)
(0.134882 0.259797 0)
(0.0468769 0.253643 0)
(3 4.64527e-09 0)
(3 3.01407e-08 0)
(3 1.02713e-07 0)
(3 3.02364e-07 0)
(2.99999 8.06106e-07 0)
(2.99997 2.10543e-06 0)
(2.99993 5.48625e-06 0)
(2.99983 1.42098e-05 0)
(2.99957 3.69934e-05 0)
(2.99892 9.62303e-05 0)
(2.99724 0.000253575 0)
(2.99297 0.00065603 0)
(2.98192 0.00173824 0)
(2.95215 0.00459338 0)
(2.86706 0.0127344 0)
(2.60294 0.0374321 0)
(1.77583 0.115537 0)
(0.713978 0.322209 0)
(0.274778 0.259538 0)
(0.464001 0.243001 0)
(0.457712 0.26467 0)
(0.343309 0.293439 0)
(0.250667 0.320007 0)
(0.151131 0.342202 0)
(0.052512 0.338798 0)
(3 5.27932e-09 0)
(3 3.42248e-08 0)
(3 1.16104e-07 0)
(3 3.39406e-07 0)
(2.99999 8.91247e-07 0)
(2.99998 2.31739e-06 0)
(2.99994 5.93641e-06 0)
(2.99985 1.51735e-05 0)
(2.99961 3.91988e-05 0)
(2.99901 0.00010122 0)
(2.99748 0.000265751 0)
(2.99363 0.000690987 0)
(2.98366 0.00184182 0)
(2.95705 0.00489819 0)
(2.88189 0.0137164 0)
(2.65036 0.0404645 0)
(1.91737 0.127926 0)
(0.807293 0.375357 0)
(0.293374 0.315281 0)
(0.484133 0.302308 0)
(0.483782 0.329044 0)
(0.370551 0.363024 0)
(0.276017 0.39961 0)
(0.172553 0.431172 0)
(0.0614948 0.434338 0)
(3 5.88447e-09 0)
(3 3.82916e-08 0)
(3 1.29146e-07 0)
(3 3.7632e-07 0)
(2.99999 9.74595e-07 0)
(2.99998 2.53205e-06 0)
(2.99994 6.38665e-06 0)
(2.99986 1.59327e-05 0)
(2.99964 4.09032e-05 0)
(2.99911 0.000101487 0)
(2.99773 0.000265389 0)
(2.99429 0.000670228 0)
(2.98543 0.00177974 0)
(2.9621 0.00467661 0)
(2.89721 0.013095 0)
(2.7011 0.0384712 0)
(2.08077 0.124572 0)
(0.927361 0.391739 0)
(0.331871 0.366693 0)
(0.508084 0.368441 0)
(0.511154 0.398244 0)
(0.403608 0.435826 0)
(0.309483 0.484498 0)
(0.201346 0.528704 0)
(0.0759148 0.545579 0)
(3 6.64985e-09 0)
(3 4.30761e-08 0)
(3 1.43655e-07 0)
(3 4.21403e-07 0)
(2.99999 1.07383e-06 0)
(2.99998 2.79427e-06 0)
(2.99995 6.90652e-06 0)
(2.99987 1.72683e-05 0)
(2.99968 4.3269e-05 0)
(2.9992 0.000106177 0)
(2.99796 0.000270623 0)
(2.99489 0.00066387 0)
(2.98701 0.00171731 0)
(2.96653 0.00435106 0)
(2.91053 0.0118407 0)
(2.74614 0.0334572 0)
(2.2393 0.106022 0)
(1.07006 0.346166 0)
(0.393268 0.423222 0)
(0.531755 0.445953 0)
(0.536167 0.472352 0)
(0.442499 0.513359 0)
(0.353177 0.574749 0)
(0.241773 0.637023 0)
(0.100278 0.681604 0)
(3 7.07576e-09 0)
(3 4.57018e-08 0)
(3 1.52922e-07 0)
(3 4.48483e-07 0)
(2.99999 1.14637e-06 0)
(2.99998 2.99694e-06 0)
(2.99996 7.35018e-06 0)
(2.99989 1.87416e-05 0)
(2.99972 4.59328e-05 0)
(2.99929 0.000115867 0)
(2.99819 0.000285504 0)
(2.99549 0.00071378 0)
(2.98851 0.00178427 0)
(2.97055 0.00447307 0)
(2.92169 0.0117206 0)
(2.78054 0.0317733 0)
(2.35358 0.0936311 0)
(1.23833 0.288518 0)
(0.485093 0.493734 0)
(0.550083 0.529363 0)
(0.556832 0.544511 0)
(0.48864 0.594784 0)
(0.410658 0.668848 0)
(0.303702 0.757862 0)
(0.144458 0.85811 0)
(3 6.89862e-09 0)
(3 4.48821e-08 0)
(3 1.52055e-07 0)
(3 4.43622e-07 0)
(2.99999 1.15803e-06 0)
(2.99999 3.03322e-06 0)
(2.99996 7.5555e-06 0)
(2.99991 1.93789e-05 0)
(2.99976 4.76685e-05 0)
(2.9994 0.000121556 0)
(2.99845 0.000297793 0)
(2.99614 0.000756086 0)
(2.99014 0.00186569 0)
(2.9748 0.0047164 0)
(2.93329 0.0121249 0)
(2.81412 0.0326069 0)
(2.45469 0.0924839 0)
(1.44183 0.268598 0)
(0.617662 0.565103 0)
(0.564024 0.598436 0)
(0.579992 0.611563 0)
(0.548835 0.672548 0)
(0.487599 0.763978 0)
(0.404661 0.901356 0)
(0.225971 1.14189 0)
(3 6.24859e-09 0)
(3 4.21202e-08 0)
(3 1.40596e-07 0)
(3 4.18701e-07 0)
(3 1.08334e-06 0)
(2.99999 2.91314e-06 0)
(2.99997 7.11969e-06 0)
(2.99992 1.90319e-05 0)
(2.9998 4.53175e-05 0)
(2.9995 0.000121501 0)
(2.99872 0.00028604 0)
(2.9968 0.000765848 0)
(2.99181 0.00181592 0)
(2.97909 0.00477266 0)
(2.94489 0.0119424 0)
(2.84725 0.0322328 0)
(2.55089 0.0908451 0)
(1.67005 0.262853 0)
(0.778034 0.629963 0)
(0.588681 0.652764 0)
(0.621019 0.672757 0)
(0.627555 0.738271 0)
(0.603216 0.845625 0)
(0.606832 1.01391 0)
(0.652432 1.29862 0)
(3 5.61944e-09 0)
(3 3.70307e-08 0)
(3 1.23765e-07 0)
(3 3.71135e-07 0)
(3 9.54327e-07 0)
(2.99999 2.58599e-06 0)
(2.99998 6.39965e-06 0)
(2.99994 1.68733e-05 0)
(2.99984 4.18658e-05 0)
(2.9996 0.000108361 0)
(2.99899 0.00027142 0)
(2.99742 0.000694757 0)
(2.99348 0.00175451 0)
(2.98323 0.00446772 0)
(2.95614 0.0115427 0)
(2.87963 0.0306772 0)
(2.64655 0.087552 0)
(1.9254 0.258625 0)
(0.970903 0.690061 0)
(0.638599 0.712428 0)
(0.683827 0.733372 0)
(0.722859 0.790751 0)
(0.734107 0.897651 0)
(0.795954 1.05845 0)
(0.963053 1.27901 0)
(3 4.77196e-09 0)
(3 3.19252e-08 0)
(3 1.05259e-07 0)
(3 3.19147e-07 0)
(3 8.09355e-07 0)
(2.99999 2.20549e-06 0)
(2.99998 5.42229e-06 0)
(2.99995 1.42871e-05 0)
(2.99988 3.55256e-05 0)
(2.99969 9.15957e-05 0)
(2.99921 0.000231173 0)
(2.99804 0.000587809 0)
(2.99495 0.00149853 0)
(2.98724 0.00381381 0)
(2.96676 0.00984977 0)
(2.91049 0.0262308 0)
(2.74188 0.0740827 0)
(2.21173 0.225362 0)
(1.21651 0.677649 0)
(0.735164 0.756357 0)
(0.764001 0.798593 0)
(0.817991 0.835511 0)
(0.85783 0.923226 0)
(0.943845 1.05528 0)
(1.13287 1.2012 0)
(3 4.08741e-09 0)
(3 2.6526e-08 0)
(3 9.15654e-08 0)
(3 2.62428e-07 0)
(3 7.03782e-07 0)
(2.99999 1.81921e-06 0)
(2.99999 4.60738e-06 0)
(2.99996 1.19402e-05 0)
(2.99991 2.92605e-05 0)
(2.99976 7.70722e-05 0)
(2.99941 0.000185467 0)
(2.99847 0.000492496 0)
(2.99617 0.00118215 0)
(2.99019 0.00312501 0)
(2.97485 0.00772395 0)
(2.93314 0.0205934 0)
(2.81263 0.056058 0)
(2.446 0.168782 0)
(1.49268 0.543569 0)
(0.869387 0.787245 0)
(0.84215 0.85513 0)
(0.888213 0.881964 0)
(0.956158 0.938529 0)
(1.05285 1.03523 0)
(1.22964 1.13099 0)
(3 3.64154e-09 0)
(3 2.11308e-08 0)
(3 7.80109e-08 0)
(3 2.10014e-07 0)
(3 5.98052e-07 0)
(3 1.4571e-06 0)
(2.99999 3.98518e-06 0)
(2.99997 9.53296e-06 0)
(2.99993 2.57658e-05 0)
(2.99982 6.17214e-05 0)
(2.99956 0.000164868 0)
(2.99887 0.000397978 0)
(2.99715 0.00104977 0)
(2.99269 0.0025676 0)
(2.9813 0.0066814 0)
(2.95072 0.0169907 0)
(2.86381 0.0458732 0)
(2.60047 0.131287 0)
(1.81341 0.404862 0)
(1.05527 0.839993 0)
(0.914684 0.901488 0)
(0.945403 0.927088 0)
(1.02729 0.953682 0)
(1.13411 1.01567 0)
(1.29226 1.07919 0)
(3 2.69326e-09 0)
(3 1.70645e-08 0)
(3 5.82881e-08 0)
(3 1.70783e-07 0)
(3 4.47968e-07 0)
(3 1.18211e-06 0)
(2.99999 3.01057e-06 0)
(2.99998 7.67219e-06 0)
(2.99995 1.97772e-05 0)
(2.99988 4.93889e-05 0)
(2.99969 0.000128667 0)
(2.99921 0.000317587 0)
(2.99798 0.000834047 0)
(2.99488 0.00205242 0)
(2.98686 0.00538111 0)
(2.96575 0.0136314 0)
(2.90708 0.0367653 0)
(2.73036 0.103632 0)
(2.17009 0.318066 0)
(1.32751 0.842985 0)
(1.01754 0.92725 0)
(1.01728 0.9611 0)
(1.09032 0.973386 0)
(1.19998 1.00234 0)
(1.34061 1.04199 0)
(3 1.93062e-09 0)
(3 1.32033e-08 0)
(3 4.311e-08 0)
(3 1.31715e-07 0)
(3 3.31813e-07 0)
(3 9.10178e-07 0)
(2.99999 2.19969e-06 0)
(2.99999 5.91292e-06 0)
(2.99997 1.42385e-05 0)
(2.99992 3.79245e-05 0)
(2.99978 9.19564e-05 0)
(2.99946 0.000242252 0)
(2.99859 0.000594214 0)
(2.99648 0.00155092 0)
(2.99096 0.00386545 0)
(2.97684 0.01006 0)
(2.9386 0.0263175 0)
(2.82898 0.0728675 0)
(2.49308 0.220896 0)
(1.65839 0.689963 0)
(1.16753 0.920431 0)
(1.1057 0.978146 0)
(1.14754 0.998303 0)
(1.24991 1.00496 0)
(1.38059 1.02327 0)
(3 1.48545e-09 0)
(3 9.41446e-09 0)
(3 3.28444e-08 0)
(3 9.34908e-08 0)
(3 2.51977e-07 0)
(3 6.48762e-07 0)
(3 1.66148e-06 0)
(2.99999 4.25314e-06 0)
(2.99998 1.06701e-05 0)
(2.99994 2.75349e-05 0)
(2.99986 6.83634e-05 0)
(2.99963 0.000177652 0)
(2.99907 0.00043884 0)
(2.99761 0.00114468 0)
(2.99395 0.00284106 0)
(2.98443 0.00738647 0)
(2.95925 0.0189002 0)
(2.88848 0.050971 0)
(2.67573 0.145788 0)
(2.02768 0.461583 0)
(1.36642 0.930482 0)
(1.19997 1.0012 0)
(1.21089 1.03073 0)
(1.29322 1.02618 0)
(1.4142 1.02049 0)
(3 1.06728e-09 0)
(3 6.56764e-09 0)
(3 2.31448e-08 0)
(3 6.52505e-08 0)
(3 1.77564e-07 0)
(3 4.50701e-07 0)
(3 1.18e-06 0)
(2.99999 2.93304e-06 0)
(2.99999 7.63636e-06 0)
(2.99996 1.89128e-05 0)
(2.99991 4.9193e-05 0)
(2.99976 0.00012221 0)
(2.9994 0.000316675 0)
(2.99848 0.00079055 0)
(2.99616 0.00204335 0)
(2.99022 0.00514974 0)
(2.97481 0.013356 0)
(2.93321 0.0352264 0)
(2.81283 0.0984204 0)
(2.43185 0.303835 0)
(1.68233 0.823203 0)
(1.3326 0.9951 0)
(1.29203 1.04262 0)
(1.33642 1.04787 0)
(1.44073 1.02807 0)
(3 6.95602e-10 0)
(3 4.54253e-09 0)
(3 1.52546e-08 0)
(3 4.521e-08 0)
(3 1.17436e-07 0)
(3 3.11915e-07 0)
(3 7.82087e-07 0)
(3 2.02531e-06 0)
(2.99999 5.07469e-06 0)
(2.99998 1.29968e-05 0)
(2.99994 3.26852e-05 0)
(2.99985 8.31374e-05 0)
(2.99963 0.000210516 0)
(2.99905 0.000530979 0)
(2.99758 0.00135511 0)
(2.99386 0.00340432 0)
(2.98427 0.00874522 0)
(2.95878 0.022513 0)
(2.88782 0.0606696 0)
(2.67385 0.176357 0)
(2.05733 0.551005 0)
(1.51555 0.970786 0)
(1.38515 1.04566 0)
(1.39151 1.06898 0)
(1.46888 1.0523 0)
(3 4.75408e-10 0)
(3 2.81409e-09 0)
(3 1.02689e-08 0)
(3 2.80351e-08 0)
(3 7.86832e-08 0)
(3 1.95443e-07 0)
(3 5.21942e-07 0)
(3 1.28101e-06 0)
(2.99999 3.36946e-06 0)
(2.99999 8.30619e-06 0)
(2.99996 2.16271e-05 0)
(2.99991 5.36529e-05 0)
(2.99977 0.000138539 0)
(2.99944 0.00034685 0)
(2.99855 0.000886324 0)
(2.99637 0.00224374 0)
(2.99071 0.00571335 0)
(2.97625 0.0146484 0)
(2.93714 0.0386948 0)
(2.82531 0.107337 0)
(2.4707 0.33256 0)
(1.81665 0.839159 0)
(1.51068 1.02389 0)
(1.46796 1.07383 0)
(1.50429 1.07873 0)
(3 2.74935e-10 0)
(3 1.80675e-09 0)
(3 6.12124e-09 0)
(3 1.80414e-08 0)
(3 4.72249e-08 0)
(3 1.25989e-07 0)
(3 3.13933e-07 0)
(3 8.27247e-07 0)
(3 2.03271e-06 0)
(2.99999 5.36061e-06 0)
(2.99998 1.30862e-05 0)
(2.99995 3.44809e-05 0)
(2.99987 8.40396e-05 0)
(2.99967 0.000220281 0)
(2.99916 0.000538509 0)
(2.99788 0.00140339 0)
(2.9946 0.00345686 0)
(2.9862 0.00895994 0)
(2.96396 0.0227868 0)
(2.90271 0.0612616 0)
(2.71873 0.176868 0)
(2.19266 0.53894 0)
(1.70148 0.965502 0)
(1.56546 1.06199 0)
(1.55956 1.09079 0)
(3 1.61573e-10 0)
(3 1.074e-09 0)
(3 3.57756e-09 0)
(3 1.07485e-08 0)
(3 2.7696e-08 0)
(3 7.49822e-08 0)
(3 1.85514e-07 0)
(3 4.90921e-07 0)
(3 1.21035e-06 0)
(3 3.16544e-06 0)
(2.99999 7.85079e-06 0)
(2.99997 2.033e-05 0)
(2.99993 5.07399e-05 0)
(2.99981 0.000130417 0)
(2.99954 0.000328198 0)
(2.9988 0.000835236 0)
(2.99701 0.00212444 0)
(2.99232 0.00538602 0)
(2.98043 0.0138423 0)
(2.94859 0.0362554 0)
(2.85953 0.0996958 0)
(2.58325 0.303844 0)
(2.01156 0.782368 0)
(1.70018 1.02235 0)
(1.63906 1.08524 0)
(3 9.58799e-11 0)
(3 5.92411e-10 0)
(3 2.07747e-09 0)
(3 5.93112e-09 0)
(3 1.61088e-08 0)
(3 4.14896e-08 0)
(3 1.0862e-07 0)
(3 2.72719e-07 0)
(3 7.11985e-07 0)
(3 1.76888e-06 0)
(2.99999 4.6354e-06 0)
(2.99998 1.1444e-05 0)
(2.99996 3.00169e-05 0)
(2.9999 7.39142e-05 0)
(2.99975 0.000193368 0)
(2.99937 0.000475931 0)
(2.99839 0.00124184 0)
(2.99596 0.0030652 0)
(2.98962 0.00795422 0)
(2.97318 0.0201 0)
(2.92853 0.0534545 0)
(2.79701 0.150147 0)
(2.40334 0.450668 0)
(1.92038 0.906207 0)
(1.74114 1.05385 0)
(3 5.07325e-11 0)
(3 3.19193e-10 0)
(3 1.12029e-09 0)
(3 3.18737e-09 0)
(3 8.72653e-09 0)
(3 2.24283e-08 0)
(3 5.88514e-08 0)
(3 1.49187e-07 0)
(3 3.85413e-07 0)
(3 9.81172e-07 0)
(3 2.49826e-06 0)
(2.99999 6.39301e-06 0)
(2.99998 1.61053e-05 0)
(2.99995 4.13168e-05 0)
(2.99987 0.000103149 0)
(2.99968 0.000266222 0)
(2.99916 0.000658861 0)
(2.99791 0.00170942 0)
(2.9946 0.00424318 0)
(2.98626 0.0110126 0)
(2.96387 0.0283087 0)
(2.90254 0.0768029 0)
(2.71531 0.227176 0)
(2.25656 0.634617 0)
(1.90684 0.974041 0)
(3 2.61946e-11 0)
(3 1.62029e-10 0)
(3 5.76032e-10 0)
(3 1.62488e-09 0)
(3 4.49864e-09 0)
(3 1.1516e-08 0)
(3 3.04739e-08 0)
(3 7.7104e-08 0)
(3 2.00469e-07 0)
(3 5.09271e-07 0)
(3 1.305e-06 0)
(3 3.3349e-06 0)
(2.99999 8.44324e-06 0)
(2.99998 2.17547e-05 0)
(2.99994 5.43354e-05 0)
(2.99984 0.000141359 0)
(2.99959 0.000349833 0)
(2.99895 0.000913907 0)
(2.99736 0.00226552 0)
(2.99318 0.00591167 0)
(2.98264 0.0149318 0)
(2.95442 0.0397296 0)
(2.876 0.108788 0)
(2.63824 0.327696 0)
(2.18664 0.765801 0)
(3 1.27788e-11 0)
(3 7.85846e-11 0)
(3 2.77308e-10 0)
(3 7.94777e-10 0)
(3 2.17177e-09 0)
(3 5.66935e-09 0)
(3 1.48753e-08 0)
(3 3.7969e-08 0)
(3 9.94935e-08 0)
(3 2.49951e-07 0)
(3 6.58442e-07 0)
(3 1.63791e-06 0)
(3 4.32117e-06 0)
(2.99999 1.06926e-05 0)
(2.99997 2.82347e-05 0)
(2.99992 6.9611e-05 0)
(2.99981 0.000183463 0)
(2.99951 0.000452032 0)
(2.99876 0.00118798 0)
(2.9968 0.00293864 0)
(2.99193 0.0076711 0)
(2.97909 0.0193788 0)
(2.94513 0.0515265 0)
(2.84693 0.142974 0)
(2.56044 0.411425 0)
(3 5.59289e-12 0)
(3 3.66666e-11 0)
(3 1.23709e-10 0)
(3 3.72009e-10 0)
(3 9.78577e-10 0)
(3 2.67186e-09 0)
(3 6.7785e-09 0)
(3 1.80765e-08 0)
(3 4.57057e-08 0)
(3 1.2024e-07 0)
(3 3.04755e-07 0)
(3 7.93181e-07 0)
(3 2.02203e-06 0)
(2.99999 5.19824e-06 0)
(2.99999 1.33295e-05 0)
(2.99997 3.39412e-05 0)
(2.99991 8.7216e-05 0)
(2.99978 0.000220046 0)
(2.99943 0.000568402 0)
(2.99858 0.00141775 0)
(2.99631 0.00368036 0)
(2.99069 0.00919592 0)
(2.9756 0.0240278 0)
(2.93543 0.0631076 0)
(2.81532 0.180423 0)
(3 2.40172e-12 0)
(3 1.56746e-11 0)
(3 5.3739e-11 0)
(3 1.59269e-10 0)
(3 4.3026e-10 0)
(3 1.1547e-09 0)
(3 3.00011e-09 0)
(3 7.93315e-09 0)
(3 2.02772e-08 0)
(3 5.36651e-08 0)
(3 1.3558e-07 0)
(3 3.58981e-07 0)
(3 9.00152e-07 0)
(3 2.38276e-06 0)
(2.99999 5.93585e-06 0)
(2.99999 1.57323e-05 0)
(2.99996 3.89444e-05 0)
(2.99991 0.000103009 0)
(2.99976 0.000254184 0)
(2.99939 0.000668754 0)
(2.99841 0.00165321 0)
(2.996 0.00433127 0)
(2.98958 0.0108426 0)
(2.97289 0.0286282 0)
(2.92734 0.075999 0)
(3 9.88266e-13 0)
(3 6.21776e-12 0)
(3 2.1962e-11 0)
(3 6.37188e-11 0)
(3 1.77343e-10 0)
(3 4.67659e-10 0)
(3 1.25265e-09 0)
(3 3.24418e-09 0)
(3 8.57935e-09 0)
(3 2.2172e-08 0)
(3 5.7953e-08 0)
(3 1.50079e-07 0)
(3 3.8777e-07 0)
(3 1.0059e-06 0)
(3 2.57715e-06 0)
(2.99999 6.69186e-06 0)
(2.99999 1.69938e-05 0)
(2.99996 4.4348e-05 0)
(2.9999 0.000111124 0)
(2.99975 0.000291749 0)
(2.99936 0.000724584 0)
(2.99834 0.00190602 0)
(2.99579 0.00475942 0)
(2.98902 0.0124741 0)
(2.97141 0.032291 0)
(3 3.62335e-13 0)
(3 2.27803e-12 0)
(3 8.28321e-12 0)
(3 2.35286e-11 0)
(3 6.74441e-11 0)
(3 1.76171e-10 0)
(3 4.84419e-10 0)
(3 1.24317e-09 0)
(3 3.37325e-09 0)
(3 8.60158e-09 0)
(3 2.31398e-08 0)
(3 5.87037e-08 0)
(3 1.57286e-07 0)
(3 3.96638e-07 0)
(3 1.06117e-06 0)
(3 2.66056e-06 0)
(2.99999 7.09264e-06 0)
(2.99999 1.77199e-05 0)
(2.99996 4.69434e-05 0)
(2.9999 0.000117167 0)
(2.99976 0.000308588 0)
(2.99936 0.000772233 0)
(2.99838 0.00202469 0)
(2.99576 0.00510865 0)
(2.98912 0.0133831 0)
(3 1.286e-13 0)
(3 7.99426e-13 0)
(3 2.89232e-12 0)
(3 8.30135e-12 0)
(3 2.38299e-11 0)
(3 6.26761e-11 0)
(3 1.72885e-10 0)
(3 4.49268e-10 0)
(3 1.22248e-09 0)
(3 3.15729e-09 0)
(3 8.53009e-09 0)
(3 2.18826e-08 0)
(3 5.87922e-08 0)
(3 1.49903e-07 0)
(3 4.01051e-07 0)
(3 1.01561e-06 0)
(3 2.71304e-06 0)
(2.99999 6.819e-06 0)
(2.99999 1.81865e-05 0)
(2.99997 4.54749e-05 0)
(2.99991 0.000120685 0)
(2.99977 0.000301774 0)
(2.9994 0.000796808 0)
(2.99848 0.00200246 0)
(2.99601 0.00526057 0)
(3 4.12582e-14 0)
(3 2.47925e-13 0)
(3 9.21075e-13 0)
(3 2.724e-12 0)
(3 7.60918e-12 0)
(3 2.12752e-11 0)
(3 5.57431e-11 0)
(3 1.54614e-10 0)
(3 3.99777e-10 0)
(3 1.09999e-09 0)
(3 2.83068e-09 0)
(3 7.73133e-09 0)
(3 1.98263e-08 0)
(3 5.3748e-08 0)
(3 1.3726e-07 0)
(3 3.69829e-07 0)
(3 9.39446e-07 0)
(3 2.52142e-06 0)
(3 6.36056e-06 0)
(2.99999 1.70471e-05 0)
(2.99997 4.27235e-05 0)
(2.99992 0.000114144 0)
(2.9998 0.000285506 0)
(2.99948 0.000759001 0)
(2.99864 0.00190581 0)
(3 5.53389e-15 0)
(3 5.17067e-14 0)
(3 2.17009e-13 0)
(3 7.75321e-13 0)
(3 2.34721e-12 0)
(3 6.32972e-12 0)
(3 1.78943e-11 0)
(3 4.69851e-11 0)
(3 1.29051e-10 0)
(3 3.42059e-10 0)
(3 9.17493e-10 0)
(3 2.45579e-09 0)
(3 6.4578e-09 0)
(3 1.73925e-08 0)
(3 4.50715e-08 0)
(3 1.2163e-07 0)
(3 3.11862e-07 0)
(3 8.40706e-07 0)
(3 2.14534e-06 0)
(3 5.74687e-06 0)
(2.99999 1.46492e-05 0)
(2.99998 3.88186e-05 0)
(2.99994 9.90792e-05 0)
(2.99983 0.0002602 0)
(2.99957 0.000665114 0)
(3 1.65095e-14 0)
(3 4.07516e-14 0)
(3 8.23279e-14 0)
(3 2.64411e-13 0)
(3 6.59389e-13 0)
(3 1.87986e-12 0)
(3 4.98569e-12 0)
(3 1.3943e-11 0)
(3 3.74011e-11 0)
(3 1.01425e-10 0)
(3 2.74486e-10 0)
(3 7.26431e-10 0)
(3 1.98042e-09 0)
(3 5.15062e-09 0)
(3 1.41124e-08 0)
(3 3.62845e-08 0)
(3 9.91027e-08 0)
(3 2.53623e-07 0)
(3 6.88408e-07 0)
(3 1.75714e-06 0)
(3 4.73483e-06 0)
(2.99999 1.20464e-05 0)
(2.99998 3.22702e-05 0)
(2.99995 8.17663e-05 0)
(2.99987 0.000218334 0)
(3 1.45044e-14 0)
(3 5.28442e-14 0)
(3 1.00044e-13 0)
(3 1.51432e-13 0)
(3 2.79374e-13 0)
(3 6.09267e-13 0)
(3 1.50933e-12 0)
(3 3.80128e-12 0)
(3 1.05611e-11 0)
(3 2.81673e-11 0)
(3 7.55656e-11 0)
(3 2.06497e-10 0)
(3 5.41921e-10 0)
(3 1.49509e-09 0)
(3 3.87237e-09 0)
(3 1.06631e-08 0)
(3 2.75132e-08 0)
(3 7.50703e-08 0)
(3 1.94283e-07 0)
(3 5.21846e-07 0)
(3 1.35841e-06 0)
(3 3.60348e-06 0)
(2.99999 9.37592e-06 0)
(2.99999 2.47231e-05 0)
(2.99996 6.40296e-05 0)
(3 1.84092e-14 0)
(3 4.91657e-14 0)
(3 8.16674e-14 0)
(3 1.2048e-13 0)
(3 1.6025e-13 0)
(3 2.35362e-13 0)
(3 4.92416e-13 0)
(3 1.06916e-12 0)
(3 2.83615e-12 0)
(3 7.32169e-12 0)
(3 2.01113e-11 0)
(3 5.26566e-11 0)
(3 1.46268e-10 0)
(3 3.82429e-10 0)
(3 1.04751e-09 0)
(3 2.77814e-09 0)
(3 7.40236e-09 0)
(3 1.99877e-08 0)
(3 5.20696e-08 0)
(3 1.41653e-07 0)
(3 3.64551e-07 0)
(3 9.90719e-07 0)
(3 2.53695e-06 0)
(3 6.84766e-06 0)
(2.99999 1.74956e-05 0)
(3 -1.55271e-14 0)
(3 -2.25296e-14 0)
(3 -3.30201e-14 0)
(3 -3.69229e-14 0)
(3 -4.57347e-14 0)
(3 -3.81351e-14 0)
(3 7.22646e-15 0)
(3 1.58874e-13 0)
(3 5.69054e-13 0)
(3 1.69468e-12 0)
(3 4.70483e-12 0)
(3 1.32161e-11 0)
(3 3.47363e-11 0)
(3 9.69503e-11 0)
(3 2.53891e-10 0)
(3 6.94807e-10 0)
(3 1.84447e-09 0)
(3 4.91979e-09 0)
(3 1.32692e-08 0)
(3 3.46344e-08 0)
(3 9.41479e-08 0)
(3 2.42463e-07 0)
(3 6.60659e-07 0)
(3 1.68778e-06 0)
(3 4.58018e-06 0)
(3 6.49018e-15 0)
(3 6.18175e-15 0)
(3 8.48322e-15 0)
(3 -1.72493e-15 0)
(3 2.87069e-15 0)
(3 3.15629e-14 0)
(3 5.50483e-14 0)
(3 1.0785e-13 0)
(3 2.02011e-13 0)
(3 4.77781e-13 0)
(3 1.20028e-12 0)
(3 3.06542e-12 0)
(3 8.45675e-12 0)
(3 2.20401e-11 0)
(3 6.03913e-11 0)
(3 1.60585e-10 0)
(3 4.29945e-10 0)
(3 1.16331e-09 0)
(3 3.04872e-09 0)
(3 8.32625e-09 0)
(3 2.14823e-08 0)
(3 5.87972e-08 0)
(3 1.50886e-07 0)
(3 4.08389e-07 0)
(3 1.05754e-06 0)
(3 1.5565e-14 0)
(3 2.82987e-14 0)
(3 3.99681e-14 0)
(3 5.29523e-14 0)
(3 5.73125e-14 0)
(3 6.82626e-14 0)
(3 7.8619e-14 0)
(3 1.02238e-13 0)
(3 1.08681e-13 0)
(3 1.58681e-13 0)
(3 2.74722e-13 0)
(3 6.80417e-13 0)
(3 1.74723e-12 0)
(3 4.92468e-12 0)
(3 1.29198e-11 0)
(3 3.57302e-11 0)
(3 9.47106e-11 0)
(3 2.52983e-10 0)
(3 6.85636e-10 0)
(3 1.78069e-09 0)
(3 4.88514e-09 0)
(3 1.25333e-08 0)
(3 3.4158e-08 0)
(3 8.80419e-08 0)
(3 2.35359e-07 0)
(3 -9.37099e-15 0)
(3 -1.84224e-14 0)
(3 -2.50642e-14 0)
(3 -1.82512e-14 0)
(3 7.45756e-16 0)
(3 4.56796e-15 0)
(3 1.20246e-14 0)
(3 3.41953e-14 0)
(3 8.15601e-14 0)
(3 1.37328e-13 0)
(3 2.0061e-13 0)
(3 3.36427e-13 0)
(3 5.81687e-13 0)
(3 1.20984e-12 0)
(3 2.9807e-12 0)
(3 7.43659e-12 0)
(3 2.01902e-11 0)
(3 5.31469e-11 0)
(3 1.41235e-10 0)
(3 3.81522e-10 0)
(3 9.86024e-10 0)
(3 2.69493e-09 0)
(3 6.89418e-09 0)
(3 1.86014e-08 0)
(3 4.82311e-08 0)
(3 -7.70268e-15 0)
(3 -4.09286e-15 0)
(3 1.41178e-14 0)
(3 -7.33763e-16 0)
(3 -4.51634e-15 0)
(3 -9.04387e-15 0)
(3 -1.50268e-14 0)
(3 -4.56982e-15 0)
(3 1.33312e-14 0)
(3 3.29551e-14 0)
(3 5.52448e-14 0)
(3 1.08388e-13 0)
(3 1.80517e-13 0)
(3 2.94745e-13 0)
(3 6.29431e-13 0)
(3 1.58134e-12 0)
(3 3.96542e-12 0)
(3 1.07963e-11 0)
(3 2.83161e-11 0)
(3 7.45964e-11 0)
(3 2.00895e-10 0)
(3 5.15857e-10 0)
(3 1.4033e-09 0)
(3 3.56956e-09 0)
(3 9.56791e-09 0)
(3 1.54412e-15 0)
(3 9.4639e-15 0)
(3 2.00922e-14 0)
(3 1.30586e-14 0)
(3 -1.57486e-14 0)
(3 -4.75808e-14 0)
(3 -4.52148e-14 0)
(3 -5.38757e-14 0)
(3 -8.3862e-14 0)
(3 -1.09501e-13 0)
(3 -1.48807e-13 0)
(3 -1.82169e-13 0)
(3 -1.81486e-13 0)
(3 -1.53096e-13 0)
(3 -6.06595e-14 0)
(3 1.53547e-13 0)
(3 6.88811e-13 0)
(3 1.96969e-12 0)
(3 5.43855e-12 0)
(3 1.43585e-11 0)
(3 3.75771e-11 0)
(3 1.00242e-10 0)
(3 2.55885e-10 0)
(3 6.90655e-10 0)
(3 1.74263e-09 0)
(3 3.2788e-14 0)
(3 4.57443e-14 0)
(3 4.45783e-14 0)
(3 6.87531e-14 0)
(3 8.71231e-14 0)
(3 8.63104e-14 0)
(3 9.27811e-14 0)
(3 8.81311e-14 0)
(3 9.38487e-14 0)
(3 9.13895e-14 0)
(3 9.0167e-14 0)
(3 6.96582e-14 0)
(3 6.27072e-14 0)
(3 5.16526e-14 0)
(3 3.45043e-14 0)
(3 6.58914e-14 0)
(3 1.46801e-13 0)
(3 3.58113e-13 0)
(3 9.67762e-13 0)
(3 2.65909e-12 0)
(3 6.79054e-12 0)
(3 1.81192e-11 0)
(3 4.70089e-11 0)
(3 1.21649e-10 0)
(3 3.21323e-10 0)
(3 -2.06867e-14 0)
(3 -4.5143e-14 0)
(3 -5.59865e-14 0)
(3 -5.91815e-14 0)
(3 -4.98443e-14 0)
(3 -3.22362e-14 0)
(3 -1.93249e-14 0)
(3 1.71298e-14 0)
(3 5.89248e-14 0)
(3 9.14132e-14 0)
(3 1.20102e-13 0)
(3 1.50096e-13 0)
(3 1.75717e-13 0)
(3 1.83695e-13 0)
(3 1.88318e-13 0)
(3 1.88399e-13 0)
(3 2.00591e-13 0)
(3 2.14127e-13 0)
(3 3.02732e-13 0)
(3 5.71487e-13 0)
(3 1.27865e-12 0)
(3 3.20111e-12 0)
(3 8.2856e-12 0)
(3 2.12216e-11 0)
(3 5.46521e-11 0)
(3 -3.22288e-14 0)
(3 -4.39919e-14 0)
(3 -5.01652e-14 0)
(3 -5.27645e-14 0)
(3 -5.71822e-14 0)
(3 -5.50449e-14 0)
(3 -5.4435e-14 0)
(3 -5.69697e-14 0)
(3 -6.43571e-14 0)
(3 -6.28701e-14 0)
(3 -6.22077e-14 0)
(3 -5.70292e-14 0)
(3 -4.95844e-14 0)
(3 -3.43559e-14 0)
(3 1.03397e-14 0)
(3 5.25334e-14 0)
(3 1.06265e-13 0)
(3 1.58189e-13 0)
(3 2.12452e-13 0)
(3 2.62596e-13 0)
(3 3.86441e-13 0)
(3 7.47946e-13 0)
(3 1.57787e-12 0)
(3 3.8312e-12 0)
(3 9.31673e-12 0)
(3 3.03618e-15 0)
(3 4.5663e-15 0)
(3 -9.4339e-16 0)
(3 9.47423e-15 0)
(3 1.54314e-14 0)
(3 2.07182e-14 0)
(3 2.27786e-14 0)
(3 7.85205e-15 0)
(3 -8.05275e-15 0)
(3 -1.6523e-14 0)
(3 -1.38479e-14 0)
(3 2.10308e-15 0)
(3 1.16961e-14 0)
(3 2.68397e-14 0)
(3 6.09282e-14 0)
(3 1.00571e-13 0)
(3 1.43894e-13 0)
(3 1.74928e-13 0)
(3 1.79864e-13 0)
(3 1.89469e-13 0)
(3 2.29698e-13 0)
(3 2.93407e-13 0)
(3 4.52276e-13 0)
(3 8.16498e-13 0)
(3 1.68695e-12 0)
(3 -3.33002e-15 0)
(3 -2.89406e-14 0)
(3 -6.0314e-14 0)
(3 -8.95943e-14 0)
(3 -1.18359e-13 0)
(3 -1.20966e-13 0)
(3 -1.10399e-13 0)
(3 -8.58758e-14 0)
(3 -6.11247e-14 0)
(3 -1.80196e-14 0)
(3 1.84499e-14 0)
(3 6.20858e-14 0)
(3 1.05349e-13 0)
(3 1.31751e-13 0)
(3 1.34012e-13 0)
(3 1.32101e-13 0)
(3 1.20205e-13 0)
(3 1.11173e-13 0)
(3 1.019e-13 0)
(3 1.1479e-13 0)
(3 1.18401e-13 0)
(3 1.22543e-13 0)
(3 1.30663e-13 0)
(3 1.6638e-13 0)
(3 2.94826e-13 0)
(3 2.47883e-15 0)
(3 2.82888e-14 0)
(3 5.43435e-14 0)
(3 7.30681e-14 0)
(3 8.72855e-14 0)
(3 1.04119e-13 0)
(3 1.19703e-13 0)
(3 1.25703e-13 0)
(3 1.3914e-13 0)
(3 1.44618e-13 0)
(3 1.38364e-13 0)
(3 1.28188e-13 0)
(3 1.36812e-13 0)
(3 1.43712e-13 0)
(3 1.39875e-13 0)
(3 1.37458e-13 0)
(3 1.22492e-13 0)
(3 1.20577e-13 0)
(3 1.17239e-13 0)
(3 1.0269e-13 0)
(3 6.97364e-14 0)
(3 4.38691e-14 0)
(3 5.42307e-14 0)
(3 8.40743e-14 0)
(3 1.21137e-13 0)
(3 1.28498e-14 0)
(3 5.59786e-14 0)
(3 1.06381e-13 0)
(3 1.537e-13 0)
(3 1.94127e-13 0)
(3 2.11185e-13 0)
(3 2.21037e-13 0)
(3 2.03348e-13 0)
(3 1.94876e-13 0)
(3 1.64386e-13 0)
(3 1.31674e-13 0)
(3 1.0264e-13 0)
(3 7.87709e-14 0)
(3 6.14432e-14 0)
(3 5.42819e-14 0)
(3 5.67699e-14 0)
(3 5.14706e-14 0)
(3 5.49572e-14 0)
(3 5.41313e-14 0)
(3 3.04458e-14 0)
(3 2.5282e-15 0)
(3 -1.64889e-14 0)
(3 -1.40358e-14 0)
(3 4.92877e-15 0)
(3 3.05299e-14 0)
(1.39926 1.19505 0)
(1.86996 0.977766 0)
(2.10175 0.699356 0)
(2.16805 0.409863 0)
(2.14342 0.173923 0)
(2.08926 0.0104985 0)
(2.02918 -0.0484207 0)
(2.00096 -0.03523 0)
(2.00646 -0.00597777 0)
(2.02114 0.0211377 0)
(2.04156 0.0394744 0)
(2.07018 0.0447011 0)
(2.09746 0.0364512 0)
(2.118 0.0219899 0)
(2.13585 0.0109107 0)
(2.15347 0.00553583 0)
(2.17228 0.00448404 0)
(2.19281 0.00566298 0)
(2.21487 0.00736912 0)
(2.23792 0.00854684 0)
(2.26127 0.00878552 0)
(2.28434 0.00817903 0)
(2.30669 0.00708283 0)
(2.32806 0.00588041 0)
(2.34833 0.00485705 0)
(2.36746 0.00415418 0)
(2.38548 0.00379601 0)
(2.40243 0.00372235 0)
(2.41835 0.00383551 0)
(2.43334 0.00405806 0)
(2.4475 0.00427641 0)
(2.46072 0.00436883 0)
(2.47301 0.00440712 0)
(2.4847 0.00434404 0)
(2.49572 0.00388338 0)
(2.5056 0.00312957 0)
(2.51453 0.00240108 0)
(2.52318 0.00171018 0)
(2.53195 0.000890205 0)
(2.54066 -0.000129625 0)
(2.54898 -0.00129679 0)
(2.55686 -0.00250456 0)
(2.5646 -0.00352083 0)
(2.57347 -0.00435283 0)
(2.58415 -0.00575786 0)
(2.59597 -0.00706349 0)
(2.60867 -0.00786838 0)
(2.62229 -0.00848041 0)
(2.63681 -0.00895123 0)
(2.65216 -0.0092815 0)
(2.66821 -0.00946583 0)
(2.68483 -0.00952487 0)
(2.70183 -0.00948792 0)
(2.71903 -0.00938041 0)
(2.73626 -0.0092222 0)
(2.75333 -0.00902759 0)
(2.77011 -0.0088052 0)
(2.78649 -0.00855745 0)
(2.80239 -0.00828172 0)
(2.81781 -0.00797311 0)
(2.83276 -0.00762806 0)
(2.84731 -0.00724761 0)
(2.86154 -0.00683673 0)
(2.8755 -0.00639835 0)
(2.88925 -0.00593591 0)
(2.9028 -0.00545813 0)
(2.91611 -0.00497455 0)
(2.9291 -0.0044938 0)
(2.94164 -0.00402386 0)
(2.95353 -0.0035707 0)
(2.96458 -0.00313674 0)
(2.97459 -0.00272348 0)
(2.98338 -0.00233614 0)
(2.99083 -0.00198124 0)
(2.99694 -0.00165948 0)
(3.00181 -0.0013667 0)
(3.00563 -0.00110445 0)
(3.0086 -0.000879677 0)
(3.01086 -0.000695282 0)
(3.01239 -0.000545032 0)
(3.01304 -0.000414543 0)
(3.01276 -0.000252994 0)
(3.01173 -0.000149415 0)
(3.0102 -0.000105936 0)
(3.00847 -8.46482e-05 0)
(3.00677 -6.7732e-05 0)
(3.00524 -4.76821e-05 0)
(3.00393 -2.44171e-05 0)
(3.00287 -1.169e-05 0)
(3.00203 -1.63982e-05 0)
(3.00139 -1.92149e-05 0)
(3.00094 -1.64432e-05 0)
(3.00062 -1.28308e-05 0)
(3.0004 -9.61528e-06 0)
(3.00025 -7.08264e-06 0)
(3.00015 -5.18194e-06 0)
(3.00009 -3.7773e-06 0)
(3.00005 -2.76295e-06 0)
(3.00003 -1.93951e-06 0)
(3.00001 -1.15681e-06 0)
(1.48877 1.09827 0)
(1.85365 0.797955 0)
(2.06804 0.466525 0)
(2.18374 0.1705 0)
(2.25651 -0.0420675 0)
(2.31227 -0.164609 0)
(2.35008 -0.195953 0)
(2.36725 -0.163459 0)
(2.37359 -0.115726 0)
(2.37617 -0.0720391 0)
(2.37817 -0.0367708 0)
(2.38096 -0.0174204 0)
(2.38754 -0.0125286 0)
(2.40084 -0.0160707 0)
(2.41842 -0.0229347 0)
(2.43605 -0.0297291 0)
(2.45257 -0.0327395 0)
(2.46821 -0.0323121 0)
(2.48345 -0.0298952 0)
(2.49863 -0.0271922 0)
(2.51388 -0.0250539 0)
(2.52917 -0.0237083 0)
(2.54427 -0.0230185 0)
(2.55895 -0.0227271 0)
(2.57295 -0.0225745 0)
(2.58616 -0.0223754 0)
(2.59853 -0.0220242 0)
(2.61009 -0.0214891 0)
(2.62091 -0.0207845 0)
(2.63111 -0.0199273 0)
(2.64076 -0.0190001 0)
(2.64988 -0.0181118 0)
(2.65853 -0.0171874 0)
(2.66669 -0.0162746 0)
(2.67434 -0.0156879 0)
(2.68144 -0.0153187 0)
(2.688 -0.0149314 0)
(2.69416 -0.0146314 0)
(2.70007 -0.0144683 0)
(2.70568 -0.0144853 0)
(2.71076 -0.014711 0)
(2.71528 -0.0150761 0)
(2.71933 -0.0154082 0)
(2.72319 -0.0157712 0)
(2.72801 -0.0167693 0)
(2.7343 -0.0179069 0)
(2.74125 -0.0188676 0)
(2.7486 -0.0197738 0)
(2.75669 -0.0206232 0)
(2.7656 -0.0213769 0)
(2.7753 -0.0219966 0)
(2.7857 -0.0224663 0)
(2.79666 -0.0227833 0)
(2.80804 -0.02295 0)
(2.81967 -0.0229717 0)
(2.83139 -0.022854 0)
(2.84303 -0.0226016 0)
(2.85448 -0.0222157 0)
(2.86566 -0.0216948 0)
(2.87654 -0.0210385 0)
(2.88714 -0.0202514 0)
(2.8975 -0.0193453 0)
(2.90771 -0.0183379 0)
(2.91783 -0.0172495 0)
(2.92791 -0.0161011 0)
(2.93795 -0.0149109 0)
(2.94792 -0.0136921 0)
(2.95773 -0.012457 0)
(2.96727 -0.0112201 0)
(2.97635 -0.00999771 0)
(2.98477 -0.00880481 0)
(2.99234 -0.00765522 0)
(2.99888 -0.00656596 0)
(3.00427 -0.00555525 0)
(3.0085 -0.00463218 0)
(3.01168 -0.00379516 0)
(3.01397 -0.00304312 0)
(3.01558 -0.00238043 0)
(3.01664 -0.00181031 0)
(3.01715 -0.00132799 0)
(3.01696 -0.000918513 0)
(3.01594 -0.000541157 0)