/*--------------------------------*- C++ -*----------------------------------*\
  =========                 |
  \\      /  F ield         | OpenFOAM: The Open Source CFD Toolbox
   \\    /   O peration     | Website:  https://openfoam.org
    \\  /    A nd           | Version:  13
     \\/     M anipulation  |
\*---------------------------------------------------------------------------*/
FoamFile
{
    format      ascii;
    class       volScalarField;
    location    "0.855";
    object      T;
}
// * * * * * * * * * * * * * * * * * * * * * * * * * * * * * * * * * * * * * //

dimensions      [0 0 0 1 0 0 0];

internalField   nonuniform List<scalar> 
1000
(
2.20287e-196
9.83418e-196
5.14214e-195
2.70034e-194
1.41557e-193
7.40604e-193
3.86703e-192
2.01514e-191
1.04801e-190
5.43945e-190
2.81758e-189
1.45654e-188
7.51445e-188
3.86897e-187
1.988e-186
1.01943e-185
5.21692e-185
2.66434e-184
1.35794e-183
6.9069e-183
3.50588e-182
1.77591e-181
8.97742e-181
4.52885e-180
2.27996e-179
1.14543e-178
5.7426e-178
2.87307e-177
1.43444e-176
7.14675e-176
3.55327e-175
1.76294e-174
8.72843e-174
4.31241e-173
2.12612e-172
1.04601e-171
5.13532e-171
2.51579e-170
1.22987e-169
5.99953e-169
2.92043e-168
1.41856e-167
6.87567e-167
3.32544e-166
1.6049e-165
7.7287e-165
3.71386e-164
1.78075e-163
8.51991e-163
4.06744e-162
1.93757e-161
9.20968e-161
4.36796e-160
2.06708e-159
9.76065e-159
4.59876e-158
2.16193e-157
1.0141e-156
4.74626e-156
2.21643e-155
1.03273e-154
4.8012e-154
2.22709e-153
1.03074e-152
4.75969e-152
2.19295e-151
1.00808e-150
4.62356e-150
2.11578e-149
9.65991e-149
4.40032e-148
1.99986e-147
9.06816e-147
4.10241e-146
1.85164e-145
8.33819e-145
3.74611e-144
1.67911e-143
7.50876e-143
3.34999e-142
1.49109e-141
6.62134e-141
2.93337e-140
1.29648e-139
5.71662e-139
2.5147e-138
1.10357e-137
4.83153e-137
2.11025e-136
9.19486e-136
3.99684e-135
1.73319e-134
7.49775e-134
3.2357e-133
1.39301e-132
5.98262e-132
2.56314e-131
1.09546e-130
4.67045e-130
1.98637e-129
8.42745e-129
3.56669e-128
1.50579e-127
6.34146e-127
2.66404e-126
1.11638e-125
4.66665e-125
1.94587e-124
8.09351e-124
3.35793e-123
1.38968e-122
5.73674e-122
2.36221e-121
9.70224e-121
3.97488e-120
1.62432e-119
6.62081e-119
2.69179e-118
1.09159e-117
4.41529e-117
1.78132e-116
7.16808e-116
2.877e-115
1.15173e-114
4.59866e-114
1.83139e-113
7.27432e-113
2.88182e-112
1.13868e-111
4.48734e-111
1.76373e-110
6.91392e-110
2.70311e-109
1.05402e-108
4.09895e-108
1.58978e-107
6.14944e-107
2.37229e-106
9.127e-106
3.50199e-105
1.34006e-104
5.11395e-104
1.94628e-103
7.38698e-103
2.79602e-102
1.05541e-101
3.9729e-101
1.49141e-100
5.5832e-100
2.08432e-99
7.75962e-99
2.88074e-98
1.06648e-97
3.9372e-97
1.44944e-96
5.32094e-96
1.94783e-95
7.1102e-95
2.5881e-94
9.39382e-94
3.39988e-93
1.22699e-92
4.41545e-92
1.58437e-91
5.66873e-91
2.02236e-90
7.194e-90
2.55164e-89
9.02404e-89
3.18209e-88
1.1188e-87
3.92204e-87
1.37086e-86
4.77737e-86
1.65996e-85
5.75063e-85
1.98627e-84
6.84011e-84
2.34848e-83
8.03905e-83
2.74355e-82
9.33491e-82
3.16658e-81
1.07091e-80
3.61068e-80
1.21367e-79
4.06705e-79
1.3587e-78
4.52514e-78
1.50244e-77
4.97298e-77
1.64092e-76
5.39765e-76
1.76997e-75
5.78582e-75
1.88538e-74
6.12444e-74
1.98318e-73
6.40147e-73
2.05977e-72
6.60652e-72
2.11222e-71
6.73154e-71
2.13842e-70
6.77132e-70
2.13722e-69
6.72384e-69
2.1085e-68
6.59045e-68
2.05322e-67
6.37578e-67
1.97334e-66
6.08752e-66
1.87172e-65
5.73591e-65
1.75194e-64
5.33318e-64
1.61809e-63
4.89282e-63
1.47454e-62
4.42882e-62
1.32571e-61
3.95491e-61
1.17583e-60
3.48396e-60
1.02876e-59
3.02734e-59
8.87797e-59
2.59458e-58
7.5564e-58
2.19308e-57
6.34279e-57
1.82805e-56
5.25019e-56
1.50257e-55
4.28512e-55
1.21774e-54
3.44833e-54
9.73009e-54
2.73574e-53
7.66443e-53
2.13957e-52
5.95125e-52
1.64939e-51
4.55477e-51
1.25323e-50
3.4357e-50
9.38452e-50
2.55398e-49
6.92512e-49
1.87084e-48
5.03547e-48
1.35031e-47
3.60753e-47
9.60214e-47
2.54625e-46
6.72673e-46
1.77041e-45
4.64196e-45
1.21251e-44
3.15516e-44
8.17905e-44
2.11215e-43
5.43353e-43
1.39242e-42
3.55454e-42
9.03896e-42
2.28965e-41
5.77736e-41
1.4521e-40
3.63548e-40
9.06618e-40
2.25204e-39
5.57203e-39
1.37319e-38
3.37071e-38
8.24106e-38
2.00682e-37
4.86735e-37
1.17579e-36
2.8289e-36
6.77873e-36
1.61777e-35
3.84519e-35
9.1022e-35
2.14584e-34
5.03807e-34
1.17799e-33
2.74302e-33
6.36083e-33
1.46891e-32
3.37805e-32
7.7361e-32
1.76424e-31
4.00651e-31
9.0603e-31
2.04025e-30
4.57488e-30
1.02148e-29
2.27104e-29
5.0276e-29
1.10824e-28
2.4324e-28
5.31571e-28
1.15666e-27
2.50591e-27
5.40546e-27
1.16092e-26
2.48238e-26
5.28476e-26
1.12013e-25
2.36369e-25
4.96579e-25
1.03862e-24
2.16265e-24
4.48305e-24
9.25153e-24
1.90064e-23
3.88713e-23
7.91394e-23
1.60393e-22
3.23597e-22
6.49892e-22
1.29925e-21
2.58553e-21
5.12165e-21
1.00987e-20
1.98205e-20
3.87211e-20
7.52941e-20
1.4573e-19
2.80741e-19
5.38301e-19
1.02731e-18
1.95134e-18
3.68902e-18
6.94112e-18
1.29982e-17
2.42253e-17
4.49344e-17
8.29486e-17
1.52389e-16
2.78616e-16
5.06948e-16
9.17949e-16
1.65412e-15
2.96621e-15
5.29323e-15
9.39974e-15
1.66105e-14
2.9209e-14
5.11109e-14
8.8995e-14
1.54195e-13
2.6584e-13
4.56049e-13
7.78467e-13
1.32221e-12
2.23453e-12
3.75747e-12
6.28667e-12
1.04655e-11
1.73342e-11
2.85662e-11
4.6838e-11
7.6408e-11
1.24013e-10
2.00255e-10
3.2172e-10
5.1422e-10
8.17697e-10
1.29361e-09
2.036e-09
3.18796e-09
4.96596e-09
7.69565e-09
1.18641e-08
1.81958e-08
2.77617e-08
4.21365e-08
6.36217e-08
9.55614e-08
1.42787e-07
2.12235e-07
3.1381e-07
4.61568e-07
6.75336e-07
9.82918e-07
1.42307e-06
2.04947e-06
2.93605e-06
4.18397e-06
5.93084e-06
8.36266e-06
1.17293e-05
1.63642e-05
2.27098e-05
3.13493e-05
4.30463e-05
5.87945e-05
7.98786e-05
0.000107948
0.000145109
0.000194029
0.000258066
0.000341419
0.000449304
0.000588151
0.000765833
0.000991926
0.00127798
0.00163786
0.00208801
0.00264789
0.00334026
0.00419158
0.00523237
0.00649748
0.00802646
0.00986372
0.0120587
0.0146661
0.0177454
0.021361
0.025582
0.0304812
0.0361346
0.0426207
0.0500189
0.0584086
0.0678675
0.0784699
0.090285
0.103375
0.117793
0.133581
0.150769
0.169372
0.189389
0.210802
0.233574
0.257651
0.282958
0.309403
0.336875
0.365248
0.39438
0.424117
0.454292
0.484734
0.515266
0.545708
0.575883
0.60562
0.634752
0.663125
0.690597
0.717042
0.742349
0.766426
0.789198
0.810611
0.830628
0.849231
0.866419
0.882207
0.896625
0.909715
0.92153
0.932132
0.941591
0.949981
0.957379
0.963865
0.969519
0.974418
0.978639
0.982255
0.985334
0.987941
0.990136
0.991973
0.993502
0.994767
0.995808
0.996659
0.997351
0.997911
0.998361
0.99872
0.999005
0.99923
0.999406
0.999542
0.999647
0.999726
0.999783
0.999824
0.999849
0.999861
0.999861
0.999849
0.999824
0.999783
0.999726
0.999647
0.999542
0.999406
0.99923
0.999005
0.99872
0.998361
0.997911
0.997351
0.996659
0.995808
0.994767
0.993502
0.991973
0.990136
0.987941
0.985334
0.982255
0.978639
0.974418
0.969519
0.963865
0.957379
0.949981
0.941591
0.932132
0.92153
0.909715
0.896625
0.882207
0.866419
0.849231
0.830628
0.810611
0.789198
0.766426
0.742349
0.717042
0.690597
0.663125
0.634752
0.60562
0.575883
0.545708
0.515266
0.484734
0.454292
0.424117
0.39438
0.365248
0.336875
0.309403
0.282958
0.257651
0.233574
0.210802
0.189389
0.169372
0.150769
0.133581
0.117793
0.103375
0.090285
0.0784699
0.0678675
0.0584086
0.0500189
0.0426207
0.0361346
0.0304812
0.025582
0.021361
0.0177454
0.0146661
0.0120587
0.00986372
0.00802646
0.00649748
0.00523237
0.00419158
0.00334026
0.00264789
0.00208801
0.00163786
0.00127798
0.000991926
0.000765833
0.000588151
0.000449304
0.000341419
0.000258066
0.000194029
0.000145109
0.000107948
7.98786e-05
5.87945e-05
4.30463e-05
3.13493e-05
2.27098e-05
1.63642e-05
1.17293e-05
8.36266e-06
5.93084e-06
4.18397e-06
2.93605e-06
2.04947e-06
1.42307e-06
9.82918e-07
6.75336e-07
4.61568e-07
3.1381e-07
2.12235e-07
1.42787e-07
9.55614e-08
6.36217e-08
4.21365e-08
2.77617e-08
1.81958e-08
1.18641e-08
7.69565e-09
4.96596e-09
3.18796e-09
2.036e-09
1.29361e-09
8.17697e-10
5.1422e-10
3.2172e-10
2.00255e-10
1.24013e-10
7.6408e-11
4.6838e-11
2.85662e-11
1.73342e-11
1.04655e-11
6.28667e-12
3.75747e-12
2.23453e-12
1.32221e-12
7.78467e-13
4.56049e-13
2.6584e-13
1.54195e-13
8.8995e-14
5.11109e-14
2.9209e-14
1.66105e-14
9.39974e-15
5.29323e-15
2.96621e-15
1.65412e-15
9.17949e-16
5.06948e-16
2.78616e-16
1.52389e-16
8.29486e-17
4.49344e-17
2.42253e-17
1.29982e-17
6.94112e-18
3.68902e-18
1.95134e-18
1.02731e-18
5.38301e-19
2.80741e-19
1.4573e-19
7.52941e-20
3.87211e-20
1.98205e-20
1.00987e-20
5.12165e-21
2.58553e-21
1.29925e-21
6.49892e-22
3.23597e-22
1.60393e-22
7.91394e-23
3.88713e-23
1.90064e-23
9.25153e-24
4.48305e-24
2.16265e-24
1.03862e-24
4.96579e-25
2.36369e-25
1.12013e-25
5.28476e-26
2.48238e-26
1.16092e-26
5.40546e-27
2.50591e-27
1.15666e-27
5.31571e-28
2.4324e-28
1.10824e-28
5.0276e-29
2.27104e-29
1.02148e-29
4.57488e-30
2.04025e-30
9.0603e-31
4.00651e-31
1.76424e-31
7.7361e-32
3.37805e-32
1.46891e-32
6.36083e-33
2.74302e-33
1.17799e-33
5.03807e-34
2.14584e-34
9.1022e-35
3.84519e-35
1.61777e-35
6.77873e-36
2.8289e-36
1.17579e-36
4.86735e-37
2.00682e-37
8.24106e-38
3.37071e-38
1.37319e-38
5.57203e-39
2.25204e-39
9.06618e-40
3.63548e-40
1.4521e-40
5.77736e-41
2.28965e-41
9.03896e-42
3.55454e-42
1.39242e-42
5.43353e-43
2.11215e-43
8.17905e-44
3.15516e-44
1.21251e-44
4.64196e-45
1.77041e-45
6.72673e-46
2.54625e-46
9.60214e-47
3.60753e-47
1.35031e-47
5.03547e-48
1.87084e-48
6.92512e-49
2.55398e-49
9.38452e-50
3.4357e-50
1.25323e-50
4.55477e-51
1.64939e-51
5.95125e-52
2.13957e-52
7.66443e-53
2.73574e-53
9.73009e-54
3.44833e-54
1.21774e-54
4.28512e-55
1.50257e-55
5.25019e-56
1.82805e-56
6.34279e-57
2.19308e-57
7.5564e-58
2.59458e-58
8.87797e-59
3.02734e-59
1.02876e-59
3.48396e-60
1.17583e-60
3.95491e-61
1.32571e-61
4.42882e-62
1.47454e-62
4.89282e-63
1.61809e-63
5.33318e-64
1.75194e-64
5.73591e-65
1.87172e-65
6.08752e-66
1.97334e-66
6.37578e-67
2.05322e-67
6.59045e-68
2.1085e-68
6.72384e-69
2.13722e-69
6.77132e-70
2.13842e-70
6.73154e-71
2.11222e-71
6.60652e-72
2.05977e-72
6.40147e-73
1.98318e-73
6.12444e-74
1.88538e-74
5.78582e-75
1.76997e-75
5.39765e-76
1.64092e-76
4.97298e-77
1.50244e-77
4.52514e-78
1.3587e-78
4.06705e-79
1.21367e-79
3.61068e-80
1.07091e-80
3.16658e-81
9.33491e-82
2.74355e-82
8.03905e-83
2.34848e-83
6.84011e-84
1.98627e-84
5.75063e-85
1.65996e-85
4.77737e-86
1.37086e-86
3.92204e-87
1.1188e-87
3.18209e-88
9.02404e-89
2.55164e-89
7.194e-90
2.02236e-90
5.66873e-91
1.58437e-91
4.41545e-92
1.22699e-92
3.39988e-93
9.39382e-94
2.5881e-94
7.1102e-95
1.94783e-95
5.32094e-96
1.44944e-96
3.9372e-97
1.06648e-97
2.88074e-98
7.75962e-99
2.08432e-99
5.5832e-100
1.49141e-100
3.9729e-101
1.05541e-101
2.79602e-102
7.38698e-103
1.94628e-103
5.11395e-104
1.34006e-104
3.50199e-105
9.127e-106
2.37229e-106
6.14944e-107
1.58978e-107
4.09895e-108
1.05402e-108
2.70311e-109
6.91392e-110
1.76373e-110
4.48734e-111
1.13868e-111
2.88182e-112
7.27432e-113
1.83139e-113
4.59866e-114
1.15173e-114
2.877e-115
7.16808e-116
1.78132e-116
4.41529e-117
1.09159e-117
2.69179e-118
6.62081e-119
1.62432e-119
3.97488e-120
9.70224e-121
2.36221e-121
5.73674e-122
1.38968e-122
3.35793e-123
8.09351e-124
1.94587e-124
4.66665e-125
1.11638e-125
2.66404e-126
6.34146e-127
1.50579e-127
3.56669e-128
8.42745e-129
1.98637e-129
4.67045e-130
1.09546e-130
2.56314e-131
5.98262e-132
1.39301e-132
3.2357e-133
7.49775e-134
1.73319e-134
3.99684e-135
9.19486e-136
2.11025e-136
4.83153e-137
1.10357e-137
2.5147e-138
5.71662e-139
1.29648e-139
2.93337e-140
6.62134e-141
1.49109e-141
3.34999e-142
7.50876e-143
1.67911e-143
3.74611e-144
8.33819e-145
1.85164e-145
4.10241e-146
9.06816e-147
1.99986e-147
4.40032e-148
9.65991e-149
2.11578e-149
4.62356e-150
1.00808e-150
2.19295e-151
4.75969e-152
1.03074e-152
2.22709e-153
4.8012e-154
1.03273e-154
2.21643e-155
4.74626e-156
1.0141e-156
2.16193e-157
4.59876e-158
9.76065e-159
2.06708e-159
4.36796e-160
9.20968e-161
1.93757e-161
4.06744e-162
8.51991e-163
1.78075e-163
3.71386e-164
7.7287e-165
1.6049e-165
3.32544e-166
6.87567e-167
1.41856e-167
2.92043e-168
5.99953e-169
1.22987e-169
2.51579e-170
5.13532e-171
1.04601e-171
2.12612e-172
4.31241e-173
8.72843e-174
1.76294e-174
3.55327e-175
7.14675e-176
1.43444e-176
2.87307e-177
5.7426e-178
1.14543e-178
2.27996e-179
4.52885e-180
8.97742e-181
1.77591e-181
3.50588e-182
6.9069e-183
1.35794e-183
2.66434e-184
5.21692e-185
1.01943e-185
1.988e-186
3.86897e-187
7.51445e-188
1.45654e-188
2.81758e-189
5.43945e-190
1.04801e-190
2.01514e-191
3.86703e-192
7.40604e-193
1.41557e-193
2.70034e-194
5.14214e-195
9.83418e-196
2.20287e-196
)
;

boundaryField
{
    sides
    {
        type            zeroGradient;
    }
    empty
    {
        type            empty;
    }
}


// ************************************************************************* //
