/*--------------------------------*- C++ -*----------------------------------*\
  =========                 |
  \\      /  F ield         | OpenFOAM: The Open Source CFD Toolbox
   \\    /   O peration     | Website:  https://openfoam.org
    \\  /    A nd           | Version:  13
     \\/     M anipulation  |
\*---------------------------------------------------------------------------*/
FoamFile
{
    format      ascii;
    class       volScalarField;
    location    "8.5";
    object      Ma;
}
// * * * * * * * * * * * * * * * * * * * * * * * * * * * * * * * * * * * * * //

dimensions      [];

internalField   nonuniform List<scalar> 
5250
(
2.99999
2.99996
2.99987
2.9997
2.99916
2.99813
2.99485
2.98849
2.96936
2.92773
2.81566
2.54817
1.95631
0.982452
0.405216
0.328479
0.34313
0.337792
0.304646
0.252102
0.202987
0.16195
0.120867
0.0754715
0.041847
2.99999
2.99996
2.99989
2.99967
2.99926
2.99793
2.99541
2.98764
2.97132
2.92628
2.82002
2.55153
1.96603
0.994653
0.413019
0.329697
0.344665
0.339898
0.307194
0.255568
0.207673
0.168028
0.129174
0.0890251
0.0650807
2.99999
2.99996
2.99988
2.9997
2.99923
2.99808
2.99534
2.98817
2.97171
2.92827
2.82408
2.56157
1.98676
1.02172
0.430879
0.333232
0.349242
0.346175
0.314841
0.265572
0.220612
0.184415
0.150643
0.119085
0.103516
2.99999
2.99997
2.99988
2.99972
2.99923
2.99823
2.99532
2.98902
2.97196
2.93208
2.82915
2.57798
2.01814
1.06448
0.458084
0.338154
0.356414
0.356357
0.327144
0.281353
0.240278
0.208641
0.180599
0.156323
0.145462
3
2.99997
2.9999
2.99972
2.9993
2.99826
2.99565
2.98948
2.97336
2.93561
2.83769
2.59915
2.0607
1.12455
0.494467
0.344286
0.366054
0.370147
0.343554
0.301817
0.265157
0.238251
0.215785
0.197308
0.189719
3
2.99997
2.99991
2.99973
2.99937
2.9983
2.99616
2.9896
2.97637
2.93797
2.8508
2.62374
2.11646
1.20457
0.540946
0.352393
0.378597
0.387829
0.364129
0.326865
0.294887
0.273019
0.256078
0.243212
0.239026
3
2.99997
2.99991
2.99976
2.9994
2.99852
2.99625
2.99111
2.97702
2.94541
2.86107
2.65763
2.18341
1.30805
0.598032
0.364093
0.395382
0.41013
0.38917
0.3565
0.32934
0.31278
0.301891
0.295399
0.296576
3
2.99998
2.99992
2.9998
2.99943
2.99872
2.99658
2.99207
2.97952
2.95096
2.87612
2.69382
2.26371
1.43791
0.666383
0.38394
0.419356
0.438517
0.419612
0.391368
0.368974
0.358101
0.35424
0.356456
0.368044
3
2.99998
2.99993
2.99981
2.99955
2.9988
2.99715
2.99279
2.98245
2.9566
2.89253
2.73287
2.35318
1.59522
0.74723
0.418781
0.454574
0.474339
0.45704
0.432606
0.414848
0.409509
0.414009
0.430258
0.464179
3
2.99998
2.99994
2.99985
2.99958
2.99902
2.99743
2.99391
2.98465
2.96265
2.90724
2.77037
2.44069
1.75877
0.835296
0.462615
0.496771
0.513019
0.499777
0.479499
0.466675
0.466899
0.484158
0.527076
0.62785
3
2.99999
2.99995
2.99987
2.99962
2.99916
2.99771
2.99478
2.98636
2.96772
2.91829
2.79946
2.50548
1.87948
0.927292
0.511742
0.526418
0.540704
0.539475
0.526744
0.52039
0.529141
0.564103
0.643608
0.802161
3
2.99999
2.99996
2.99989
2.99968
2.99927
2.99801
2.99545
2.98814
2.97187
2.92888
2.82535
2.56661
1.99981
1.06391
0.586325
0.545752
0.562282
0.571188
0.569189
0.57193
0.591217
0.640496
0.736656
0.892993
3
2.99999
2.99996
2.99991
2.99972
2.99938
2.99828
2.99615
2.98972
2.97608
2.93873
2.85079
2.62686
2.1242
1.23248
0.675306
0.562294
0.580037
0.597412
0.606296
0.618876
0.647895
0.703364
0.794943
0.923279
3
2.99999
2.99997
2.99991
2.99979
2.99943
2.99867
2.99657
2.99176
2.97948
2.94956
2.87489
2.68881
2.25624
1.43554
0.781803
0.58859
0.603777
0.624283
0.641288
0.661039
0.695325
0.750841
0.832126
0.93825
3
3
2.99998
2.99994
2.99982
2.99956
2.99889
2.99725
2.99338
2.9832
2.95991
2.8988
2.7518
2.39668
1.68283
0.908488
0.638157
0.641613
0.658212
0.678604
0.700645
0.73533
0.787667
0.859613
0.950975
3.00001
3
2.99998
2.99995
2.99986
2.99966
2.99908
2.99793
2.9944
2.98745
2.96678
2.92219
2.80244
2.52227
1.91962
1.04976
0.700989
0.683859
0.697842
0.717737
0.739191
0.77168
0.819233
0.882849
0.962328
3.00001
3
2.99999
2.99996
2.99989
2.99972
2.99929
2.99827
2.99574
2.98941
2.97437
2.93609
2.84306
2.61142
2.09777
1.22765
0.782932
0.716751
0.730356
0.749862
0.773657
0.804792
0.847912
0.904074
0.973152
3.00001
3
2.99999
2.99997
2.99991
2.99979
2.99942
2.99871
2.99645
2.9921
2.97902
2.95098
2.87507
2.69437
2.26894
1.47119
0.900119
0.750826
0.7581
0.777116
0.803232
0.833992
0.873731
0.923763
0.983911
3.00001
3
3
2.99998
2.99994
2.99982
2.99961
2.9989
2.99758
2.99345
2.9851
2.96143
2.90796
2.76908
2.44449
1.77576
1.04722
0.804691
0.793197
0.807385
0.832769
0.862684
0.898441
0.942692
0.995289
3.00001
3
3
2.99999
2.99995
2.99988
2.99968
2.99925
2.998
2.99551
2.98798
2.97265
2.92939
2.8305
2.58147
2.04434
1.22063
0.874863
0.83115
0.841252
0.862912
0.891355
0.923098
0.961534
1.00728
3.00001
3.00001
3
2.99999
2.99997
2.99991
2.99977
2.99941
2.99856
2.99651
2.99125
2.97914
2.94742
2.87276
2.68326
2.25412
1.4676
0.983194
0.868509
0.871556
0.889562
0.916685
0.945953
0.980211
1.01997
3.00001
3.00001
3
3
2.99998
2.99994
2.99984
2.99956
2.999
2.99732
2.99402
2.98398
2.96348
2.90607
2.7735
2.45007
1.79341
1.13197
0.921895
0.905108
0.916843
0.940212
0.968305
0.998589
1.03365
3.00001
3.00001
3
3
2.99999
2.99996
2.99987
2.99972
2.99922
2.99824
2.99541
2.98929
2.97301
2.93512
2.8391
2.60939
2.10156
1.32632
0.996645
0.940831
0.946775
0.964899
0.990366
1.01771
1.04792
3.00001
3.00001
3.00001
3
2.99999
2.99997
2.99992
2.9998
2.99946
2.99871
2.99683
2.9922
2.98116
2.9532
2.88637
2.71879
2.33393
1.60464
1.1149
0.982389
0.976295
0.987264
1.0096
1.03626
1.06351
3.00001
3.00001
3.00001
3
3
2.99998
2.99994
2.99986
2.99963
2.99913
2.99781
2.99473
2.98717
2.96838
2.92378
2.81206
2.54943
1.98613
1.28792
1.04361
1.00997
1.01439
1.03169
1.05549
1.07904
3.00001
3.00001
3.00001
3.00001
3
2.99999
2.99996
2.9999
2.99975
2.99938
2.99853
2.99622
2.99133
2.9775
2.94776
2.86786
2.68181
2.25218
1.51165
1.12463
1.04191
1.0398
1.05201
1.07227
1.09212
3.00001
3.00001
3.00001
3.00001
3
3
2.99998
2.99994
2.99983
2.99958
2.999
2.99744
2.9941
2.98469
2.9647
2.91017
2.78455
2.47919
1.85823
1.27164
1.08928
1.06695
1.07277
1.08692
1.10204
3.00001
3.00001
3.00001
3.00001
3
3
2.99999
2.99996
2.99989
2.99974
2.99929
2.99841
2.99581
2.99038
2.97555
2.94198
2.85613
2.65303
2.19558
1.48517
1.16637
1.09958
1.09383
1.09891
1.10509
3.00001
3.00001
3.00001
3.00001
3.00001
3
2.99999
2.99998
2.99993
2.99982
2.99956
2.99886
2.99739
2.9932
2.98455
2.96015
2.90648
2.76677
2.44843
1.81143
1.29597
1.13878
1.11268
1.10686
1.09976
3.00001
3.00001
3.00001
3.00001
3.00001
3
3
2.99999
2.99995
2.99989
2.99969
2.99933
2.99817
2.99592
2.9894
2.97541
2.93839
2.85227
2.64088
2.17472
1.49727
1.20635
1.13487
1.10856
1.08454
3.00001
3.00001
3.00001
3.00001
3.00001
3.00001
3
3
2.99997
2.99993
2.99981
2.99955
2.99885
2.99724
2.9933
2.98355
2.96061
2.90293
2.76516
2.44107
1.81224
1.32019
1.15304
1.09603
1.04775
3.00001
3.00001
3.00001
3.00001
3.00001
3.00001
3
3
2.99999
2.99996
2.99988
2.99972
2.99923
2.99831
2.99544
2.98998
2.97361
2.93941
2.84769
2.63806
2.16816
1.49891
1.18687
1.06899
0.985461
3.00001
3.00001
3.00001
3.00001
3.00001
3.00001
3.00001
3
2.99999
2.99997
2.99993
2.9998
2.99952
2.99882
2.99711
2.99309
2.98275
2.95932
2.8986
2.75655
2.42121
1.78384
1.24423
1.01071
0.889985
3.00001
3.00001
3.00001
3.00001
3.00001
3.00001
3.00001
3
3
2.99998
2.99995
2.99987
2.99968
2.99915
2.99807
2.99489
2.98855
2.97
2.93053
2.82496
2.58216
2.05536
1.31583
0.911162
0.765237
3.00001
3.00001
3.00001
3.00001
3.00001
3.00001
3.00001
3.00001
3
2.99999
2.99996
2.99991
2.99973
2.99941
2.99836
2.99643
2.99025
2.97795
2.94276
2.86279
2.65766
2.20014
1.40337
0.789595
0.610612
3.00001
3.00001
3.00001
3.00001
3.00001
3.00001
3.00001
3.00001
3
2.99999
2.99997
2.99992
2.9998
2.99948
2.99871
2.99684
2.99205
2.9809
2.95154
2.8818
2.70279
2.28721
1.50075
0.687043
0.448116
3.00001
3.00001
3.00001
3.00001
3.00001
3.00001
3.00001
3.00001
3
2.99999
2.99998
2.99993
2.99982
2.99953
2.99884
2.99712
2.99279
2.98243
2.95567
2.89073
2.72431
2.32874
1.54502
0.622073
0.311676
3.00001
3.00001
3.00001
3.00001
3.00001
3.00001
3.00001
3.00001
3
3
2.99998
2.99993
2.99984
2.99953
2.99897
2.99711
2.99355
2.98257
2.95917
2.89441
2.73878
2.35605
1.58346
0.614783
0.244993
3.00001
3.00001
3.00001
3.00001
3.00001
3.00001
3.00001
3.00001
3
3
2.99998
2.99993
2.99984
2.99956
2.99897
2.99732
2.9935
2.98372
2.9597
2.8993
2.74725
2.37945
1.62385
0.636444
0.235228
3.00001
3.00001
3.00001
3.00001
3.00001
3.00001
3.00001
3.00001
3
3
2.99998
2.99994
2.99984
2.99959
2.99898
2.99741
2.99377
2.9839
2.96149
2.90139
2.75584
2.39706
1.65771
0.664362
0.245485
3.00001
3.00001
3.00001
3.00001
3.00001
3.00001
3.00001
3.00001
3
3
2.99998
2.99994
2.99985
2.99958
2.99903
2.99745
2.99389
2.98453
2.962
2.90481
2.76183
2.41405
1.6882
0.693432
0.260734
3.00001
3.00001
3.00001
3.00001
3.00001
3.00001
3.00001
3.00001
3
3
2.99998
2.99994
2.99986
2.99959
2.99906
2.9975
2.99406
2.98484
2.96302
2.90707
2.76814
2.42896
1.71687
0.72153
0.276822
3.00001
3.00001
3.00001
3.00001
3.00001
3.00001
3.00001
3.00001
3
3
2.99998
2.99994
2.99986
2.9996
2.99907
2.99755
2.99416
2.98522
2.96374
2.90935
2.77356
2.44258
1.74324
0.747973
0.292973
3.00001
3.00001
3.00001
3.00001
3.00001
3.00001
3.00001
3.00001
3
3
2.99998
2.99995
2.99985
2.99964
2.99901
2.99776
2.99391
2.98616
2.96334
2.9127
2.77707
2.45525
1.76722
0.772497
0.309096
3.00001
3.00001
3.00001
3.00001
3.00001
3.00001
3.00001
3.00001
3
3
2.99998
2.99995
2.99984
2.99965
2.99901
2.99781
2.99402
2.98629
2.96422
2.91392
2.78168
2.46536
1.7885
0.794478
0.323943
3.00001
3.00001
3.00001
3.00001
3.00001
3.00001
3.00001
3.00001
3
3
2.99998
2.99995
2.99985
2.99964
2.99905
2.9978
2.99412
2.98654
2.96453
2.91567
2.78487
2.47432
1.80709
0.813384
0.336818
3.00001
3.00001
3.00001
3.00001
3.00001
3.00001
3.00001
3.00001
3
3
2.99998
2.99995
2.99986
2.99963
2.99909
2.99777
2.99432
2.98649
2.96528
2.9164
2.78816
2.48113
1.82277
0.828566
0.346994
3.00001
3.00001
3.00001
3.00001
3.00001
3.00001
3.00001
3.00001
3
3
2.99998
2.99995
2.99985
2.99966
2.99905
2.99789
2.99416
2.98695
2.96524
2.91766
2.79004
2.48649
1.83505
0.840127
0.354985
3.00001
3.00001
3.00001
3.00001
3.00001
3.00001
3.00001
3.00001
3
3
2.99998
2.99995
2.99986
2.99964
2.99911
2.99774
2.9946
2.98613
2.96704
2.91602
2.79378
2.48867
1.84339
0.8479
0.360608
3.00001
3.00001
3.00001
3.00001
3.00001
3.00001
3.00001
3.00001
3
3
2.99998
2.99994
2.99987
2.99962
2.99916
2.99765
2.99479
2.98594
2.9674
2.91602
2.79465
2.49036
1.84718
0.851247
0.363251
0.978455
0.780416
0.264053
0.243588
0.315483
0.402576
0.436343
0.467279
0.50855
0.54862
0.581587
0.610588
0.64097
0.667711
0.682249
0.685656
0.682809
0.671074
0.648855
0.618156
0.581863
0.542922
0.503281
0.464236
0.426663
0.390619
0.355994
0.322503
0.289972
0.258101
0.226588
0.195092
0.164213
0.134183
0.105103
0.0768076
0.0493663
0.024683
0.0168656
0.0395884
0.0642118
0.0890894
0.113419
0.136737
0.158708
0.180133
0.20263
0.225083
0.246678
0.267538
0.287932
0.307902
0.327444
0.346695
0.365522
0.384056
0.402238
0.42012
0.437695
0.455038
0.472033
0.488867
0.505367
0.521774
0.537783
0.553805
0.569411
0.58503
0.600317
0.615541
0.630523
0.645412
0.660063
0.674658
0.688978
0.703269
0.717276
0.731253
0.744946
0.758629
0.771987
0.785416
0.798415
0.811612
0.824257
0.837192
0.849526
0.862122
0.874197
0.886377
0.898157
0.909868
0.921209
0.93232
0.942952
0.953102
0.96234
0.970479
0.976566
0.980936
0.961285
0.841516
0.574653
0.421551
0.283668
0.148176
0.0655031
0.161324
0.244219
0.301803
0.340206
0.370396
0.401345
0.432489
0.450726
0.452295
0.444975
0.430587
0.405811
0.373075
0.336058
0.297991
0.260028
0.223437
0.188913
0.156048
0.124854
0.0954104
0.0681901
0.0456218
0.0353839
0.046352
0.0673786
0.0910812
0.115646
0.140023
0.163987
0.18725
0.20957
0.231184
0.252589
0.273954
0.294979
0.315672
0.335286
0.354305
0.373675
0.393701
0.41295
0.431659
0.4498
0.46769
0.485171
0.502453
0.519277
0.53598
0.552242
0.568417
0.584137
0.599853
0.615055
0.630339
0.645109
0.659951
0.674386
0.688812
0.702955
0.717033
0.730885
0.744671
0.758234
0.771745
0.785038
0.798261
0.811301
0.824233
0.837015
0.849673
0.862176
0.874598
0.8868
0.899014
0.910914
0.92291
0.934544
0.946264
0.957672
0.969063
0.980284
0.991322
1.00235
1.01305
1.02377
1.03399
1.04408
1.05339
1.06218
1.06961
1.07542
1.07915
0.976058
0.94441
0.836529
0.742165
0.633819
0.517116
0.39829
0.295924
0.205775
0.126265
0.0618925
0.0790614
0.121934
0.163843
0.191877
0.191109
0.165884
0.150759
0.12799
0.102193
0.0799858
0.0659049
0.0652022
0.0777105
0.0965302
0.118456
0.141621
0.165315
0.188897
0.212373
0.235135
0.257233
0.278756
0.300365
0.321469
0.342376
0.362627
0.382476
0.401533
0.420243
0.438524
0.456711
0.474603
0.492269
0.509209
0.525257
0.541579
0.558458
0.575263
0.591342
0.607039
0.622422
0.637626
0.652554
0.667264
0.68177
0.696029
0.710132
0.724016
0.737699
0.751274
0.764547
0.777848
0.79076
0.803792
0.816409
0.829177
0.841545
0.85407
0.866213
0.878516
0.890448
0.902541
0.914278
0.926157
0.937716
0.949357
0.960757
0.972128
0.983391
0.99448
1.00561
1.01643
1.0274
1.03802
1.04878
1.0593
1.06993
1.08041
1.09086
1.10117
1.11132
1.12128
1.131
1.14037
1.14931
1.1575
1.16476
1.17022
1.1739
1.00457
1.01923
0.984829
0.932258
0.863106
0.781633
0.695372
0.609206
0.527458
0.446976
0.372797
0.304826
0.247475
0.198503
0.160355
0.139571
0.147725
0.171131
0.195513
0.227067
0.256464
0.281056
0.302382
0.322157
0.341245
0.360128
0.378917
0.397697
0.416327
0.434753
0.452719
0.470207
0.487337
0.504254
0.520931
0.537314
0.553373
0.56902
0.584315
0.599231
0.61393
0.628532
0.642928
0.657364
0.671095
0.684295
0.69731
0.711145
0.725122
0.738762
0.751804
0.76486
0.777503
0.790304
0.802674
0.815197
0.827314
0.839553
0.851448
0.863434
0.875116
0.886891
0.898359
0.90996
0.921214
0.932651
0.943705
0.954989
0.965882
0.97702
0.987766
0.99875
1.00934
1.02017
1.03058
1.04127
1.0515
1.06207
1.0721
1.08255
1.09238
1.10268
1.11236
1.12253
1.13226
1.14234
1.15209
1.16191
1.17155
1.18107
1.19054
1.19975
1.20895
1.21775
1.22646
1.23452
1.24224
1.24877
1.25405
1.25707
1.02379
1.06334
1.0668
1.04564
1.00909
0.957739
0.899811
0.837523
0.774899
0.709727
0.64312
0.58204
0.528459
0.485086
0.453621
0.4395
0.443536
0.460987
0.481464
0.503386
0.52508
0.542352
0.556281
0.56857
0.580238
0.591997
0.603829
0.61601
0.62822
0.640552
0.652646
0.66458
0.676242
0.687827
0.699256
0.71064
0.721822
0.732932
0.743815
0.754616
0.765343
0.776088
0.786885
0.797803
0.808352
0.818512
0.82845
0.839222
0.85033
0.861562
0.872208
0.882986
0.893406
0.904087
0.914498
0.925093
0.935471
0.945938
0.956257
0.966592
0.976845
0.98708
0.997285
1.00744
1.01762
1.02771
1.03788
1.04791
1.0581
1.06806
1.07823
1.08812
1.09826
1.10809
1.11814
1.12791
1.13779
1.14746
1.15715
1.16673
1.17635
1.18599
1.19567
1.20526
1.21484
1.22422
1.2337
1.24288
1.25224
1.26119
1.27038
1.27906
1.28797
1.29628
1.30473
1.3124
1.31992
1.32622
1.3315
1.33444
1.03491
1.08558
1.11115
1.11397
1.10054
1.07361
1.03734
0.995394
0.949341
0.90009
0.848173
0.796247
0.749274
0.709595
0.682489
0.670252
0.675954
0.694439
0.717959
0.740945
0.760858
0.773691
0.781695
0.786282
0.790374
0.794041
0.798873
0.803936
0.809916
0.815799
0.822077
0.828148
0.834439
0.84066
0.847155
0.853701
0.860475
0.867281
0.874249
0.881293
0.888475
0.895858
0.90338
0.91127
0.918955
0.926459
0.933819
0.941919
0.950602
0.959695
0.968511
0.97737
0.986134
0.995024
1.00397
1.01297
1.02209
1.03115
1.04038
1.04947
1.05874
1.06785
1.07712
1.08623
1.09549
1.10459
1.11385
1.12297
1.13221
1.14136
1.15058
1.15977
1.16894
1.17816
1.18722
1.19647
1.20543
1.21473
1.2237
1.23319
1.24217
1.2516
1.26047
1.26978
1.27859
1.28775
1.29651
1.30548
1.31416
1.32293
1.33148
1.34
1.34832
1.3565
1.36443
1.37204
1.37916
1.38556
1.39067
1.39385
1.04158
1.09669
1.13386
1.15339
1.15719
1.14842
1.12918
1.10229
1.0697
1.03149
0.989646
0.945662
0.905298
0.870984
0.848783
0.840613
0.847805
0.866945
0.892328
0.917954
0.938755
0.951918
0.956495
0.955035
0.951246
0.947687
0.945358
0.944603
0.945032
0.946241
0.947902
0.949954
0.952228
0.954876
0.957848
0.96128
0.965018
0.969114
0.97346
0.978108
0.982982
0.988171
0.993582
0.999486
1.00537
1.01115
1.01688
1.0232
1.03021
1.03777
1.04533
1.05294
1.06055
1.06824
1.07607
1.08396
1.09203
1.10012
1.1084
1.11666
1.12512
1.13352
1.14213
1.15066
1.15939
1.16803
1.17685
1.18558
1.19446
1.20327
1.21216
1.22104
1.22987
1.23879
1.24753
1.2565
1.26524
1.27434
1.283
1.29203
1.30058
1.30952
1.31802
1.32682
1.3353
1.34392
1.35238
1.36079
1.3692
1.37738
1.38569
1.39361
1.40171
1.40929
1.41702
1.42406
1.43105
1.43697
1.44209
1.44491
1.0465
1.10185
1.14489
1.17413
1.1904
1.19429
1.18795
1.1725
1.1489
1.11765
1.08125
1.04244
1.00653
0.975915
0.957855
0.952831
0.962425
0.985579
1.01666
1.04358
1.06384
1.07807
1.08573
1.08535
1.07887
1.06971
1.06169
1.05566
1.05176
1.04951
1.04822
1.04773
1.04752
1.04783
1.04851
1.04966
1.0512
1.05328
1.05563
1.05851
1.06162
1.06525
1.06909
1.0736
1.07812
1.08267
1.08716
1.09217
1.09786
1.10415
1.11071
1.11734
1.12415
1.13097
1.13806
1.14514
1.15255
1.15992
1.16761
1.17521
1.18311
1.1909
1.19894
1.20686
1.21503
1.22308
1.23135
1.23953
1.24789
1.25621
1.26461
1.27304
1.28144
1.28998
1.29848
1.30715
1.31561
1.32425
1.33267
1.34126
1.34967
1.35818
1.3666
1.375
1.38343
1.3917
1.4001
1.40823
1.41656
1.4245
1.43271
1.44042
1.44842
1.45581
1.46345
1.47033
1.47726
1.4831
1.48823
1.49109
1.05154
1.10453
1.14955
1.18401
1.2076
1.22026
1.22206
1.21365
1.19452
1.16567
1.13386
1.0981
1.06262
1.03594
1.02401
1.02358
1.03755
1.06611
1.10105
1.13153
1.1528
1.16638
1.17599
1.17929
1.17622
1.16778
1.15666
1.14634
1.13821
1.13227
1.12807
1.12502
1.1228
1.12116
1.12003
1.11939
1.11925
1.11963
1.12048
1.12186
1.12353
1.12581
1.12831
1.13157
1.13484
1.13833
1.1417
1.14568
1.15017
1.15541
1.16089
1.1667
1.17262
1.17871
1.18495
1.19134
1.19796
1.2047
1.2117
1.21877
1.22608
1.23344
1.24102
1.24861
1.25641
1.26422
1.27221
1.28022
1.28836
1.29652
1.30474
1.31304
1.32133
1.32976
1.33798
1.34643
1.3546
1.36308
1.37122
1.3797
1.38783
1.39626
1.4044
1.41275
1.4209
1.42912
1.43727
1.44534
1.45346
1.46135
1.46936
1.47704
1.48485
1.49221
1.49965
1.50651
1.51322
1.51908
1.52401
1.52705
1.05739
1.10664
1.15083
1.18733
1.2143
1.2314
1.23697
1.23014
1.21128
1.18534
1.15494
1.11784
1.08389
1.06607
1.05997
1.06637
1.08734
1.12097
1.15701
1.18842
1.21194
1.22724
1.2364
1.24318
1.24441
1.24047
1.23203
1.22077
1.20947
1.19972
1.19201
1.18593
1.18145
1.17787
1.17533
1.17322
1.17182
1.17081
1.17038
1.17043
1.17102
1.17205
1.17354
1.17562
1.17812
1.18072
1.18342
1.18643
1.19006
1.19426
1.19901
1.20405
1.20951
1.21508
1.221
1.22698
1.23332
1.23969
1.24642
1.25317
1.26023
1.26729
1.27462
1.28197
1.28952
1.29715
1.3049
1.31278
1.32067
1.32875
1.33674
1.345
1.35295
1.36125
1.36915
1.37748
1.38537
1.3937
1.4016
1.4099
1.41782
1.42606
1.43402
1.44215
1.45013
1.45814
1.46612
1.47396
1.48187
1.48952
1.4973
1.5047
1.51224
1.51928
1.5264
1.53288
1.53924
1.54468
1.54931
1.55213
1.06411
1.10897
1.15063
1.1864
1.2136
1.23107
1.23548
1.22559
1.20699
1.18213
1.14836
1.1113
1.08685
1.07782
1.07822
1.09216
1.12098
1.1575
1.19214
1.2221
1.24627
1.26428
1.27595
1.28354
1.28898
1.29012
1.28693
1.27968
1.26951
1.25815
1.24723
1.23819
1.23072
1.22537
1.22104
1.21805
1.2156
1.21394
1.21274
1.21213
1.21198
1.21239
1.21327
1.21476
1.21673
1.21899
1.22125
1.22385
1.22699
1.23074
1.23502
1.23969
1.24477
1.25004
1.25565
1.26135
1.26739
1.27347
1.27989
1.28632
1.29308
1.29985
1.30693
1.31402
1.32138
1.32878
1.33639
1.34407
1.35189
1.35983
1.36772
1.37572
1.38361
1.39168
1.39959
1.40769
1.41563
1.42373
1.43169
1.43976
1.44774
1.45575
1.46375
1.47169
1.47968
1.48753
1.49549
1.5032
1.51108
1.51859
1.52633
1.53356
1.54103
1.54783
1.55482
1.56095
1.56705
1.57209
1.57637
1.5789
1.07215
1.11207
1.14959
1.18231
1.20642
1.21987
1.21805
1.20486
1.18593
1.15734
1.12111
1.09241
1.08022
1.07817
1.0867
1.11039
1.14435
1.1788
1.21047
1.23835
1.26223
1.28198
1.29729
1.30864
1.3159
1.32096
1.32302
1.32108
1.31564
1.30746
1.29655
1.28521
1.27519
1.26705
1.26072
1.25602
1.25247
1.24989
1.24804
1.24669
1.24597
1.24558
1.24587
1.24664
1.24801
1.24982
1.25166
1.25372
1.25623
1.25933
1.26297
1.26703
1.27158
1.27643
1.28169
1.28711
1.29288
1.29872
1.30488
1.3111
1.31762
1.32419
1.33105
1.33798
1.34516
1.35246
1.3599
1.36755
1.37518
1.38297
1.39063
1.39853
1.40622
1.41419
1.4219
1.42991
1.43765
1.44566
1.45343
1.46141
1.4692
1.47711
1.48489
1.49273
1.50049
1.50822
1.51596
1.52354
1.5312
1.53856
1.54605
1.55307
1.56024
1.56676
1.57335
1.57911
1.58474
1.58937
1.5929
1.59518
1.08157
1.11578
1.14789
1.1744
1.19254
1.19617
1.18829
1.17328
1.14926
1.11616
1.08636
1.07283
1.06977
1.07512
1.09352
1.12394
1.15694
1.18812
1.2168
1.24263
1.26621
1.28691
1.30511
1.31985
1.33168
1.33956
1.34481
1.34734
1.34712
1.34402
1.33767
1.32803
1.31725
1.307
1.29846
1.29152
1.28633
1.2825
1.27969
1.27785
1.27653
1.27592
1.27575
1.27614
1.27711
1.27861
1.2803
1.28207
1.28425
1.28692
1.29024
1.29397
1.29828
1.30289
1.30798
1.31325
1.3189
1.32463
1.3307
1.33681
1.34324
1.3497
1.35647
1.36331
1.37041
1.37763
1.38505
1.39256
1.40008
1.40773
1.4153
1.42306
1.43065
1.43847
1.44607
1.45393
1.46156
1.46943
1.4771
1.48494
1.49263
1.50042
1.50813
1.51583
1.52352
1.53108
1.53872
1.54606
1.55358
1.56064
1.56792
1.57457
1.58142
1.58742
1.59352
1.59862
1.6036
1.60722
1.60971
1.61132
1.09144
1.11938
1.14382
1.16201
1.16826
1.16336
1.15072
1.13001
1.10006
1.07183
1.05819
1.05514
1.05917
1.07478
1.10152
1.13185
1.1614
1.18884
1.2148
1.239
1.26238
1.2838
1.30398
1.32139
1.33672
1.34871
1.35804
1.36357
1.36704
1.36834
1.36734
1.36318
1.35561
1.34589
1.33615
1.32723
1.32004
1.31428
1.31028
1.30724
1.3054
1.30412
1.30361
1.30363
1.3042
1.30536
1.3069
1.30849
1.31035
1.3126
1.31551
1.31887
1.3228
1.32708
1.33188
1.3369
1.34234
1.34788
1.35378
1.3597
1.36597
1.37227
1.37889
1.38559
1.39257
1.39968
1.40688
1.41422
1.42153
1.42906
1.43645
1.44409
1.45155
1.45924
1.46675
1.47444
1.482
1.48966
1.49725
1.50487
1.51247
1.52003
1.5276
1.53509
1.5426
1.54996
1.55738
1.56453
1.57179
1.57859
1.58554
1.59179
1.59818
1.6036
1.60914
1.61346
1.61742
1.61981
1.62102
1.62217
1.101
1.12068
1.13536
1.14049
1.13602
1.12424
1.10448
1.07693
1.05095
1.03831
1.03579
1.0399
1.05481
1.07953
1.10691
1.13372
1.15931
1.18379
1.2078
1.23115
1.2543
1.27637
1.29766
1.31707
1.33482
1.35008
1.36307
1.37316
1.38053
1.38483
1.38752
1.38815
1.38625
1.38092
1.37275
1.36383
1.35506
1.34774
1.34163
1.3373
1.33414
1.33222
1.33117
1.33078
1.33104
1.33187
1.33323
1.33469
1.3363
1.33821
1.34075
1.3438
1.34744
1.35143
1.356
1.3608
1.36606
1.37144
1.37718
1.38299
1.38911
1.3953
1.40177
1.40839
1.41521
1.42214
1.42915
1.43632
1.44348
1.45082
1.45809
1.46555
1.47287
1.4804
1.48776
1.49531
1.50271
1.51024
1.51767
1.52516
1.5326
1.54
1.54742
1.55468
1.56203
1.56909
1.5763
1.58308
1.59004
1.59639
1.60288
1.60857
1.61424
1.61904
1.62359
1.62686
1.62926
1.63
1.62979
1.63117
1.10743
1.11737
1.11846
1.11169
1.09886
1.07738
1.05012
1.02627
1.01541
1.01379
1.01907
1.03492
1.05882
1.08377
1.10804
1.13123
1.15381
1.17631
1.19888
1.22165
1.24453
1.26696
1.28892
1.30966
1.32914
1.34693
1.36272
1.37646
1.38772
1.39659
1.40251
1.40623
1.40845
1.4086
1.40557
1.39945
1.39177
1.38356
1.37612
1.3699
1.36508
1.36185
1.35971
1.35872
1.3584
1.35883
1.35988
1.36126
1.36277
1.36441
1.36656
1.36922
1.37249
1.37612
1.38033
1.3848
1.3898
1.39492
1.40047
1.40607
1.41206
1.4181
1.42451
1.43098
1.43769
1.44441
1.45132
1.45829
1.46532
1.47248
1.4796
1.48687
1.49404
1.50133
1.50858
1.51583
1.52316
1.53033
1.5377
1.54481
1.55215
1.55921
1.56646
1.57344
1.58052
1.58736
1.59417
1.60075
1.6071
1.61321
1.6188
1.62407
1.62865
1.63283
1.63572
1.63763
1.63787
1.63721
1.63576
1.63672
1.10852
1.10504
1.09422
1.07856
1.05281
1.02351
1.00076
0.991055
0.990292
0.997659
1.01523
1.03902
1.06287
1.08509
1.10624
1.12673
1.14733
1.16838
1.19012
1.21239
1.23498
1.25753
1.27976
1.30138
1.32194
1.34155
1.35933
1.37598
1.39027
1.40294
1.41296
1.4208
1.4256
1.4292
1.43092
1.43055
1.42665
1.4201
1.41281
1.40533
1.39906
1.39383
1.39037
1.38794
1.38693
1.38659
1.38716
1.38829
1.38971
1.39111
1.39294
1.39515
1.39811
1.40134
1.40525
1.40938
1.41415
1.419
1.42442
1.42982
1.43572
1.44161
1.44793
1.45422
1.46072
1.46732
1.47395
1.48081
1.48756
1.49461
1.50146
1.5086
1.51553
1.52268
1.52968
1.53679
1.54384
1.55089
1.55797
1.56492
1.572
1.57881
1.58583
1.59245
1.59931
1.60565
1.61215
1.6181
1.62397
1.62921
1.63407
1.63834
1.64197
1.64455
1.64564
1.64549
1.64444
1.64232
1.63856
1.63745
1.10033
1.08497
1.06492
1.03316
0.999019
0.975857
0.966877
0.967098
0.976781
0.996462
1.02097
1.04422
1.06533
1.08469
1.10342
1.1222
1.14159
1.16173
1.1829
1.20464
1.22696
1.24934
1.27171
1.29369
1.31497
1.33563
1.35491
1.37348
1.39009
1.40568
1.41902
1.43061
1.43957
1.44635
1.45088
1.45444
1.45559
1.45439
1.44979
1.44346
1.43629
1.42987
1.42419
1.42022
1.4174
1.41609
1.41561
1.41624
1.41746
1.41873
1.42036
1.42217
1.42475
1.4276
1.43115
1.4349
1.43929
1.44384
1.44892
1.45414
1.45978
1.46561
1.47168
1.47785
1.48413
1.49057
1.49703
1.50367
1.51027
1.51705
1.52375
1.53062
1.53739
1.54431
1.55108
1.55803
1.56475
1.57169
1.57833
1.58521
1.59175
1.59849
1.60494
1.61141
1.61768
1.62373
1.62961
1.63497
1.64008
1.6444
1.6484
1.65149
1.65362
1.65407
1.65337
1.65198
1.64941
1.6442
1.63564
1.63179
1.0828
1.05655
1.01845
0.978357
0.953196
0.944033
0.944953
0.956785
0.978822
1.0042
1.02769
1.04824
1.06662
1.08398
1.10117
1.11898
1.13755
1.15717
1.17765
1.19899
1.22079
1.24296
1.26518
1.28724
1.30896
1.33014
1.35064
1.37033
1.38896
1.40647
1.42251
1.43704
1.44965
1.46013
1.46798
1.47433
1.47871
1.48143
1.48213
1.4801
1.47513
1.46847
1.462
1.456
1.45156
1.44818
1.4465
1.44574
1.44626
1.44731
1.44867
1.45009
1.45217
1.45457
1.45775
1.46107
1.46514
1.46929
1.47414
1.47902
1.48454
1.49003
1.49594
1.50179
1.50794
1.51407
1.52043
1.52675
1.53327
1.53971
1.54634
1.55284
1.55954
1.56607
1.57277
1.57933
1.58595
1.59251
1.59898
1.6055
1.61179
1.61818
1.62423
1.63035
1.63603
1.64165
1.64667
1.65138
1.6553
1.6588
1.66141
1.66284
1.66271
1.6615
1.65957
1.65573
1.6496
1.6402
1.62805
1.6226
1.04986
1.00445
0.961316
0.933686
0.923341
0.924699
0.938637
0.963037
0.989453
1.01329
1.03373
1.05163
1.06799
1.08406
1.10041
1.11761
1.13569
1.15485
1.17484
1.19564
1.21702
1.23883
1.26082
1.28283
1.30467
1.32625
1.34732
1.3678
1.38768
1.40651
1.4246
1.44114
1.45661
1.47003
1.48181
1.49093
1.49851
1.5045
1.50859
1.51038
1.51038
1.5072
1.50166
1.49541
1.48919
1.48394
1.48001
1.47756
1.47636
1.4766
1.47749
1.47862
1.4801
1.48206
1.48476
1.48782
1.4914
1.49531
1.49965
1.50435
1.50942
1.51476
1.52027
1.52598
1.53183
1.5378
1.54392
1.55008
1.55639
1.56265
1.56908
1.57537
1.58188
1.58815
1.59469
1.6009
1.60739
1.61352
1.61985
1.62587
1.63196
1.63776
1.64351
1.64891
1.6541
1.65879
1.66299
1.66653
1.66945
1.67157
1.67227
1.67159
1.67008
1.66735
1.66279
1.65455
1.64393
1.63181
1.61853
1.61298
0.992058
0.942566
0.914189
0.903845
0.905953
0.922724
0.949698
0.97693
1.00107
1.02156
1.03914
1.05507
1.07033
1.08578
1.1018
1.11866
1.13642
1.15508
1.17459
1.19491
1.2158
1.23713
1.25873
1.28052
1.30223
1.3239
1.34525
1.36631
1.38688
1.40677
1.42614
1.44428
1.46172
1.47744
1.49205
1.50447
1.5151
1.52354
1.53109
1.53601
1.53908
1.54008
1.53901
1.53492
1.52885
1.52261
1.51669
1.51199
1.50866
1.50698
1.50658
1.50732
1.50832
1.50972
1.51167
1.51431
1.51741
1.52097
1.52491
1.52934
1.534
1.53905
1.54422
1.54977
1.55532
1.56124
1.56701
1.5732
1.5791
1.58542
1.59141
1.59774
1.60381
1.61005
1.61617
1.62228
1.62837
1.6343
1.64024
1.64594
1.65161
1.65696
1.66217
1.66692
1.67133
1.67503
1.67812
1.68052
1.68207
1.68205
1.68081
1.67878
1.67541
1.66898
1.65992
1.64775
1.63477
1.6221
1.60987
1.60545
0.921944
0.890839
0.881675
0.886272
0.907639
0.938535
0.967002
0.991226
1.01153
1.02899
1.04467
1.05955
1.07438
1.08956
1.10542
1.12205
1.13952
1.1578
1.17687
1.1966
1.21692
1.23773
1.25887
1.2803
1.30177
1.32333
1.34475
1.366
1.387
1.40756
1.4276
1.44697
1.46547
1.48308
1.49937
1.51446
1.52766
1.5391
1.54857
1.5568
1.56322
1.56721
1.5688
1.56894
1.56647
1.56137
1.55507
1.54864
1.54315
1.53894
1.53645
1.53535
1.53565
1.53648
1.5377
1.53944
1.54213
1.54526
1.54904
1.55305
1.55755
1.56214
1.56718
1.5723
1.57777
1.58331
1.58907
1.59493
1.60082
1.60687
1.61278
1.6189
1.62478
1.63088
1.63671
1.64271
1.64844
1.65425
1.65977
1.66524
1.67039
1.67529
1.6798
1.68379
1.68707
1.68966
1.69148
1.69229
1.69169
1.69
1.68742
1.68265
1.67508
1.66409
1.65175
1.63814
1.62528
1.61423
1.60472
1.60205
0.850649
0.846167
0.857495
0.886815
0.92393
0.955736
0.981296
1.00196
1.01952
1.03523
1.05009
1.06475
1.07957
1.09496
1.11084
1.12749
1.1447
1.16268
1.18124
1.20044
1.22018
1.2404
1.26104
1.28196
1.30312
1.32441
1.34573
1.367
1.3881
1.40887
1.42935
1.44919
1.46858
1.48702
1.50469
1.52112
1.53641
1.55004
1.56206
1.57214
1.58106
1.58834
1.59324
1.59545
1.59598
1.59487
1.59083
1.58481
1.57821
1.57194
1.56685
1.56335
1.56151
1.5613
1.56198
1.56301
1.56464
1.56717
1.57055
1.5743
1.57849
1.58279
1.58762
1.59242
1.59783
1.60305
1.60887
1.6144
1.62042
1.62616
1.63221
1.63803
1.64401
1.64979
1.65561
1.66127
1.66684
1.67227
1.67748
1.68248
1.68714
1.69138
1.69508
1.69796
1.70012
1.70151
1.70162
1.70043
1.69851
1.69489
1.68896
1.67949
1.66791
1.65445
1.64107
1.62841
1.61771
1.60983
1.60369
1.60272
0.770568
0.800289
0.847188
0.896276
0.935374
0.964911
0.987755
1.00645
1.02298
1.03852
1.05369
1.06897
1.08436
1.10019
1.11632
1.13302
1.15016
1.16793
1.18622
1.20509
1.2244
1.24412
1.26419
1.28464
1.30531
1.32623
1.34721
1.36821
1.38913
1.40983
1.43034
1.45034
1.46996
1.48884
1.50709
1.52439
1.54075
1.55602
1.56987
1.58215
1.59256
1.60173
1.60956
1.61531
1.61803
1.61859
1.61818
1.61564
1.61038
1.60362
1.59687
1.5909
1.58651
1.58381
1.58296
1.58331
1.58419
1.58576
1.58817
1.59179
1.59557
1.59998
1.60437
1.60928
1.61421
1.61952
1.62494
1.63059
1.63632
1.64217
1.64803
1.65396
1.6598
1.66562
1.67131
1.6769
1.6823
1.68749
1.69242
1.69695
1.70104
1.70444
1.70702
1.70875
1.70964
1.70934
1.70787
1.70515
1.70072
1.69278
1.68243
1.66966
1.65609
1.64265
1.6305
1.62066
1.61324
1.60883
1.60557
1.60597
0.669684
0.747283
0.82623
0.883436
0.924431
0.954502
0.978262
0.998504
1.01697
1.03455
1.05166
1.06859
1.08537
1.10215