/*--------------------------------*- C++ -*----------------------------------*\
  =========                 |
  \\      /  F ield         | OpenFOAM: The Open Source CFD Toolbox
   \\    /   O peration     | Website:  https://openfoam.org
    \\  /    A nd           | Version:  13
     \\/     M anipulation  |
\*---------------------------------------------------------------------------*/
FoamFile
{
    format      ascii;
    class       volScalarField;
    location    "8.5";
    object      p;
}
// * * * * * * * * * * * * * * * * * * * * * * * * * * * * * * * * * * * * * //

dimensions      [1 -1 -2 0 0 0 0];

internalField   nonuniform List<scalar> 
5250
(
1.00001
1.00004
1.00011
1.00027
1.00072
1.00166
1.00439
1.01022
1.02631
1.06365
1.16263
1.42066
2.15873
4.34359
10.1788
11.2518
11.1171
11.0835
11.1725
11.395
11.6131
11.7529
11.8623
11.9484
12.0151
1.00001
1.00004
1.0001
1.00028
1.00067
1.00174
1.00415
1.01041
1.02561
1.0635
1.16013
1.41609
2.14491
4.30022
10.0898
11.2477
11.1125
11.0748
11.1639
11.3863
11.6039
11.7441
11.8551
11.9425
12.0107
1.00001
1.00004
1.0001
1.00028
1.00065
1.00173
1.00394
1.01051
1.02424
1.06332
1.1545
1.40775
2.11256
4.21034
9.89094
11.238
11.0987
11.0471
11.1336
11.352
11.5665
11.7046
11.8149
11.9013
11.9692
1.00001
1.00003
1.0001
1.00026
1.00064
1.00162
1.00389
1.00992
1.02371
1.06044
1.14943
1.39122
2.06699
4.07227
9.57868
11.2298
11.0791
11.0005
11.0818
11.292
11.501
11.6345
11.7411
11.825
11.8932
1.00001
1.00003
1.0001
1.00024
1.00064
1.00146
1.00391
1.00888
1.02371
1.05536
1.14433
1.36706
2.00923
3.88692
9.14676
11.2289
11.0564
10.9366
11.0107
11.2092
11.4108
11.5373
11.6381
11.7183
11.7876
1.00001
1.00003
1.00008
1.00024
1.00055
1.00148
1.00336
1.00895
1.02077
1.05388
1.13153
1.3441
1.9308
3.66142
8.58287
11.2383
11.0331
10.8554
10.9199
11.1019
11.2925
11.4076
11.498
11.5701
11.6396
1.00001
1.00003
1.00008
1.0002
1.00055
1.00125
1.00335
1.00759
1.02026
1.04721
1.12285
1.30994
1.84366
3.39266
7.88156
11.265
11.0111
10.7568
10.8094
10.9694
11.1436
11.2406
11.3122
11.3671
11.4304
1
1.00002
1.00007
1.00019
1.00048
1.00117
1.00285
1.00719
1.01728
1.04371
1.10762
1.27744
1.74076
3.09397
7.04969
11.2984
10.9895
10.643
10.6804
10.8107
10.9609
11.0298
11.0691
11.0873
11.1245
1
1.00002
1.00006
1.00016
1.00042
1.001
1.0026
1.00603
1.01578
1.03704
1.09554
1.2383
1.63748
2.77504
6.12142
11.2784
10.949
10.5205
10.5365
10.6255
10.7407
10.7675
10.7544
10.6983
10.6463
1
1.00002
1.00006
1.00014
1.00036
1.0009
1.00215
1.00552
1.01295
1.03341
1.08021
1.20656
1.53689
2.48657
5.24623
11.0842
10.8343
10.3991
10.3692
10.4149
10.4758
10.4535
10.3592
10.1417
9.82269
1
1.00002
1.00005
1.00012
1.00032
1.00078
1.0019
1.00477
1.01143
1.02901
1.07033
1.1796
1.46535
2.28319
4.67509
10.4837
10.5324
10.3105
10.1747
10.1821
10.1738
10.0918
9.84853
9.28472
7.85034
1
1.00001
1.00004
1.00011
1.00027
1.00068
1.00165
1.00415
1.00993
1.02528
1.06105
1.15587
1.40083
2.09948
4.13053
9.44946
10.3012
10.1713
9.98109
9.93941
9.87037
9.70116
9.32293
8.56522
7.10694
1
1.00001
1.00004
1.00009
1.00024
1.00057
1.00145
1.0035
1.00862
1.02148
1.05254
1.1327
1.34025
1.92362
3.6127
8.26402
10.1588
10.0527
9.81617
9.69822
9.57724
9.33192
8.86433
8.10646
6.97585
1
1.00001
1.00003
1.00008
1.0002
1.00048
1.00122
1.00287
1.00744
1.01736
1.04495
1.1087
1.28273
1.7505
3.11067
6.95125
10.0705
9.95811
9.67697
9.47005
9.29408
9.00689
8.53224
7.8451
6.95953
1
1.00001
1.00002
1.00007
1.00015
1.00041
1.00093
1.00248
1.00562
1.01495
1.03451
1.08973
1.22129
1.58892
2.61639
5.53813
9.89178
9.83332
9.57543
9.26738
9.03875
8.73685
8.28679
7.67531
6.93486
1
1.00001
1.00002
1.00005
1.00013
1.0003
1.00081
1.00182
1.00483
1.01111
1.02875
1.06872
1.17567
1.45126
2.22625
4.4091
9.36531
9.63376
9.45324
9.09036
8.81848
8.51204
8.09156
7.54391
6.89981
1
1.00001
1.00002
1.00004
1.0001
1.00026
1.0006
1.00157
1.0036
1.0095
1.02188
1.05684
1.1376
1.35952
1.96224
3.6959
8.17176
9.36747
9.24983
8.95396
8.63478
8.32044
7.92751
7.43379
6.86381
1
1
1.00001
1.00003
1.00008
1.00019
1.0005
1.00116
1.003
1.00712
1.01783
1.04371
1.10893
1.27761
1.73777
3.04736
6.62447
9.14706
9.08375
8.8529
8.48894
8.15798
7.78658
7.33925
6.83024
1
1
1.00001
1.00003
1.00006
1.00016
1.00036
1.00094
1.0022
1.00551
1.01347
1.03298
1.08206
1.20569
1.53715
2.454
4.972
8.84281
8.94597
8.77658
8.40154
8.02923
7.66688
7.25822
6.80039
1
1
1.00001
1.00002
1.00005
1.00011
1.00029
1.00066
1.00175
1.00397
1.01041
1.02416
1.06178
1.15081
1.39062
2.04028
3.83892
8.07409
8.77533
8.64603
8.3243
7.9244
7.56671
7.18979
6.77506
1
1
1.00001
1.00001
1.00004
1.00008
1.00022
1.0005
1.0013
1.00297
1.00782
1.01789
1.04673
1.11136
1.28949
1.75865
3.08277
6.53777
8.51669
8.46635
8.25902
7.84884
7.48741
7.13349
6.75489
1
1
1
1.00001
1.00002
1.00007
1.00015
1.00039
1.00088
1.00233
1.0053
1.01385
1.03233
1.08235
1.20336
1.53103
2.42296
4.81272
8.14216
8.32563
8.18344
7.84007
7.44352
7.09282
6.74169
1
1
1
1.00001
1.00002
1.00004
1.00011
1.00027
1.00066
1.00161
1.00386
1.00973
1.02297
1.05827
1.14154
1.3647
1.95747
3.56188
7.28101
8.16779
8.07647
7.82043
7.43161
7.07256
6.73888
1
1
1
1.00001
1.00001
1.00003
1.00008
1.00019
1.00046
1.00118
1.00268
1.00704
1.01608
1.04184
1.09919
1.25624
1.66247
2.78847
5.69975
7.92033
7.91612
7.77853
7.4476
7.07463
6.74312
1
1
1
1
1.00001
1.00002
1.00005
1.00013
1.00032
1.0008
1.00185
1.00481
1.01088
1.02851
1.06614
1.16988
1.42517
2.1152
3.87077
7.40276
7.83692
7.73531
7.47495
7.0905
6.7603
1
1
1
1
1.00001
1.00002
1.00004
1.00009
1.00021
1.00057
1.00127
1.00336
1.00754
1.01984
1.04581
1.11759
1.29075
1.76586
3.03484
6.19216
7.64948
7.62756
7.47337
7.13638
6.80346
1
1
1
1
1
1.00001
1.00003
1.00006
1.00015
1.00038
1.00087
1.00228
1.00513
1.01349
1.03095
1.07959
1.19307
1.50203
2.31504
4.41608
7.22489
7.53498
7.44688
7.21735
6.89378
1
1
1
1
1
1.00001
1.00002
1.00004
1.00011
1.00024
1.00061
1.00147
1.00353
1.0088
1.02082
1.05236
1.12651
1.3224
1.83115
3.16825
6.25921
7.37517
7.36826
7.27266
7.0543
1
1
1
1
1
1
1.00001
1.00003
1.00007
1.00017
1.00039
1.00102
1.00228
1.00599
1.01358
1.03511
1.08272
1.21091
1.53496
2.40262
4.58988
7.00866
7.34342
7.32149
7.246
1
1
1
1
1
1
1.00001
1.00002
1.00005
1.0001
1.00027
1.00063
1.00155
1.00377
1.00896
1.02242
1.05326
1.13352
1.33229
1.85726
3.19219
6.18522
7.25725
7.44041
7.50612
1
1
1
1
1
1
1.00001
1.00001
1.00003
1.00007
1.00017
1.00042
1.00098
1.00252
1.00571
1.01487
1.0341
1.08726
1.2113
1.54644
2.40966
4.57144
6.98134
7.66987
7.96147
1
1
1
1
1
1
1
1.00001
1.00002
1.00004
1.00012
1.00026
1.00067
1.00152
1.00394
1.00907
1.02284
1.05451
1.13554
1.3386
1.86961
3.22369
6.27187
7.92795
8.71086
1
1
1
1
1
1
1
1.00001
1.00001
1.00003
1.00007
1.00017
1.00045
1.00101
1.00264
1.00594
1.01554
1.03555
1.09123
1.22088
1.57305
2.48569
4.78992
8.06585
9.8304
1
1
1
1
1
1
1
1
1.00001
1.00002
1.00005
1.00013
1.00029
1.00076
1.00171
1.0045
1.01022
1.02638
1.06219
1.15777
1.39769
2.05036
3.79378
7.92552
11.1021
1
1
1
1
1
1
1
1
1.00001
1.00002
1.00004
1.00009
1.00024
1.00054
1.00141
1.00329
1.00833
1.0201
1.04997
1.12417
1.31788
1.85076
3.37198
7.51528
12.1275
1
1
1
1
1
1
1
1
1.00001
1.00001
1.00003
1.00008
1.00019
1.00045
1.00119
1.00271
1.00721
1.01655
1.04366
1.10471
1.27525
1.73177
3.09022
7.06928
12.7569
1
1
1
1
1
1
1
1
1
1.00001
1.00003
1.00007
1.00017
1.00041
1.00107
1.00245
1.00655
1.0151
1.03995
1.09615
1.25331
1.6753
2.94648
6.82775
12.957
1
1
1
1
1
1
1
1
1
1.00001
1.00002
1.00007
1.00015
1.00041
1.00094
1.00246
1.00589
1.0149
1.03682
1.09262
1.23806
1.63991
2.83648
6.54009
12.9161
1
1
1
1
1
1
1
1
1
1.00001
1.00002
1.00006
1.00015
1.00037
1.00096
1.00226
1.00593
1.01389
1.03628
1.088
1.22974
1.60997
2.74002
6.20749
12.8242
1
1
1
1
1
1
1
1
1
1.00001
1.00002
1.00006
1.00014
1.00038
1.00087
1.00235
1.00534
1.0144
1.03343
1.08797
1.21899
1.59144
2.66679
5.95458
12.6611
1
1
1
1
1
1
1
1
1
1.00001
1.00002
1.00006
1.00014
1.00035
1.0009
1.00215
1.00558
1.01315
1.03422
1.08293
1.21568
1.56919
2.60926
5.75989
12.4541
1
1
1
1
1
1
1
1
1
1.00001
1.00002
1.00006
1.00014
1.00035
1.00088
1.0021
1.00543
1.01285
1.03332
1.08079
1.20966
1.55199
2.55566
5.5869
12.2483
1
1
1
1
1
1
1
1
1
1.00001
1.00002
1.00006
1.00014
1.00034
1.00086
1.00205
1.00533
1.01252
1.03264
1.07869
1.20449
1.53632
2.50791
5.4334
12.0551
1
1
1
1
1
1
1
1
1
1.00001
1.00002
1.00005
1.00014
1.00032
1.00087
1.00198
1.00529
1.01222
1.03199
1.07701
1.19964
1.52293
2.46487
5.2981
11.8705
1
1
1
1
1
1
1
1
1
1.00001
1.00002
1.00005
1.00014
1.00032
1.00084
1.002
1.00505
1.01238
1.03069
1.07661
1.19426
1.51233
2.42777
5.18229
11.6978
1
1
1
1
1
1
1
1
1
1.00001
1.00002
1.00005
1.00014
1.00031
1.00085
1.00191
1.00514
1.01177
1.03105
1.07404
1.19237
1.50094
2.39873
5.08683
11.547
1
1
1
1
1
1
1
1
1
1.00001
1.00002
1.00005
1.00014
1.00031
1.00083
1.0019
1.00508
1.01158
1.03077
1.07275
1.1899
1.49259
2.37542
5.01264
11.4241
1
1
1
1
1
1
1
1
1
1.00001
1.00002
1.00005
1.00014
1.00031
1.00083
1.00189
1.00498
1.01167
1.02992
1.07291
1.18662
1.48785
2.35683
4.95883
11.3311
1
1
1
1
1
1
1
1
1
1.00001
1.00002
1.00005
1.00013
1.00033
1.00076
1.00203
1.0046
1.01232
1.02843
1.07436
1.18278
1.4862
2.34421
4.92329
11.2681
1
1
1
1
1
1
1
1
1
1.00001
1.00002
1.00005
1.00012
1.00033
1.00076
1.002
1.0047
1.01194
1.02908
1.07291
1.18366
1.48263
2.33974
4.9054
11.2366
3.78452
3.25776
4.24387
4.27923
4.0348
3.93641
3.88465
3.79382
3.68524
3.58899
3.50909
3.42836
3.3376
3.27393
3.24648
3.23919
3.24483
3.28601
3.35809
3.45437
3.56568
3.68306
3.80072
3.91427
4.02178
4.12283
4.21784
4.30734
4.39166
4.47118
4.54649
4.61759
4.68343
4.74262
4.79541
4.84221
4.88336
4.91848
4.95083
4.97894
5.00039
5.01541
5.02496
5.0299
5.03013
5.02777
5.02098
5.00878
4.99337
4.975
4.95363
4.92939
4.90249
4.87296
4.84114
4.80706
4.77096
4.73292
4.69312
4.65165
4.60871
4.56432
4.51871
4.47189
4.42409
4.37529
4.32573
4.2754
4.22449
4.17306
4.12125
4.06915
4.01689
3.96458
3.91233
3.86023
3.8084
3.75691
3.70585
3.65527
3.60523
3.55576
3.50689
3.45868
3.41112
3.36425
3.31808
3.27266
3.22799
3.18411
3.14109
3.09899
3.05789
3.01805
2.97968
2.9432
2.90922
2.87877
2.85327
2.83597
4.68993
4.20778
4.35336
4.23414
4.00578
3.96428
3.93923
3.81032
3.67704
3.56855
3.49036
3.41929
3.34539
3.27702
3.24292
3.23216
3.23699
3.27749
3.34955
3.44664
3.55916
3.67696
3.79511
3.90889
4.01654
4.11735
4.21197
4.30085
4.38463
4.46319
4.53776
4.60944
4.67588
4.73522
4.78841
4.83547
4.87688
4.91295
4.94479
4.97226
4.99395
5.0094
5.01932
5.02427
5.02458
5.02276
5.01684
5.00435
4.9883
4.96992
4.94887
4.92482
4.89803
4.86863
4.83693
4.80296
4.767
4.72907
4.68943
4.64808
4.60528
4.56104
4.51557
4.46892
4.42126
4.37264
4.32321
4.27305
4.22229
4.17101
4.11934
4.06738
4.01524
3.96305
3.9109
3.8589
3.80715
3.75574
3.70474
3.65422
3.60422
3.5548
3.50595
3.45775
3.4102
3.36332
3.31718
3.27177
3.22708
3.18315
3.14014
3.09805
3.05703
3.01714
2.9787
2.94208
2.90791
2.87714
2.85116
2.83333
5.5059
4.78062
4.51801
4.27003
4.04799
3.96409
3.8855
3.77979
3.66389
3.56729
3.49601
3.41915
3.34001
3.27197
3.22901
3.21227
3.2237
3.26773
3.33695
3.43195
3.54446
3.66201
3.78299
3.89737
4.00604
4.10763
4.20308
4.29289
4.37766
4.45738
4.53287
4.60407
4.67003
4.72937
4.78261
4.82971
4.87132
4.90753
4.9392
4.96605
4.98753
5.00305
5.01303
5.01785
5.01786
5.0164
5.01134
4.99987
4.98233
4.9633
4.94225
4.91842
4.89176
4.86248
4.83085
4.797
4.76113
4.72334
4.68381
4.64263
4.59997
4.55592
4.51062
4.46418
4.41671
4.3683
4.31909
4.26915
4.21859
4.16752
4.11605
4.06427
4.01232
3.96029
3.9083
3.85644
3.80482
3.75353
3.70264
3.6522
3.60226
3.5529
3.50407
3.45594
3.40844
3.36149
3.31539
3.27005
3.22546
3.18168
3.13867
3.09656
3.05548
3.01553
2.97698
2.94018
2.90569
2.87445
2.84772
2.82894
5.86663
5.08436
4.63984
4.34842
4.1251
3.98419
3.8856
3.77686
3.66412
3.56343
3.4844
3.40693
3.33281
3.27352
3.23597
3.21983
3.22676
3.26131
3.33308
3.42738
3.53685
3.6535
3.77171
3.88618
3.99495
4.0972
4.19328
4.28353
4.36851
4.44833
4.52346
4.594
4.65941
4.71872
4.77189
4.81901
4.86052
4.89668
4.92792
4.95428
4.97542
4.99099
5.00106
5.00584
5.00577
5.00452
5.0003
4.99039
4.97216
4.95221
4.93086
4.90719
4.88085
4.85186
4.82047
4.78686
4.75122
4.71369
4.67442
4.63352
4.59114
4.5474
4.50241
4.45629
4.40914
4.36108
4.31219
4.2626
4.21236
4.16161
4.11043
4.05896
4.00726
3.9555
3.90374
3.85212
3.80071
3.74965
3.69894
3.64868
3.59888
3.54968
3.5008
3.45286
3.4055
3.35898
3.31291
3.26756
3.22299
3.1792
3.13624
3.09415
3.05308
3.0131
2.97449
2.9375
2.90271
2.87095
2.84343
2.82357
6.04757
5.30193
4.79515
4.45907
4.21601
4.03713
3.91008
3.79545
3.68273
3.58393
3.50409
3.43039
3.3633
3.30966
3.27388
3.25997
3.26536
3.29007
3.34839
3.4365
3.53426
3.64014
3.75352
3.8674
3.97719
4.08118
4.17898
4.27066
4.35656
4.43693
4.51212
4.58223
4.647
4.70589
4.75874
4.80561
4.84681
4.88264
4.91341
4.93924
4.96001
4.97549
4.98562
4.99042
4.99031
4.98916
4.9855
4.97691
4.95959
4.93884
4.91678
4.89297
4.8669
4.83828
4.80726
4.77397
4.73865
4.70144
4.66249
4.62194
4.57992
4.53655
4.49195
4.44623
4.39949
4.35183
4.30335
4.25414
4.2043
4.15391
4.1031
4.05195
4.0006
3.94914
3.89769
3.84636
3.79525
3.74444
3.69399
3.64391
3.59428
3.54523
3.49695
3.44905
3.40178
3.35523
3.3093
3.26405
3.21956
3.17584
3.13296
3.09093
3.04992
3.00995
2.97131
2.93421
2.89917
2.86696
2.83873
2.81779
6.15791
5.48069
4.96288
4.59162
4.32178
4.12041
3.96774
3.84335
3.73211
3.63699
3.5598
3.49733
3.44684
3.40796
3.38346
3.37533
3.37746
3.38772
3.41464
3.46946
3.53754
3.61926
3.72436
3.83754
3.95121
4.06011
4.16153
4.25539
4.34196
4.42235
4.49695
4.56619
4.63005
4.6883
4.74071
4.7873
4.82818
4.86365
4.89396
4.91931
4.93971
4.95506
4.96526
4.97019
4.97008
4.96904
4.96582
4.95831
4.94292
4.92206
4.89937
4.87524
4.84926
4.82101
4.79043
4.7576
4.7227
4.68591
4.64738
4.60726
4.56569
4.52277
4.47864
4.43339
4.38714
4.33995
4.29195
4.24319
4.1938
4.14384
4.09345
4.0427
3.99174
3.94066
3.88958
3.83865
3.78787
3.73733
3.68717
3.63759
3.58839
3.53974
3.49157
3.44396
3.39685
3.35043
3.30464
3.25955
3.21518
3.17159
3.12884
3.08695
3.04604
3.00619
2.96762
2.93053
2.89539
2.86293
2.8342
2.81235
6.22931
5.62307
5.11943
4.73115
4.43813
4.21635
4.04858
3.91753
3.81044
3.72578
3.66505
3.62439
3.59684
3.57793
3.56549
3.55744
3.55144
3.54388
3.5352
3.53858
3.55567
3.59904
3.67896
3.78181
3.90159
4.02138
4.13228
4.23206
4.32118
4.4021
4.47614
4.54443
4.60744
4.66507
4.71723
4.76375
4.80457
4.83988
4.86996
4.89501
4.91517
4.93043
4.94077
4.94599
4.94592
4.94501
4.94221
4.93567
4.92217
4.90218
4.87948
4.85511
4.82905
4.80101
4.77083
4.7385
4.70412
4.66784
4.62982
4.59021
4.54916
4.50676
4.46317
4.41845
4.37273
4.32607
4.27858
4.23032
4.1814
4.1319
4.08194
4.03162
3.98108
3.93045
3.87977
3.82926
3.77898
3.72914
3.67947
3.63027
3.58137
3.53297
3.48498
3.43756
3.39067
3.34442
3.29882
3.25391
3.20975
3.16635
3.12381
3.08212
3.04145
3.00181
2.96347
2.92656
2.89155
2.85909
2.83021
2.808
6.27631
5.73349
5.25635
4.86659
4.56012
4.32359
4.14363
4.00849
3.90975
3.84541
3.81226
3.80282
3.80521
3.81354
3.8136
3.80931
3.79458
3.75939
3.68898
3.62986
3.61434
3.62402
3.65748
3.72992
3.8312
3.95696
4.0808
4.19258
4.2899
4.37472
4.44985
4.51773
4.57983
4.63662
4.68833
4.73479
4.77563
4.811
4.84109
4.86609
4.88616
4.90143
4.91194
4.9176
4.91757
4.9168
4.91434
4.90861
4.89678
4.87834
4.85637
4.83212
4.80601
4.77807
4.74821
4.71634
4.68253
4.64682
4.6094
4.57036
4.52989
4.48807
4.44506
4.40092
4.35578
4.30967
4.26273
4.21499
4.16658
4.11757
4.0681
4.01829
3.96824
3.91814
3.86813
3.81832
3.76864
3.71925
3.67003
3.62117
3.57261
3.5245
3.47681
3.42967
3.38307
3.33709
3.29177
3.24712
3.20325
3.16012
3.1179
3.07652
3.03621
2.99693
2.95898
2.92248
2.88787
2.85579
2.82714
2.80519
6.3087
5.82
5.37412
4.99384
4.68425
4.44071
4.25665
4.12456
4.04539
4.01601
4.01951
4.03584
4.07628
4.12688
4.12575
4.11419
4.07901
3.99858
3.86442
3.75245
3.68569
3.67532
3.68496
3.717
3.7876
3.88235
4.00223
4.124
4.23418
4.32931
4.41087
4.48181
4.54481
4.6015
4.65278
4.69893
4.73989
4.77557
4.80603
4.83141
4.85178
4.86744
4.87838
4.88467
4.88508
4.88444
4.88229
4.87727
4.86691
4.85036
4.82976
4.80618
4.78033
4.75255
4.72297
4.69156
4.65831
4.62324
4.58648
4.54811
4.50829
4.46712
4.42474
4.38122
4.33667
4.29115
4.24475
4.19754
4.14963
4.10112
4.05214
4.00286
3.95348
3.9042
3.85493
3.80578
3.75665
3.70773
3.65894
3.61049
3.5623
3.51457
3.46725
3.42046
3.3742
3.32855
3.28357
3.23926
3.19575
3.153
3.11117
3.07024
3.03041
2.99168
2.95433
2.91851
2.88463
2.8534
2.82544
2.80447
6.33327
5.89057
5.47689
5.1135
4.81039
4.5701
4.39313
4.27857
4.24034
4.2466
4.27249
4.33443
4.44094
4.48586
4.47841
4.44815
4.37308
4.21987
4.04444
3.89889
3.79897
3.74749
3.74621
3.75499
3.78324
3.84656
3.93021
4.03528
4.14929
4.25581
4.34936
4.42971
4.49861
4.55824
4.61053
4.65683
4.69784
4.7338
4.76488
4.79072
4.81183
4.82837
4.84015
4.8474
4.84886
4.84833
4.8465
4.84219
4.83331
4.81867
4.79977
4.77739
4.75225
4.72489
4.69567
4.66468
4.63196
4.59752
4.56144
4.52377
4.48465
4.44416
4.40244
4.35956
4.31562
4.27067
4.22481
4.17812
4.1307
4.08271
4.03438
3.98596
3.93743
3.88889
3.84025
3.79168
3.74308
3.69466
3.64635
3.59836
3.55063
3.50333
3.45643
3.41005
3.36421
3.31897
3.27441
3.23054
3.18748
3.14522
3.10393
3.06359
3.02442
2.98645
2.94997
2.91516
2.88243
2.85258
2.82579
2.80628
6.35447
5.95157
5.56986
5.2292
4.94219
4.71808
4.5631
4.49399
4.49953
4.52707
4.596
4.73564
4.85098
4.85544
4.8358
4.7725
4.63192
4.42068
4.22495
4.06519
3.94639
3.86803
3.82795
3.82334
3.82926
3.85011
3.89853
3.96731
4.0548
4.15722
4.25834
4.35131
4.43217
4.50052
4.55814
4.60714
4.64936
4.68591
4.71745
4.74414
4.76624
4.7838
4.79677
4.80547
4.80862
4.80824
4.8068
4.80331
4.79603
4.78317
4.76607
4.74523
4.72126
4.69473
4.6661
4.6356
4.60339
4.56952
4.53408
4.49709
4.45867
4.41887
4.37782
4.33556
4.29222
4.24781
4.20247
4.15626
4.10941
4.06222
4.01477
3.96718
3.91937
3.87148
3.82344
3.77544
3.72742
3.67956
3.63181
3.58435
3.53715
3.49035
3.44396
3.39807
3.35273
3.308
3.26396
3.22063
3.17815
3.13652
3.09592
3.05635
3.01807
2.98113
2.94588
2.91255
2.88156
2.85359
2.82832
2.81172
6.37571
6.00834
5.65925
5.34802
5.08907
4.89824
4.78819
4.78985
4.81308
4.88067
5.02399
5.18679
5.24137
5.22715
5.17491
5.05251
4.82963
4.60568
4.41001
4.24826
4.11963
4.02223
3.95374
3.91338
3.89628
3.89857
3.91018
3.94034
3.99674
4.06185
4.14906
4.24567
4.33767
4.41881
4.48744
4.54435
4.59149
4.63078
4.66379
4.69156
4.71471
4.73365
4.74792
4.75829
4.76381
4.76371
4.76282
4.76032
4.75489
4.74399
4.72872
4.70966
4.68722
4.66187
4.6341
4.60428
4.57268
4.53943
4.50464
4.46834
4.43064
4.39156
4.3512
4.3096
4.26684
4.22297
4.17811
4.13256
4.08657
4.04027
3.99363
3.94677
3.89964
3.8524
3.80501
3.75764
3.71026
3.66302
3.61589
3.56903
3.52243
3.47622
3.43041
3.38511
3.34037
3.29625
3.25284
3.21019
3.16843
3.12759
3.08787
3.04931
3.01221
2.97666
2.94308
2.91182
2.88282
2.85734
2.83469
2.82271
6.3995
6.06596
5.75381
5.48072
5.26704
5.13185
5.10828
5.12872
5.19351
5.33603
5.52022
5.61046
5.60247
5.56146
5.45602
5.24375
5.00692
4.7907
4.60405
4.44505
4.31076
4.19862
4.10807
4.03862
3.99047
3.96074
3.95523
3.95986
3.97701
4.01452
4.06307
4.13554
4.22312
4.31114
4.39137
4.46046
4.51776
4.56428
4.60192
4.63255
4.65764
4.67808
4.69419
4.70603
4.71364
4.71555
4.71503
4.71329
4.70924
4.70091
4.68769
4.67056
4.64988
4.62602
4.59944
4.57055
4.53971
4.50714
4.47301
4.43739
4.40038
4.36198
4.3223
4.28131
4.23908
4.19574
4.15162
4.10694
4.06179
4.01628
3.97038
3.92423
3.8778
3.83125
3.78455
3.73787
3.69116
3.64459
3.59814
3.55195
3.50602
3.46047
3.41534
3.37072
3.32668
3.28328
3.24065
3.19881
3.15796
3.1181
3.07953
3.04229
3.00676
2.9731
2.94187
2.91304
2.8868
2.86527
2.84681
2.84072
6.42835
6.13221
5.86498
5.64731
5.50066
5.45887
5.47672
5.53791
5.67549
5.86644
5.97433
5.96974
5.93459
5.83748
5.63789
5.40308
5.18102
4.98268
4.80747
4.65123
4.51159
4.38714
4.27858
4.18642
4.11194
4.0548
4.01669
3.99553
3.99647
4.00413
4.02453
4.06149
4.11663
4.19328
4.27428
4.35216
4.42126
4.47921
4.52618
4.5636
4.59325
4.61667
4.63505
4.64863
4.65811
4.66293
4.66278
4.6618
4.65913
4.65338
4.64246
4.6274
4.60867
4.58657
4.56149
4.53383
4.504
4.47226
4.43889
4.40398
4.36767
4.32997
4.29092
4.2505
4.20886
4.16631
4.12308
4.07929
4.03497
3.99024
3.94511
3.89971
3.85404
3.80824
3.7623
3.71636
3.67041
3.62459
3.5789
3.53345
3.48829
3.44351
3.39917
3.35535
3.31215
3.26962
3.22793
3.1871
3.14737
3.10879
3.0717
3.0362
3.00277
2.97176
2.94319
2.91744
2.89553
2.87945
2.86718
2.86701
6.47421
6.22287
6.01558
5.87364
5.82896
5.84653
5.90871
6.04824
6.23474
6.34478
6.34069
6.30486
6.2057
6.00365
5.77648
5.55928
5.36153
5.18091
5.01449
4.85907
4.71395
4.5793
4.45658
4.34686
4.2516
4.17152
4.10747
4.05971
4.02936
4.01745
4.01992
4.03018
4.05314
4.09435
4.15643
4.22939
4.30283
4.3708
4.42976
4.47822
4.51666
4.54636
4.56893
4.58564
4.59737
4.60475
4.60665
4.60615
4.60448
4.60061
4.59268
4.57987
4.56326
4.54316
4.51986
4.49373
4.46517
4.4345
4.40203
4.36793
4.33237
4.29535
4.2569
4.2171
4.17629
4.13467
4.09236
4.04944
4.00597
3.96206
3.91775
3.87316
3.8283
3.7833
3.73817
3.69304
3.64792
3.60291
3.55805
3.51344
3.46915
3.42522
3.38179
3.33889
3.29668
3.25519
3.21463
3.17506
3.13674
3.09982
3.06465
3.0315
3.00099
2.97303
2.94779
2.92692
2.91116
2.90214
2.89931
2.90064
6.55024
6.35763
6.2317
6.20207
6.22294
6.29456
6.45052
6.63252
6.73123
6.72427
6.68075
6.56941
6.35348
6.12957
5.91915
5.72668
5.5489
5.38038
5.21878
5.06262
4.91259
4.76992
4.63637
4.51326
4.402
4.30359
4.21882
4.14848
4.09292
4.05387
4.02909
4.02533
4.0283
4.0396
4.06568
4.11487
4.17624
4.24463
4.31121
4.371
4.42133
4.46134
4.49183
4.51427
4.53018
4.54044
4.54594
4.54584
4.54499
4.54267
4.53758
4.52735
4.51299
4.49508
4.47386
4.44958
4.4226
4.39325
4.36191
4.32877
4.29405
4.25772
4.21994
4.18099
4.14114
4.10049
4.05913
4.01713
3.97457
3.93157
3.88814
3.84444
3.80047
3.75636
3.71213
3.66789
3.62369
3.57959
3.5357
3.49203
3.44872
3.4058
3.36343
3.32162
3.28058
3.24035
3.20118
3.1632
3.12669
3.09193
3.05933
3.02945
3.0023
2.97794
2.95797
2.94414
2.93642
2.93677
2.93904
2.94632
6.67661
6.56282
6.56203
6.5916
6.68348
6.87504
7.05973
7.14234
7.1294
7.06995
6.92912
6.70273
6.47335
6.26538
6.07801
5.90466
5.73914
5.57712
5.41679
5.25882
5.10461
4.95577
4.81402
4.6808
4.5573
4.44467
4.34353
4.25489
4.17902
4.11704
4.069
4.03652
4.01994
4.01812
4.02127
4.03445
4.06443
4.11836
4.17913
4.24324
4.30338
4.35537
4.39748
4.42971
4.45298
4.46868
4.4781
4.48127
4.48092
4.47953
4.47618
4.46921
4.45733
4.44184
4.42296
4.40082
4.37575
4.34804
4.31808
4.28612
4.25236
4.21685
4.18
4.14209
4.10328
4.06366
4.0233
3.98232
3.94076
3.89875
3.85631
3.81358
3.77059
3.72746
3.68423
3.64099
3.5978
3.55474
3.51189
3.46931
3.42711
3.38535
3.3442
3.30368
3.26405
3.22537
3.18794
3.15197
3.11785
3.08595
3.05695
3.03082
3.00759
2.98894
2.97675
2.97235
2.97343
2.97767
2.98909
3.01501
6.88899
6.89332
6.93992
7.06663
7.31751
7.5162
7.58381
7.56287
7.48312
7.30504
7.05632
6.81616
6.60452
6.41841
6.24869
6.08677
5.92727
5.76763
5.60692
5.44685
5.28915
5.13548
4.98748
4.84651
4.71367
4.58999
4.47606
4.37281
4.28053
4.20007
4.1319
4.07697
4.03572
4.01128
3.99883
3.99589
4.00071
4.01713
4.05292
4.10751
4.16715
4.22649
4.28033
4.32522
4.35981
4.38456
4.40082
4.40947
4.41158
4.411
4.40906
4.40471
4.39589
4.38295
4.36656
4.34681
4.32394
4.2982
4.26996
4.23945
4.20686
4.17249
4.13685
4.10011
4.06244
4.02394
3.98471
3.94483
3.90438
3.86345
3.82211
3.78047
3.73858
3.69654
3.65441
3.6123
3.57025
3.52837
3.4867
3.44538
3.40445
3.36407
3.32433
3.2854
3.24746
3.21073
3.17553
3.14219
3.11124
3.08333
3.05846
3.03655
3.01972
3.00908
3.00811
3.00986
3.01594
3.03045
3.05927
3.11722
7.24
7.29383
7.44779
7.75697
7.99485
8.05768
8.02812
7.92516
7.70336
7.42646
7.16849
6.94665
6.75593
6.58568
6.42559
6.26849
6.11055
5.95063
5.78859
5.62657
5.46596
5.30846
5.1556
5.00864
4.86858
4.73628
4.61237
4.49752
4.39219
4.29696
4.21236
4.13898
4.07752
4.0292
3.99508
3.97658
3.9619
3.96285
3.97036
3.99021
4.03132
4.08464
4.14248
4.19699
4.24392
4.2812
4.30822
4.32576
4.33487
4.33645
4.33574
4.33346
4.32837
4.31819
4.30426
4.28699
4.26656
4.24313
4.217
4.18827
4.15726
4.12446
4.09027
4.05489
4.01852
3.98128
3.94329
3.90463
3.86541
3.82569
3.78558
3.74513
3.70448
3.66366
3.62279
3.58193
3.54118
3.50061
3.46032
3.42042
3.38099
3.3422
3.30418
3.26715
3.23134
3.19709
3.16481
3.135
3.1085
3.08508
3.06479
3.04993
3.04229
3.04282
3.04602
3.05517
3.07525
3.11584
3.16017
3.23859
7.64281
7.91547
8.2422
8.49939
8.56261
8.52508
8.3972
8.12804
7.81792
7.53712
7.29999
7.09969
6.92388
6.76153
6.60427
6.44708
6.28769
6.12588
5.96146
5.79773
5.63477
5.47428
5.31768
5.16608
5.02038
4.88135
4.74958
4.6256
4.5099
4.40291
4.30507
4.21675
4.1387
4.07156
4.01642
3.97447
3.94792
3.92627
3.915
3.91769
3.92853
3.95353
4.00013
4.05163
4.10487
4.15355
4.19375
4.22374
4.24376
4.25395
4.25615
4.25541
4.2529
4.24725
4.23604
4.22124
4.2033
4.18241
4.1587
4.13222
4.10326
4.0724
4.03997
4.00623
3.97138
3.93558
3.89898
3.86169
3.8238
3.78543
3.74666
3.70758
3.66829
3.62884
3.58939
3.54994
3.51067
3.4716
3.4329
3.39464
3.35698
3.32009
3.28419
3.24953
3.21647
3.18547
3.1571
3.13222
3.11067
3.09221
3.07952
3.07579
3.07713
3.08212
3.09516
3.12252
3.16784
3.22891
3.28425
3.36736
8.34567
8.77813
9.06328
9.11272
9.06332
8.90321
8.57518
8.2305
7.92562
7.67032
7.45643
7.27105
7.10203
6.94062
6.78119
6.62066
6.45799
6.29333
6.12801
5.96128
5.79597
5.63311
5.47362
5.31847
5.16833
5.024
4.88591
4.7547
4.63074
4.51422
4.4057
4.30539
4.21392
4.13169
4.0595
3.99834
3.94886
3.91448
3.88592
3.86463
3.86239
3.86665
3.88022
3.90981
3.95607
4.00651
4.05556
4.09833
4.13184
4.15456
4.16723
4.17057
4.16986
4.16732
4.16149
4.14979
4.1345
4.11612
4.09486
4.07082
4.04446
4.01602
3.98577
3.95401
3.92093
3.8868
3.85175
3.81598
3.77958
3.74271
3.70542
3.66787
3.63009
3.59222
3.55433
3.51653
3.47892
3.4416
3.40472
3.36841
3.33287
3.29831
3.26504
3.23342
3.20398
3.17733
3.15451
3.13484
3.11918
3.10851
3.1087
3.11118
3.11897
3.13667
3.17246
3.22494
3.28671
3.35725
3.41481
3.48892
9.33609
9.70063
9.73769
9.66779
9.45817
9.0485
8.66149
8.33151
8.05826
7.82984
7.63228
7.45348
7.28445
7.11913
6.95422
6.78838
6.6213
6.45329
6.28517
6.1169
5.95005
5.78533
5.62356
5.46553
5.3119
5.16334
5.0203
4.88323
4.75246
4.62828
4.5111
4.40114
4.29877
4.20444
4.11851
4.04187
3.97517
3.91947
3.87719
3.84187
3.81479
3.79811
3.79944
3.80626
3.82354
3.85893
3.90367
3.9518
3.99612
4.03241
4.05852
4.0742
4.07978
4.07926
4.07715
4.07165
4.06051
4.04499
4.02606
4.00452
3.98081
3.95503
3.92737
3.89797
3.86706
3.83486
3.80164
3.76758
3.73286
3.69764
3.66201
3.62614
3.59007
3.55396
3.51785
3.48191
3.44621
3.41092
3.37618
3.34221
3.30925
3.27761
3.24772
3.22014
3.19551
3.17521
3.15776
3.14475
3.13873
3.13976
3.14427
3.15617
3.18135
3.22615
3.28329
3.35002
3.4182
3.48584
3.53472
3.59169
10.4676
10.4709
10.3623
10.0603
9.56454
9.11548
8.75235
8.46036
8.21834
8.00868
7.81853
7.63913
7.46493
7.29281
7.12117
6.94959
6.77801
6.60674
6.43611
6.26624
6.09785
5.93153
5.76788
5.60755
5.45109
5.29911
5.15201
5.01013
4.87379
4.7433
4.61901
4.50102
4.38981
4.28542
4.1886
4.0994
4.01886
3.94736
3.886
3.83612
3.79572
3.76069
3.73519
3.72855
3.73097
3.74006
3.76089
3.80025
3.84366
3.88779
3.92662
3.95644
3.97541
3.98489
3.98474
3.98316
3.97866
3.96908
3.95307
3.93403
3.91278
3.88964
3.8647
3.83795
3.80955
3.77967
3.74862
3.71656
3.68377
3.6504
3.61665
3.58263
3.54849
3.51432
3.48026
3.44642
3.41295
3.38004
3.3479
3.31679
3.28707
3.25919
3.23381
3.21155
3.1941
3.17958
3.16893
3.1681
3.17027
3.1777
3.19497
3.23014
3.28121
3.34436
3.41361
3.48339
3.54611
3.60015
3.63325
3.67172
11.3822
11.2042
10.74
10.1102
9.5895
9.18609
8.87258
8.61773
8.39748
8.19648
8.00588
7.82097
7.63927
7.45964
7.28148
7.1047
6.92914
6.75489
6.58196
6.4106
6.24047
6.07265
5.90734
5.74502
5.58613
5.43116
5.28048
5.13454
4.99364
4.85792
4.72766
4.60304
4.48437
4.37185
4.26587
4.16668
4.07466
3.99037
3.91459
3.84815
3.79203
3.74633
3.70448
3.6729
3.65357
3.65381
3.65755
3.66916
3.6943
3.73376
3.77639
3.81658
3.84951
3.87273
3.88546
3.88789
3.88683
3.88354
3.8757
3.86017
3.84169
3.821
3.7985
3.77431
3.74853
3.72128
3.69272
3.66302
3.63245
3.60123
3.56958
3.53768
3.50568
3.47373
3.44197
3.41057
3.37972
3.34967
3.32069
3.29318
3.26765
3.24475
3.2255
3.211
3.19976
3.19338
3.1945
3.19919
3.21155
3.23744
3.28207
3.33978
3.407
3.4784
3.54734
3.60814
3.65618
3.6912
3.70834
3.7318
12.0254
11.5355
10.7081
10.0841
9.62538
9.28807
9.02162
8.79275
8.58257
8.38163
8.1858
7.99369
7.8047
7.6187
7.43537
7.2545
7.07575
6.89895
6.72389
6.55062
6.37892
6.20946
6.04249
5.87831
5.71717
5.55958
5.40576
5.25615
5.11097
4.97053
4.83505
4.70473
4.5798
4.46044
4.34693
4.23947
4.13839
4.04406
3.95687
3.87745
3.80651
3.74475
3.69388
3.64672
3.60756
3.58204
3.57158
3.57281
3.57887
3.59397
3.62491
3.66376
3.70432
3.74001
3.76679
3.78308
3.78965
3.78914
3.78669
3.78053
3.76782
3.75051
3.73023
3.70821
3.68482
3.66016
3.63424
3.60718
3.57917
3.55043
3.52122
3.49172
3.46216
3.43273
3.40363
3.3751
3.34737
3.32081
3.29581
3.27294
3.25299
3.23686
3.22636
3.21738
3.2175
3.22025
3.22813
3.24685
3.28418
3.33616
3.40008
3.47116
3.54352
3.61084
3.66782
3.71175
3.74035
3.75861
3.76461
3.77687
12.33
11.3958
10.5927
10.0577
9.69323
9.41891
9.18508
8.96825
8.75888
8.55367
8.35193
8.15406
7.96022
7.77016
7.58353
7.39983
7.21866
7.03962
6.86249
6.68718
6.51372
6.34202
6.17307
6.00691
5.84354
5.68339
5.52661
5.37363
5.22466
5.08002
4.93995
4.80463
4.6743
4.54908
4.42921
4.31484
4.2062
4.10353
4.00716
3.91745
3.83493
3.76028
3.69385
3.63798
3.58629
3.54206
3.51016
3.49063
3.48706
3.48951
3.49807
3.51753
3.55314
3.59186
3.62877
3.65901
3.67959
3.69077
3.69127
3.69005
3.68597
3.67689
3.66017
3.64071
3.61955
3.59717
3.57372
3.54933
3.52413
3.49823
3.47183
3.44514
3.41843
3.39195
3.36599
3.34088
3.31701
3.29484
3.27498
3.25825
3.24605
3.23865
3.23515
3.23666
3.24253
3.25721
3.28719
3.33343
3.39268
3.46157
3.53531
3.60759
3.67251
3.72543
3.76445
3.78977
3.80281
3.80855
3.8096
3.8128
12.214
11.0995
10.4526
10.0684
9.79305
9.55863
9.33811
9.12325
8.91186
8.70395
8.50013
8.30054
8.10513
7.91351
7.72526
7.53981
7.35678
7.17573
6.99654
6.81906
6.64333
6.46943
6.29789
6.12939
5.96374
5.80103
5.64145
5.48533
5.33291
5.18451
5.04035
4.90066
4.76563