/*--------------------------------*- C++ -*----------------------------------*\
  =========                 |
  \\      /  F ield         | OpenFOAM: The Open Source CFD Toolbox
   \\    /   O peration     | Website:  https://openfoam.org
    \\  /    A nd           | Version:  13
     \\/     M anipulation  |
\*---------------------------------------------------------------------------*/
FoamFile
{
    format      ascii;
    class       surfaceScalarField;
    location    "8.5";
    object      phi;
}
// * * * * * * * * * * * * * * * * * * * * * * * * * * * * * * * * * * * * * //

dimensions      [1 0 -1 0 0 0 0];

internalField   nonuniform List<scalar> 
10325
(
0.00840002
1.30639e-10
0.00840006
2.371e-10
0.00839994
2.66306e-09
0.00840023
2.98272e-09
0.00839957
1.79026e-08
0.00840108
3.08844e-08
0.00839761
9.192e-08
0.00840429
2.56942e-07
0.00839131
4.19406e-07
0.00840881
1.53904e-06
0.00838158
2.76496e-06
0.00839482
9.76909e-06
0.00834904
2.92277e-05
0.00822994
0.000121746
0.00763065
0.000587099
0.00701471
0.000616602
0.00640621
0.000609146
0.00577383
0.000632345
0.00510888
0.000664789
0.00439847
0.00071029
0.00363185
0.000766433
0.00280844
0.000823282
0.00193173
0.00087653
0.000999112
0.000932241
0.000998928
0.00840003
2.71661e-10
0.00840002
7.29744e-10
0.00840009
4.85582e-09
0.00839989
6.99607e-09
0.00840031
3.52923e-08
0.00839936
4.49945e-08
0.00840095
2.28449e-07
0.00839765
2.54223e-07
0.00840222
1.31488e-06
0.00839288
1.95644e-06
0.00839972
7.25992e-06
0.0083791
1.80475e-05
0.00835208
6.18917e-05
0.0082239
0.000243692
0.00762291
0.00117839
0.007002
0.00123852
0.00640212
0.00120967
0.00577561
0.0012588
0.00511343
0.0013268
0.00439643
0.00142718
0.00362169
0.00154099
0.0027899
0.00165495
0.00190146
0.00176479
0.000963855
0.00186947
0.00196259
0.00840003
2.28735e-10
0.00840001
1.55267e-09
0.00840008
4.70151e-09
0.00839989
1.51428e-08
0.00840036
3.57542e-08
0.00839901
9.73083e-08
0.00840219
2.41852e-07
0.0083947
5.81442e-07
0.00840866
1.5438e-06
0.00838403
3.65258e-06
0.00840925
1.0063e-05
0.00837183
2.81253e-05
0.00835959
9.23447e-05
0.00822837
0.000361777
0.00764009
0.00175722
0.00701688
0.00186299
0.00642478
0.00180253
0.00580662
0.00187691
0.0051496
0.00198359
0.00443539
0.00214142
0.0036579
0.00231818
0.00282038
0.00249242
0.00192103
0.00266393
0.000971012
0.0028191
0.00293344
0.00840003
1.76103e-10
0.00840003
2.59405e-09
0.00840001
4.74695e-09
0.00840004
2.536e-08
0.00839998
3.64668e-08
0.00839983
1.6615e-07
0.00840016
2.30251e-07
0.00839844
1.01193e-06
0.00840068
1.55752e-06
0.00839542
5.72412e-06
0.00839545
1.22794e-05
0.00838343
3.85947e-05
0.00835636
0.000120813
0.00824101
0.000471028
0.00767738
0.00230923
0.00705827
0.00248354
0.00647499
0.00238675
0.00586762
0.00248419
0.00522097
0.00263009
0.00451387
0.00284828
0.00374297
0.00308907
0.00290107
0.00333437
0.00198963
0.00357506
0.00101148
0.00379685
0.00394503
0.00840003
5.33831e-10
0.00840005
1.92522e-09
0.00839998
1.05755e-08
0.00840013
1.90177e-08
0.00839968
7.67621e-08
0.0084008
1.33266e-07
0.00839784
4.64494e-07
0.00840444
8.78782e-07
0.00839009
2.6994e-06
0.00841136
5.95828e-06
0.00837997
1.67847e-05
0.00839673
4.62015e-05
0.0083479
0.000149503
0.00825686
0.000567538
0.00774279
0.00280969
0.00712875
0.0030993
0.00655227
0.00296422
0.00595851
0.00307788
0.00532607
0.00326243
0.00463396
0.00354022
0.00386969
0.00385339
0.00302881
0.00417503
0.00209767
0.00450595
0.00108021
0.00481412
0.00502528
0.00840003
3.59328e-10
0.00840001
3.43375e-09
0.00840012
8.41492e-09
0.00839984
3.34552e-08
0.0084005
6.32895e-08
0.00839895
2.12546e-07
0.00840248
4.24721e-07
0.00839464
1.25496e-06
0.00840932
2.80607e-06
0.00838314
7.55366e-06
0.00841224
1.9209e-05
0.00837102
5.46386e-05
0.00836831
0.000173912
0.00827507
0.000646786
0.00786557
0.00320812
0.00724166
0.00372576
0.00666988
0.00353727
0.00608918
0.00365855
0.00547422
0.0038773
0.00480193
0.00421242
0.00405226
0.00460312
0.00321125
0.00501596
0.00226229
0.00545475
0.00118561
0.00589069
0.00621073
0.00840003
6.27898e-10
0.00840005
2.84578e-09
0.00839998
1.24554e-08
0.00840014
2.74908e-08
0.00839971
9.30022e-08
0.00840077
1.83527e-07
0.00839804
5.921e-07
0.00840434
1.16563e-06
0.0083905
3.57896e-06
0.00841256
7.84436e-06
0.00837939
2.23051e-05
0.00840323
6.00266e-05
0.00836117
0.000191613
0.00831831
0.000697715
0.00808667
0.00342356
0.0074425
0.00437271
0.00685402
0.00412724
0.00627798
0.00423462
0.00568086
0.00447437
0.00503092
0.00486238
0.00430022
0.00533381
0.00346641
0.00584967
0.0024982
0.00642301
0.00135361
0.007035
0.00756408
0.00840003
4.52405e-10
0.00840004
3.68935e-09
0.0084
1.07105e-08
0.00840008
3.62976e-08
0.00839994
7.93187e-08
0.00840003
2.46221e-07
0.00839994
4.91377e-07
0.0083994
1.54311e-06
0.00839997
3.12714e-06
0.00839863
9.30741e-06
0.00839702
2.19133e-05
0.00839636
6.39408e-05
0.00838899
0.000194609
0.00838328
0.000700918
0.0084603
0.00333222
0.00779039
0.00504556
0.00714293
0.00477654
0.00655682
0.00482095
0.00597335
0.00505782
0.00534397
0.00549198
0.00463602
0.00604183
0.00381685
0.00666885
0.00284593
0.00739392
0.00162817
0.00825255
0.00919189
0.00840003
6.17144e-10
0.00840004
2.85939e-09
0.00840002
1.2363e-08
0.00840004
2.8008e-08
0.00839996
9.14889e-08
0.00840026
1.86731e-07
0.00839922
5.83891e-07
0.00840202
1.16723e-06
0.00839585
3.57047e-06
0.00840775
7.66251e-06
0.008393
2.20568e-05
0.00841429
5.70439e-05
0.00841806
0.000177172
0.00850998
0.000613904
0.00908326
0.00274258
0.00836968
0.00576113
0.00757674
0.00557104
0.00697407
0.00542404
0.00637488
0.00565708
0.005767
0.00610024
0.00508215
0.00672673
0.00431962
0.0074316
0.00340157
0.00831212
0.00211178
0.00954214
0.0113033
0.00840003
4.26522e-10
0.00840003
2.87214e-09
0.00840003
9.40686e-09
0.00840004
2.7949e-08
0.00840005
7.04086e-08
0.00839994
1.83471e-07
0.0084005
4.47702e-07
0.00839894
1.12332e-06
0.00840346
2.74946e-06
0.00839699
6.86318e-06
0.00841188
1.73659e-05
0.00841134
4.63606e-05
0.00846113
0.000135364
0.00861627
0.000451017
0.00944382
0.00190976
0.00894597
0.00625459
0.00803199
0.00648455
0.00748166
0.00597421
0.00687895
0.00625973
0.00630136
0.00667808
0.00569219
0.00733619
0.00502821
0.00809567
0.00417727
0.00916306
0.0029513
0.0107682
0.0142542
0.00840003
4.04206e-10
0.00840004
2.49573e-09
0.00840002
8.77102e-09
0.00840007
2.45448e-08
0.00839998
6.44579e-08
0.00840011
1.63573e-07
0.00840001
4.01428e-07
0.00839994
1.00417e-06
0.0084007
2.44922e-06
0.00840015
6.15435e-06
0.00840318
1.54168e-05
0.00840846
4.09301e-05
0.00842466
0.000117369
0.00848836
0.000384985
0.00883009
0.00156366
0.00879294
0.00628168
0.00855402
0.00672177
0.00788801
0.00663956
0.00737854
0.00676905
0.00688052
0.00717607
0.00642329
0.0077935
0.0059215
0.00859754
0.00546922
0.00961531
0.00540194
0.0108351
0.0113634
0.0082919
0.00840003
3.59269e-10
0.00840003
2.4673e-09
0.00840003
7.94738e-09
0.00840005
2.4028e-08
0.0084
5.91032e-08
0.00840006
1.57355e-07
0.00840003
3.73074e-07
0.00839977
9.62537e-07
0.00840062
2.31303e-06
0.00839903
5.87423e-06
0.00840238
1.46289e-05
0.00840205
3.86533e-05
0.00841105
0.000109217
0.0084389
0.0003529
0.00864429
0.00135611
0.00877157
0.00614337
0.00846163
0.00703099
0.00806862
0.00703237
0.00770781
0.00712985
0.00733437
0.00754955
0.00699858
0.00812938
0.00672313
0.00887294
0.00661092
0.00972744
0.00698145
0.0104647
0.0104778
0.00786582
0.00840003
3.21513e-10
0.00840004
2.40037e-09
0.00840001
7.50563e-09
0.00840009
2.34003e-08
0.00839993
5.62394e-08
0.00840026
1.57327e-07
0.00839965
3.49339e-07
0.00840051
9.89129e-07
0.00839917
2.12846e-06
0.00840119
6.05251e-06
0.00839812
1.37453e-05
0.00840413
3.82821e-05
0.00840198
0.000103765
0.00842534
0.000332401
0.00855293
0.00122424
0.00890439
0.00577977
0.00861209
0.00732356
0.00828457
0.00736025
0.00799617
0.0074185
0.00775066
0.00779482
0.00753161
0.00834835
0.00742672
0.00897815
0.00757074
0.00958296
0.00800841
0.0100266
0.00995341
0.00853176
0.00840003
3.96933e-10
0.00840003
2.01582e-09
0.00840003
8.13612e-09
0.00840003
1.96581e-08
0.00840002
5.99293e-08
0.00840008
1.31385e-07
0.00839978
3.80961e-07
0.00840082
8.20297e-07
0.00839792
2.33571e-06
0.0084046
5.1778e-06
0.00839364
1.42995e-05
0.00841053
3.50117e-05
0.00840014
9.96128e-05
0.00843877
0.00030448
0.00855979
0.00109269
0.00935121
0.00497699
0.00901718
0.00765858
0.00860375
0.00777464
0.00833498
0.00768792
0.00815707
0.00797285
0.00805511
0.00844987
0.00807499
0.00895799
0.00826429
0.00939368
0.00863816
0.00965245
0.009522
0.00906827
0.00840003
2.74027e-10
0.00840003
2.0652e-09
0.00840004
6.17714e-09
0.00840001
2.01847e-08
0.00840011
4.61491e-08
0.00839986
1.32557e-07
0.00840061
2.93983e-07
0.00839886
8.06514e-07
0.00840371
1.84277e-06
0.00839448
4.86411e-06
0.00841483
1.17299e-05
0.00839246
3.06608e-05
0.00843931
8.19381e-05
0.0084726
0.000244785
0.0087406
0.000835871
0.0102186
0.00348139
0.00964623
0.00823148
0.00921456
0.00820717
0.00880809
0.0080952
0.00859897
0.00818234
0.00853563
0.00851337
0.00859304
0.00890068
0.00878429
0.00920181
0.00910209
0.00933421
0.0091665
0.00945691
0.00840003
2.73008e-10
0.00840004
1.47489e-09
0.00840002
5.72661e-09
0.00840008
1.44075e-08
0.00839994
4.23027e-08
0.00840033
9.55541e-08
0.00839958
2.63397e-07
0.00840163
5.95801e-07
0.00839792
1.57628e-06
0.00840745
3.68959e-06
0.00839421
9.487e-06
0.00842515
2.33424e-05
0.00841479
6.19973e-05
0.00851027
0.000175809
0.00875909
0.000570253
0.00998406
0.0022544
0.0101301
0.00807982
0.00977605
0.00856055
0.00929007
0.00858103
0.00905696
0.00841569
0.00898832
0.00858185
0.00903941
0.00884961
0.00920121
0.00904
0.0094586
0.00907635
0.00888231
0.00974187
0.00840003
1.92518e-10
0.00840003
1.4067e-09
0.00840003
4.35728e-09
0.00840003
1.364e-08
0.00840005
3.25778e-08
0.00839999
8.924e-08
0.00840029
2.0656e-07
0.0083995
5.42504e-07
0.00840205
1.271e-06
0.00839719
3.24368e-06
0.0084093
7.85099e-06
0.0083957
1.98684e-05
0.00842728
5.13053e-05
0.00843862
0.000143234
0.00857177
0.000452053
0.0091148
0.00169793
0.0101189
0.00706451
0.00996036
0.00871774
0.00970481
0.0088362
0.00945474
0.0086655
0.00937631
0.00866067
0.00942126
0.00880434
0.00955079
0.00891004
0.009748
0.00887878
0.00866413
0.00996551
0.00840003
1.8333e-10
0.00840004
1.10846e-09
0.00840002
3.99917e-09
0.00840006
1.08752e-08
0.00839999
2.94515e-08
0.00840018
7.34439e-08
0.00839983
1.82314e-07
0.00840072
4.60293e-07
0.00839924
1.09347e-06
0.00840259
2.85956e-06
0.00839826
6.65053e-06
0.00840918
1.77427e-05
0.00840315
4.38025e-05
0.00843818
0.000123005
0.00850412
0.00037327
0.0088681
0.00133526
0.0102893
0.00562916
0.010242
0.00876525
0.0100318
0.00904681
0.00979238
0.00890556
0.0097105
0.0087424
0.00974296
0.00877213
0.00984605
0.00880665
0.00999363
0.00873037
0.00850266
0.0101543
0.00840003
1.40783e-10
0.00840003
9.45012e-10
0.00840004
3.07841e-09
0.00840002
9.20827e-09
0.00840008
2.30403e-08
0.00839997
6.00747e-08
0.00840028
1.46771e-07
0.00839984
3.64469e-07
0.00840095
9.0812e-07
0.00839991
2.17967e-06
0.00840357
5.60177e-06
0.00840318
1.34237e-05
0.00841879
3.51452e-05
0.00843941
9.1838e-05
0.00855057
0.00027015
0.00897816
0.000900428
0.0110363
0.00355652
0.0107882
0.00901214
0.0106052
0.00923137
0.0102945
0.00921731
0.0100925
0.00894518
0.0100573
0.00880702
0.0101165
0.00874762
0.0102195
0.00862677
0.00838843
0.0103326
0.00840003
1.14512e-10
0.00840003
7.16983e-10
0.00840003
2.49366e-09
0.00840005
7.0153e-09
0.00840001
1.84049e-08
0.00840014
4.64619e-08
0.00839989
1.14285e-07
0.00840065
2.8516e-07
0.00839933
6.88334e-07
0.0084034
1.72992e-06
0.00839718
4.12946e-06
0.00841459
1.04959e-05
0.00840109
2.56051e-05
0.00845344
6.75749e-05
0.00850827
0.000187364
0.00882708
0.000595898
0.010124
0.00224997
0.011148
0.00797923
0.010975
0.00940389
0.0107014
0.0094909
0.0104632
0.0091839
0.0103675
0.00890311
0.0103775
0.00873664
0.0104346
0.00856915
0.00831584
0.0105062
0.00840003
9.83281e-11
0.00840003
5.39342e-10
0.00840003
2.06552e-09
0.00840003
5.273e-09
0.00840003
1.51715e-08
0.00840006
3.50829e-08
0.00839999
9.46532e-08
0.00840034
2.16102e-07
0.00839961
5.69307e-07
0.00840221
1.31724e-06
0.00839767
3.40736e-06
0.00841137
8.122e-06
0.0083956
2.08057e-05
0.00843915
5.2555e-05
0.00845026
0.000144521
0.00862955
0.000440913
0.00927187
0.00158949
0.0110488
0.00619354
0.0111519
0.00930034
0.0110323
0.00961036
0.010772
0.00944442
0.0106536
0.00902114
0.0106281
0.00876244
0.0106492
0.00854623
0.00828092
0.010682
0.00840003
6.70493e-11
0.00840003
4.50917e-10
0.00840004
1.46328e-09
0.00840003
4.40308e-09
0.00840005
1.0904e-08
0.0084
2.87535e-08
0.00840018
6.91876e-08
0.00839986
1.7368e-07
0.00840088
4.25184e-07
0.0083992
1.03605e-06
0.00840456
2.60211e-06
0.00839696
6.22539e-06
0.0084187
1.59792e-05
0.00840659
3.92761e-05
0.00847357
0.000106046
0.00858268
0.000305092
0.00915864
0.00102416
0.0114795
0.0038557
0.0115677
0.00920951
0.0114873
0.00969108
0.0112669
0.00966509
0.0110011
0.00928685
0.0108949
0.00886708
0.0108727
0.00856796
0.00827766
0.0108741
0.00840003
5.16712e-11
0.00840003
3.21037e-10
0.00840003
1.12761e-09
0.00840004
3.13119e-09
0.00840003
8.3641e-09
0.00840007
2.06361e-08
0.00840002
5.2102e-08
0.00840016
1.26665e-07
0.00840016
3.12007e-07
0.00840037
7.64594e-07
0.00840152
1.86065e-06
0.00840129
4.61632e-06
0.00840979
1.12488e-05
0.00841427
2.8385e-05
0.00845415
7.26609e-05
0.0085508
0.000202096
0.00894676
0.000631577
0.0104787
0.00231572
0.0118242
0.00785589
0.0117914
0.00972269
0.0115866
0.00986903
0.0113194
0.00955339
0.0111968
0.00898832
0.0111159
0.00864588
0.00830844
0.0110816
0.00840003
3.78063e-11
0.00840003
2.46277e-10
0.00840003
8.2899e-10
0.00840004
2.40154e-09
0.00840003
6.1328e-09
0.00840004
1.57909e-08
0.00840005
3.84303e-08
0.00840005
9.62361e-08
0.00840028
2.33278e-07
0.00839987
5.79618e-07
0.00840196
1.40723e-06
0.00839894
3.48871e-06
0.00841064
8.57856e-06
0.00840081
2.14148e-05
0.00844273
5.45425e-05
0.00847046
0.000147141
0.00868266
0.000441304
0.00942573
0.00155599
0.0117017
0.00557046
0.0119464
0.00947552
0.0119704
0.00984271
0.0117876
0.00973425
0.0114952
0.00927995
0.011377
0.00876189
0.00838072
0.0113006
0.00840003
2.7516e-11
0.00840003
1.69618e-10
0.00840003
6.00848e-10
0.00840004
1.65656e-09
0.00840003
4.42796e-09
0.00840005
1.09426e-08
0.00840004
2.73007e-08
0.00840008
6.70282e-08
0.00840018
1.62301e-07
0.0084001
4.02755e-07
0.00840141
9.60265e-07
0.00839982
2.40836e-06
0.00840917
5.72236e-06
0.00840244
1.44897e-05
0.0084438
3.53958e-05
0.00846945
9.30645e-05
0.00867739
0.000259518
0.0093809
0.000832113
0.0119958
0.00295612
0.0124871
0.00897496
0.0123694
0.00995705
0.0121102
0.00999057
0.011833
0.0095535
0.0116549
0.00893716
0.00849426
0.0115371
0.00840003
1.90372e-11
0.00840003
1.23987e-10
0.00840003
4.19204e-10
0.00840003
1.20816e-09
0.00840004
3.09974e-09
0.00840003
7.91593e-09
0.00840006
1.92642e-08
0.00840002
4.79899e-08
0.00840023
1.15553e-07
0.00839989
2.85821e-07
0.00840138
6.89104e-07
0.00839917
1.69905e-06
0.00840769
4.1161e-06
0.00839774
1.01802e-05
0.00843275
2.51246e-05
0.0084264
6.41369e-05
0.00854993
0.000173449
0.00881958
0.000528403
0.0099004
0.00188819
0.0122696
0.00658898
0.0124766
0.00974529
0.0125362
0.00992656
0.012242
0.00984395
0.0119583
0.0092162
0.00865839
0.0117872
0.00840003
1.29547e-11
0.00840003
8.9678e-11
0.00840003
2.89602e-10
0.00840003
8.73012e-10
0.00840003
2.14457e-09
0.00840003
5.69808e-09
0.00840005
1.33774e-08
0.00840003
3.43877e-08
0.00840017
8.07937e-08
0.00839995
2.03402e-07
0.00840096
4.8644e-07
0.00839946
1.19836e-06
0.00840549
2.92867e-06
0.00839813
7.12954e-06
0.00842526
1.77952e-05
0.00841365
4.41638e-05
0.00850787
0.000116683
0.00866638
0.000333003
0.00946852
0.00110379
0.0121663
0.00386956
0.0127606
0.00914339
0.012771
0.00991157
0.0125872
0.0100227
0.0122925
0.00950609
0.00886245
0.0120767
0.00840003
9.88443e-12
0.00840003
5.76124e-11
0.00840003
2.1177e-10
0.00840003
5.63761e-10
0.00840003
1.55615e-09
0.00840004
3.72451e-09
0.00840003
9.59034e-09
0.00840007
2.27608e-08
0.00840003
5.68715e-08
0.00840022
1.36804e-07
0.00840017
3.33827e-07
0.0084007
8.21459e-07
0.00840164
1.96363e-06
0.00840289
4.91902e-06
0.00841098
1.17478e-05
0.00842135
2.98845e-05
0.00846649
7.48953e-05
0.00858969
0.000205947
0.00906497
0.000629484
0.0107168
0.00220874
0.0127421
0.0071046
0.0128088
0.00983826
0.0128962
0.0099279
0.0126789
0.00971399
0.00911736
0.0124093
0.00840003
6.12176e-12
0.00840003
4.2404e-11
0.00840003
1.36881e-10
0.00840003
4.1303e-10
0.00840003
1.01275e-09
0.00840003
2.69626e-09
0.00840004
6.304e-09
0.00840003
1.62275e-08
0.0084001
3.79835e-08
0.00840001
9.57808e-08
0.00840047
2.27881e-07
0.00839983
5.63068e-07
0.00840264
1.36706e-06
0.00839928
3.32023e-06
0.00841334
8.23806e-06
0.00840368
1.99785e-05
0.00845622
5.08773e-05
0.00849429
0.000132589
0.00876763
0.000384531
0.00965912
0.00129477
0.0124157
0.00433399
0.0130837
0.00915922
0.0129363
0.010063
0.0129081
0.00972799
0.00929838
0.0127063
0.00840003
4.43509e-12
0.00840003
2.68089e-11
0.00840003
9.55884e-11
0.00840003
2.61793e-10
0.00840003
7.04147e-10
0.00840004
1.71452e-09
0.00840003
4.35196e-09
0.00840005
1.03861e-08
0.00840003
2.58646e-08
0.00840014
6.18001e-08
0.00840006
1.52388e-07
0.0084005
3.67338e-07
0.00840064
8.93409e-07
0.0084018
2.18846e-06
0.00840504
5.26712e-06
0.00841016
1.30984e-05
0.00843111
3.20263e-05
0.00847903
8.23433e-05
0.00863881
0.000223537
0.00923831
0.00069082
0.0112041
0.00236043
0.0131376
0.00720389
0.0131876
0.00999445
0.0130476
0.00984283
0.00933692
0.012975
0.00840003
2.76373e-12
0.00840003
1.8308e-11
0.00840003
6.15661e-11
0.00840003
1.78082e-10
0.00840003
4.53405e-10
0.00840003
1.16428e-09
0.00840003
2.78768e-09
0.00840004
7.05838e-09
0.00840004
1.65076e-08
0.00840007
4.19923e-08
0.00840013
9.72193e-08
0.00840014
2.47576e-07
0.00840085
5.74933e-07
0.00840026
1.45551e-06
0.00840543
3.41635e-06
0.0084021
8.5907e-06
0.00842786
2.07038e-05
0.00843484
5.2495e-05
0.00854641
0.00013688
0.00881135
0.000397233
0.00984745
0.00133328
0.0126913
0.00432967
0.0134498
0.00920785
0.0134292
0.00981849
0.0092999
0.0134036
0.00840003
1.87834e-12
0.00840003
1.12119e-11
0.00840003
4.05987e-11
0.00840003
1.09524e-10
0.00840003
2.97613e-10
0.00840003
7.16745e-10
0.00840003
1.82754e-09
0.00840004
4.32375e-09
0.00840003
1.07446e-08
0.00840009
2.57476e-08
0.00840002
6.25969e-08
0.00840036
1.52411e-07
0.00840003
3.6367e-07
0.00840182
9.01047e-07
0.0084004
2.12225e-06
0.00840894
5.31939e-06
0.00840682
1.25692e-05
0.0084432
3.19396e-05
0.00847557
7.96414e-05
0.00867435
0.000219544
0.0093109
0.000676598
0.011322
0.00230047
0.0134691
0.00702281
0.0137993
0.00941263
0.00908488
0.0139087
0.00840003
1.1591e-12
0.00840003
6.95715e-12
0.00840003
2.46823e-11
0.00840003
6.77642e-11
0.00840003
1.81184e-10
0.00840003
4.38442e-10
0.00840003
1.12082e-09
0.00840003
2.60095e-09
0.00840004
6.67633e-09
0.00840005
1.51301e-08
0.00840006
3.92199e-08
0.00840018
8.81073e-08
0.00840008
2.2856e-07
0.00840109
5.14938e-07
0.0084001
1.32515e-06
0.00840664
3.03535e-06
0.00840154
7.6872e-06
0.00843343
1.82418e-05
0.00843566
4.6308e-05
0.00856731
0.000120123
0.00885218
0.00034973
0.00997765
0.00117792
0.013077
0.00385942
0.0138914
0.00840461
0.00843514
0.0143893
0.00840003
6.01769e-13
0.00840003
4.37025e-12
0.00840003
1.36533e-11
0.00840003
4.24251e-11
0.00840003
1.00132e-10
0.00840003
2.72766e-10
0.00840003
6.08877e-10
0.00840003
1.61663e-09
0.00840004
3.57144e-09
0.00840003
9.34416e-09
0.00840009
2.07944e-08
0.00840001
5.33778e-08
0.0084004
1.21499e-07
0.00839991
3.02946e-07
0.00840212
7.08981e-07
0.00839972
1.71557e-06
0.00841076
4.15169e-06
0.00840342
9.80982e-06
0.00844731
2.45189e-05
0.0084698
6.11782e-05
0.00866928
0.000169192
0.00927484
0.000532254
0.0111426
0.00191505
0.0132716
0.00604834
0.00710763
0.0144817
0.00840003
3.97869e-13
0.00840003
2.22238e-12
0.00840003
8.5097e-12
0.00840003
2.16532e-11
0.00840003
6.16851e-11
0.00840003
1.41374e-10
0.00840003
3.70022e-10
0.00840004
8.4872e-10
0.00840003
2.10886e-09
0.00840005
5.00567e-09
0.00840002
1.18896e-08
0.00840013
2.92658e-08
0.00839999
6.6615e-08
0.00840054
1.70223e-07
0.00839988
3.73813e-07
0.00840236
9.8297e-07
0.00840017
2.10864e-06
0.00841023
5.63539e-06
0.00840845
1.2468e-05
0.0084458
3.31764e-05
0.0084982
8.55392e-05
0.00874974
0.000261713
0.00962201
0.000947992
0.0117938
0.00353839
0.00527148
0.0135996
0.00840003
2.02154e-13
0.00840003
1.23911e-12
0.00840003
4.36952e-12
0.00840003
1.20665e-11
0.00840003
3.16451e-11
0.00840003
7.73251e-11
0.00840003
1.90177e-10
0.00840003
4.50408e-10
0.00840003
1.09743e-09
0.00840004
2.56968e-09
0.00840004
6.1937e-09
0.00840007
1.45838e-08
0.0084
3.49073e-08
0.00840033
8.26761e-08
0.00839964
1.96263e-07
0.00840206
4.68837e-07
0.00839763
1.11367e-06
0.00841027
2.68173e-06
0.00839364
6.45305e-06
0.00843141
1.6063e-05
0.00842739
4.22884e-05
0.00855157
0.000123909
0.00892697
0.000431043
0.0101754
0.00185328
0.0035495
0.0119883
0.00840003
1.16454e-13
0.00840003
6.53158e-13
0.00840003
2.43478e-12
0.00840003
6.30499e-12
0.00840003
1.79363e-11
0.00840003
3.94769e-11
0.00840003
1.11024e-10
0.00840003
2.23994e-10
0.00840003
6.48623e-10
0.00840003
1.23315e-09
0.00840004
3.77051e-09
0.00840004
6.84726e-09
0.0084
2.11014e-08
0.0084002
3.91016e-08
0.0083996
1.16641e-07
0.00840137
2.28094e-07
0.00839731
6.31061e-07
0.00840645
1.37236e-06
0.00839042
3.52074e-06
0.00841322
8.48269e-06
0.00839049
2.30396e-05
0.00842619
6.76815e-05
0.00846543
0.000236922
0.00878433
0.00108186
0.00247677
0.00995439
0.00840003
5.66904e-14
0.00840003
4.19157e-13
0.00840003
1.25311e-12
0.00840003
4.08944e-12
0.00840003
8.95735e-12
0.00840003
2.65355e-11
0.00840003
5.22687e-11
0.00840003
1.58871e-10
0.00840004
2.94515e-10
0.00840003
9.2884e-10
0.00840005
1.6168e-09
0.00839999
5.39214e-09
0.00840014
9.07135e-09
0.00839982
3.06816e-08
0.00840051
5.23565e-08
0.00839902
1.7203e-07
0.0084016
3.25371e-07
0.00839618
9.46898e-07
0.00840344
2.12385e-06
0.00838745
5.62169e-06
0.00839506
1.51037e-05
0.00836731
4.62275e-05
0.00831203
0.00016855
0.0081459
0.000814793
0.00200585
0.00865634
0.00840003
3.40851e-14
0.00840003
3.03476e-13
0.00840003
7.27122e-13
0.00840003
2.92684e-12
0.00840003
5.59961e-12
0.00840003
1.74149e-11
0.00840003
3.87219e-11
0.00840003
9.11641e-11
0.00840003
2.59892e-10
0.00840003
4.59849e-10
0.00840004
1.71414e-09
0.00840002
2.33824e-09
0.00840002
1.10076e-08
0.00840005
1.15518e-08
0.00839974
6.86402e-08
0.0084005
5.88299e-08
0.00839782
4.12778e-07
0.00840258
3.93706e-07
0.00839177
2.2052e-06
0.00840126
3.605e-06
0.00838076
1.26748e-05
0.00837593
3.55667e-05
0.00832543
0.000130605
0.0081675
0.000628025
0.00187432
0.00827816
0.00840003
3.98213e-14
0.00840003
1.36544e-13
0.00840003
8.07477e-13
0.00840003
1.34468e-12
0.00840003
5.62389e-12
0.00840003
9.95417e-12
0.00840003
3.06132e-11
0.00840003
7.31426e-11
0.00840003
1.55247e-10
0.00840003
5.15016e-10
0.00840004
7.77232e-10
0.0084
3.54382e-09
0.00840009
4.16591e-09
0.0083998
2.31442e-08
0.00840053
2.05661e-08
0.00839847
1.43658e-07
0.00840315
1.07104e-07
0.00839198
8.46767e-07
0.00841067
9.307e-07
0.0083776
4.44782e-06
0.00840395
9.43845e-06
0.00836221
3.24354e-05
0.00834649
0.000112874
0.008255
0.000535797
0.0017559
0.00823817
0.00840003
2.14573e-14
0.00840003
1.54129e-13
0.00840003
4.99422e-13
0.00840003
1.42859e-12
0.00840003
3.80737e-12
0.00840003
8.95215e-12
0.00840003
2.33592e-11
0.00840003
5.40453e-11
0.00840003
1.3605e-10
0.00840003
3.24676e-10
0.00840004
8.32607e-10
0.00840002
1.91474e-09
0.00840003
5.09942e-09
0.00840002
1.18024e-08
0.00839982
3.15516e-08
0.00840031
7.45276e-08
0.0083982
1.96e-07
0.00840195
4.83052e-07
0.00839289
1.24606e-06
0.00840088
3.2999e-06
0.00838364
9.11241e-06
0.00838024
2.83692e-05
0.00835021
0.000100757
0.00827586
0.000472001
0.00161434
0.00828056
0.00840003
1.65431e-14
0.00840003
1.08044e-13
0.00840003
3.52323e-13
0.00840003
1.05092e-12
0.00840003
2.59968e-12
0.00840003
6.82186e-12
0.00840003
1.61929e-11
0.00840003
4.17916e-11
0.00840003
9.96598e-11
0.00840003
2.56232e-10
0.00840004
6.1235e-10
0.00840001
1.60903e-09
0.00840004
3.88689e-09
0.00839999
1.01009e-08
0.00839988
2.49829e-08
0.00840018
6.46219e-08
0.00839854
1.62987e-07
0.00840141
4.23314e-07
0.00839403
1.08024e-06
0.00840028
2.9016e-06
0.00838631
8.06802e-06
0.00838318
2.50972e-05
0.00835808
8.9062e-05
0.00830319
0.000411722
0.00145659
0.00833074
0.00840003
-3.39149e-15
0.00840003
1.41701e-13
0.00840003
2.44839e-14
0.00840003
1.41436e-12
0.00840003
2.98786e-13
0.00840003
8.927e-12
0.00840003
1.63817e-12
0.00840003
5.14347e-11
0.00840003
2.12476e-11
0.00840003
2.91556e-10
0.00840004
2.76206e-10
0.00840002
1.49099e-09
0.00840004
2.9133e-09
0.00840001
7.74842e-09
0.00839985
2.38696e-08
0.00840031
4.44913e-08
0.00839829
1.81362e-07
0.00840224
2.51715e-07
0.00839297
1.18793e-06
0.00840304
2.08548e-06
0.00838567
7.54251e-06
0.00838799
2.13173e-05
0.00836288
7.78455e-05
0.00832386
0.000353183
0.00129311
0.00836621
0.00840003
5.01004e-15
0.00840003
6.46757e-14
0.00840003
1.13961e-13
0.00840003
6.62099e-13
0.00840003
9.0557e-13
0.00840003
3.82267e-12
0.00840003
8.7556e-12
0.00840003
1.9763e-11
0.00840003
7.0203e-11
0.00840004
1.08168e-10
0.00840002
5.1406e-10
0.00840007
6.89575e-10
0.00839992
3.74888e-09
0.00840029
3.67789e-09
0.0083994
2.59143e-08
0.00840147
2.18167e-08
0.00839672
1.7182e-07
0.00840615
1.89692e-07
0.00838801
9.94218e-07
0.00841176
1.87027e-06
0.00837826
6.32279e-06
0.0083965
1.8495e-05
0.0083671
6.59195e-05
0.00834119
0.000294748
0.00110873
0.00839994
0.00840003
8.52983e-15
0.00840003
3.81737e-15
0.00840003
1.83587e-13
0.00840003
5.53695e-14
0.00840003
1.42523e-12
0.00840003
1.51355e-12
0.00840003
7.72081e-12
0.00840003
1.73317e-11
0.00840003
3.92385e-11
0.00840004
1.5742e-10
0.00840002
2.24519e-10
0.00840007
1.29973e-09
0.00839995
1.4136e-09
0.00840019
9.34592e-09
0.00839967
8.81352e-09
0.00840055
6.61365e-08
0.00839869
4.24016e-08
0.00840142
4.12657e-07
0.00839548
4.41042e-07
0.00840241
2.18667e-06
0.00838799
4.73234e-06
0.00839295
1.61485e-05
0.00837467
5.46923e-05
0.00835439
0.00023833
0.000911606
0.00842724
0.00840003
1.01271e-14
0.00840003
-2.46401e-15
0.00840003
1.93267e-13
0.00840003
2.17706e-14
0.00840003
1.47359e-12
0.00840003
1.97385e-13
0.00840003
9.06655e-12
0.00840003
5.71475e-12
0.00840003
5.19731e-11
0.00840004
7.33304e-11
0.00840002
3.17808e-10
0.00840006
6.75909e-10
0.00839994
1.64692e-09
0.00840027
5.70808e-09
0.00839942
1.07285e-08
0.00840149
3.94804e-08
0.00839673
6.74527e-08
0.00840677
2.71351e-07
0.00838743
4.58135e-07
0.0084146
1.70221e-06
0.00837885
3.96618e-06
0.00840216
1.31578e-05
0.00837993
4.38831e-05
0.00836622
0.000184968
0.000712945
0.00844638
0.00840003
-2.0479e-15
0.00840003
2.65239e-14
0.00840003
-4.10377e-14
0.00840003
2.83003e-13
0.00840003
-2.91338e-13
0.00840003
2.1333e-12
0.00840003
-9.30771e-13
0.00840003
1.28218e-11
0.00840003
5.38271e-12
0.00840003
6.56807e-11
0.00840003
1.43989e-10
0.00840005
3.78718e-10
0.00839997
1.69431e-09
0.00840019
2.06516e-09
0.00839955
1.40785e-08
0.00840116
1.37329e-08
0.00839712
1.01439e-07
0.00840617
9.18984e-08
0.00838783
6.70488e-07
0.0084147
7.86996e-07
0.00837998
3.7975e-06
0.00840356
9.26872e-06
0.00838877
3.36509e-05
0.00837377
0.000135863
0.000523711
0.00845336
0.00840003
1.26103e-14
0.00840003
-3.7075e-14
0.00840003
1.0374e-13
0.00840003
-3.19284e-13
0.00840003
8.28554e-13
0.00840003
-2.4455e-12
0.00840003
8.92696e-12
0.00840003
-1.97068e-11
0.00840003
7.45843e-11
0.00840004
-1.21049e-10
0.00840002
5.2856e-10
0.00840007
-5.78159e-10
0.00839994
3.34943e-09
0.00840025
-2.63177e-09
0.00839955
1.91273e-08
0.00840118
-8.92837e-09
0.0083975
1.01159e-07
0.00840466
2.48815e-08
0.00839144
4.80562e-07
0.00840963
6.13385e-07
0.00838412
2.35728e-06
0.00840162
6.46504e-06
0.00840105
2.19719e-05
0.00838198
8.95116e-05
0.000345377
0.0084605
0.00840003
1.47704e-14
0.00840003
-7.40397e-14
0.00840003
2.3255e-13
0.00840003
-6.9532e-13
0.00840003
1.63992e-12
0.00840003
-3.3347e-12
0.00840003
8.10641e-12
0.00840003
-1.2261e-11
0.00840003
3.16659e-11
0.00840003
-4.66585e-12
0.00840004
7.13177e-11
0.00840001
3.80169e-10
0.00840009
-3.37693e-10
0.00839985
4.32487e-09
0.00840048
-5.10707e-09
0.00839881
3.43933e-08
0.00840289
-4.46412e-08
0.00839376
2.29207e-07
0.00841081
-1.61009e-07
0.0083834
9.10265e-07
0.00841299
4.05942e-07
0.00838256
3.73716e-06
0.0084131
1.03835e-05
0.0083875
4.38846e-05
0.000172054
0.00847082
0.00840003
0.00840003
0.00840003
0.00840003
0.00840003
0.00840003
0.00840003
0.00840003
0.00840004
0.00840003
0.00840005
0.0084
0.00840012
0.00839985
0.00840045
0.00839916
0.0084016
0.00839674
0.00840469
0.00839096
0.00840603
0.0083871
0.00840925
0.00838668
0.00847521
0.00394514
0.00434564
0.00152566
0.00241431
-0.000746651
0.0022689
-0.00171006
0.00096326
-0.0023876
0.000676477
-0.00271938
0.000330625
-0.00283225
0.000112189
-0.00298863
0.000156533
-0.00317036
0.000182343
-0.00332333
0.00015388
-0.00343221
0.000109784
-0.00350623
7.46264e-05
-0.00355339
4.72275e-05
-0.0036092
5.44411e-05
-0.00366515
5.39688e-05
-0.00369746
3.0187e-05
-0.00369628
-5.8602e-06
-0.00366594
-3.6942e-05
-0.00360586
-6.81351e-05
-0.00351356
-0.000100618
-0.00339206
-0.000129349
-0.00324915
-0.000150206
-0.00308906
-0.000166077
-0.00291859
-0.000175273
-0.00274193
-0.00018048
-0.0025608
-0.000183641
-0.00237551
-0.00018666
-0.00218664
-0.000189998
-0.00199181
-0.000194913
-0.00179223
-0.000199003
-0.00158664
-0.000205246
-0.00137319
-0.000212521
-0.00115538
-0.000216338
-0.000937316
-0.00021613
-0.000719527
-0.000215488
-0.000500608
-0.000216519
-0.00027947
-0.000218423
-5.34701e-05
-0.000222649
0.000175198
-0.00022515
0.000396183
-0.000216994
0.00060892
-0.000208085
0.000814799
-0.000200718
0.00101544
-0.000194971
0.00120914
-0.000187741
0.0013957
-0.000180315
0.00157692
-0.000175076
0.00175696
-0.000173711
0.00193347
-0.000170168
0.0021038
-0.000163922
0.00226729
-0.000157256
0.00242505
-0.000151508
0.0025766
-0.000146018
0.00272255
-0.000140686
0.00286302
-0.000135629
0.00299766
-0.000130611
0.00312676
-0.000125705
0.00325021
-0.000120948
0.0033681
-0.000116226
0.00348096
-0.000111661
0.00358832
-0.000107161
0.00369061
-0.000102735
0.00378788
-9.84132e-05
0.00388058
-9.41502e-05
0.0039682
-9.00063e-05
0.00405137
-8.58494e-05
0.00413009
-8.18702e-05
0.00420416
-7.78307e-05
0.00427434
-7.39478e-05
0.00434
-7.00296e-05