/*--------------------------------*- C++ -*----------------------------------*\
  =========                 |
  \\      /  F ield         | OpenFOAM: The Open Source CFD Toolbox
   \\    /   O peration     | Website:  https://openfoam.org
    \\  /    A nd           | Version:  13
     \\/     M anipulation  |
\*---------------------------------------------------------------------------*/
FoamFile
{
    format      ascii;
    class       volScalarField;
    location    "8.5";
    object      rho;
}
// * * * * * * * * * * * * * * * * * * * * * * * * * * * * * * * * * * * * * //

dimensions      [1 -3 0 0 0 0 0];

internalField   nonuniform List<scalar> 
5250
(
1.40001
1.40003
1.40008
1.4002
1.4005
1.40124
1.40296
1.40752
1.41776
1.444
1.50247
1.63329
1.90506
2.59166
5.25263
5.74362
5.68595
5.66473
5.68637
5.76625
5.85066
5.9031
5.94442
5.97571
6.00244
1.40001
1.40003
1.40008
1.40019
1.40051
1.40116
1.40312
1.40697
1.41852
1.44209
1.50308
1.62954
1.90166
2.57585
5.21327
5.74241
5.68479
5.66188
5.68371
5.76383
5.84827
5.90104
5.94325
5.97542
6.0032
1.40001
1.40003
1.40007
1.40021
1.40045
1.40126
1.40274
1.40748
1.41681
1.44315
1.49836
1.62718
1.89039
2.54495
5.12528
5.7401
5.68125
5.65248
5.67375
5.75217
5.8362
5.88765
5.92999
5.96156
5.98934
1.40001
1.40003
1.40007
1.4002
1.40043
1.40122
1.4026
1.40732
1.41595
1.44205
1.49451
1.62037
1.87519
2.4981
4.98642
5.7396
5.67687
5.63652
5.65569
5.7322
5.8124
5.86512
5.905
5.93732
5.9654
1.40001
1.40002
1.40008
1.40016
1.40047
1.401
1.40284
1.40614
1.41676
1.43741
1.49335
1.60733
1.85742
2.43577
4.79309
5.74384
5.67299
5.6147
5.63171
5.70308
5.78185
5.82926
5.86915
5.89848
5.92934
1.40001
1.40002
1.40006
1.40017
1.4004
1.40102
1.40247
1.4061
1.41498
1.43611
1.48602
1.59663
1.83071
2.36235
4.53878
5.75492
5.67124
5.58762
5.60137
5.66605
5.74151
5.78546
5.82037
5.84969
5.88025
1.40001
1.40002
1.40007
1.40014
1.4004
1.40087
1.4024
1.40534
1.41416
1.43245
1.48013
1.5806
1.80025
2.27779
4.21882
5.77798
5.67432
5.55577
5.56483
5.61982
5.68892
5.72622
5.7551
5.77721
5.80936
1.40001
1.40002
1.40005
1.40014
1.40032
1.40089
1.40191
1.40534
1.41163
1.43092
1.46976
1.56598
1.7621
2.18765
3.83427
5.81187
5.68473
5.52315
5.52551
5.56759
5.62614
5.65285
5.67012
5.68062
5.70692
1.40001
1.40002
1.40005
1.40011
1.40032
1.40067
1.40193
1.40409
1.41142
1.42508
1.46434
1.544
1.72533
2.09452
3.39963
5.83242
5.69644
5.49315
5.4845
5.5085
5.55148
5.56019
5.55748
5.54242
5.54663
1.40001
1.40002
1.40004
1.40011
1.40024
1.40068
1.40145
1.40408
1.40881
1.42378
1.45306
1.52935
1.68386
2.01272
2.98794
5.7756
5.68071
5.46955
5.43948
5.44368
5.46313
5.45154
5.41908
5.34941
5.29322
1.40001
1.40002
1.40004
1.4001
1.40021
1.4006
1.40126
1.40358
1.40766
1.42094
1.44646
1.51454
1.65221
1.94795
2.73926
5.51246
5.55401
5.45256
5.37938
5.36942
5.35864
5.32482
5.23419
5.02237
4.42598
1.40001
1.40002
1.40003
1.40009
1.40019
1.40052
1.4011
1.40312
1.40665
1.41829
1.44055
1.50084
1.62297
1.88932
2.53298
5.04602
5.45337
5.40343
5.31203
5.28812
5.25473
5.18629
5.04056
4.74677
4.11525
1.40001
1.40001
1.40003
1.40007
1.40017
1.40043
1.40097
1.40264
1.40577
1.41565
1.43499
1.48725
1.59457
1.82991
2.35533
4.50586
5.39668
5.3605
5.25495
5.20055
5.1509
5.05483
4.86743
4.56149
4.08109
1.40001
1.40001
1.40003
1.40006
1.40015
1.40032
1.40091
1.40194
1.40545
1.41184
1.43155
1.47071
1.56867
1.76635
2.19682
3.89755
5.38069
5.33846
5.21288
5.12182
5.04852
4.93444
4.74488
4.46393
4.08791
1.40001
1.40001
1.40002
1.40005
1.40011
1.40031
1.40064
1.40181
1.40392
1.41062
1.42382
1.46023
1.53582
1.7067
2.05002
3.22362
5.34443
5.31727
5.19858
5.05773
4.96013
4.83593
4.65247
4.40327
4.09151
1.40001
1.40001
1.40002
1.40004
1.4001
1.40022
1.40057
1.40134
1.40331
1.40815
1.41951
1.4475
1.5105
1.64945
1.93314
2.68986
5.13951
5.26365
5.18273
5.01
4.88903
4.76094
4.58332
4.35665
4.08591
1.40001
1.40001
1.40002
1.40004
1.40007
1.4002
1.40041
1.40116
1.40249
1.40686
1.41508
1.43932
1.4885
1.60665
1.84473
2.4047
4.58396
5.16102
5.11477
4.97551
4.82962
4.69808
4.53037
4.32073
4.07863
1.40001
1.40001
1.40001
1.40003
1.40006
1.40015
1.40035
1.40088
1.40201
1.40532
1.412
1.43107
1.47065
1.56678
1.763
2.18389
3.84599
5.0859
5.06072
4.95859
4.78638
4.64313
4.48507
4.29288
4.07265
1.40001
1.40001
1.40001
1.40002
1.40005
1.40011
1.40028
1.40063
1.40168
1.40369
1.40997
1.42218
1.45641
1.52688
1.68741
2.00106
3.0293
4.98947
5.03218
4.95821
4.77962
4.60823
4.44884
4.27145
4.07112
1.40001
1.40001
1.40001
1.40002
1.40004
1.40008
1.40021
1.40048
1.40122
1.40292
1.40714
1.4174
1.44156
1.49797
1.62142
1.87289
2.49101
4.6516
4.98991
4.93122
4.77871
4.58808
4.42453
4.25582
4.07122
1.40001
1.40001
1.40001
1.40001
1.40003
1.40006
1.40017
1.40035
1.40096
1.40207
1.40562
1.41248
1.43243
1.47321
1.57273
1.77319
2.20536
3.8983
4.89732
4.87286
4.77983
4.5809
4.40997
4.24983
4.07637
1.40001
1.40001
1.40001
1.40001
1.40002
1.40005
1.40011
1.40028
1.40065
1.40162
1.40391
1.40946
1.42317
1.45468
1.52795
1.68391
1.99157
3.02103
4.75917
4.84102
4.77586
4.60994
4.4159
4.24934
4.08875
1.40001
1.40001
1.40001
1.40001
1.40002
1.40004
1.40008
1.40021
1.40045
1.40122
1.40261
1.4072
1.4156
1.44093
1.49072
1.61174
1.84275
2.40742
4.36063
4.80328
4.75866
4.63487
4.44185
4.26529
4.10481
1.40001
1.40001
1.40001
1.40001
1.40001
1.40003
1.40006
1.40015
1.40032
1.40088
1.40186
1.40512
1.41114
1.4294
1.46556
1.55643
1.73695
2.11228
3.55639
4.7206
4.70838
4.64327
4.479
4.29385
4.13133
1.40001
1.40001
1.40001
1.40001
1.40001
1.40002
1.40004
1.40011
1.40022
1.40061
1.40127
1.40355
1.40752
1.4204
1.44464
1.50982
1.63901
1.89188
2.57674
4.50527
4.71381
4.6594
4.52899
4.3298
4.16344
1.40001
1.40001
1.40001
1.40001
1.40001
1.40002
1.40003
1.40008
1.40015
1.40041
1.40091
1.40239
1.40543
1.41383
1.43204
1.4774
1.5743
1.77791
2.21114
3.87676
4.65182
4.63442
4.55957
4.38463
4.20817
1.40001
1.40001
1.40001
1.40001
1.40001
1.40001
1.40002
1.40005
1.40011
1.40028
1.40062
1.40163
1.40371
1.40944
1.42195
1.45359
1.52223
1.6735
1.95758
2.92023
4.46575
4.6206
4.57565
4.45542
4.27993
1.40001
1.40001
1.40001
1.40001
1.40001
1.40001
1.40002
1.40004
1.40008
1.40019
1.40042
1.40112
1.40239
1.40657
1.41413
1.43719
1.48194
1.59224
1.79797
2.28236
3.97836
4.57445
4.56071
4.50977
4.38176
1.40001
1.40001
1.40001
1.40001
1.40001
1.40001
1.40001
1.40003
1.40005
1.40013
1.40028
1.40073
1.40166
1.4042
1.40982
1.42422
1.45651
1.53174
1.68809
1.98985
3.06308
4.40919
4.57376
4.5512
4.49175
1.40001
1.40001
1.40001
1.40001
1.40001
1.40001
1.40001
1.40002
1.40004
1.40008
1.40019
1.40048
1.40104
1.40286
1.40606
1.4165
1.43581
1.4892
1.59488
1.80691
2.31107
3.98845
4.55729
4.62559
4.62539
1.40001
1.40001
1.40001
1.40001
1.40001
1.40001
1.40001
1.40001
1.40003
1.40006
1.40012
1.40032
1.40068
1.40187
1.40398
1.41077
1.42358
1.45963
1.53201
1.69426
1.99623
3.07966
4.41146
4.74578
4.83872
1.40001
1.40001
1.40001
1.40001
1.40001
1.40001
1.40001
1.40001
1.40002
1.40004
1.40009
1.4002
1.40047
1.40115
1.40269
1.4068
1.41556
1.4388
1.48793
1.60138
1.81351
2.33431
4.01318
4.85583
5.18067
1.40001
1.40001
1.40001
1.40001
1.40001
1.40001
1.40001
1.40001
1.40001
1.40003
1.40006
1.40012
1.40034
1.40071
1.40194
1.40419
1.41116
1.42487
1.46202
1.53846
1.7077
2.03264
3.13182
4.83449
5.65393
1.40001
1.40001
1.40001
1.40001
1.40001
1.40001
1.40001
1.40001
1.40001
1.40002
1.40004
1.4001
1.40021
1.40055
1.40126
1.40315
1.40754
1.41821
1.44376
1.50198
1.63084
1.88906
2.54982
4.58833
6.1489
1.40001
1.40001
1.40001
1.40001
1.40001
1.40001
1.40001
1.40001
1.40001
1.40002
1.40003
1.40007
1.40017
1.40042
1.40096
1.40252
1.40564
1.41492
1.43377
1.48369
1.58859
1.81952
2.35206
4.17551
6.4423
1.40001
1.40001
1.40001
1.40001
1.40001
1.40001
1.40001
1.40001
1.40001
1.40001
1.40003
1.40006
1.40015
1.40032
1.40088
1.4019
1.40524
1.41165
1.43071
1.46988
1.56806
1.76977
2.25139
3.78284
6.53809
1.40001
1.40001
1.40001
1.40001
1.40001
1.40001
1.40001
1.40001
1.40001
1.40001
1.40003
1.40005
1.40014
1.40028
1.4008
1.40171
1.40479
1.41053
1.42824
1.46404
1.55589
1.74411
2.18029
3.59741
6.50198
1.40001
1.40001
1.40001
1.40001
1.40001
1.40001
1.40001
1.40001
1.40001
1.40001
1.40002
1.40005
1.40012
1.40028
1.40072
1.40166
1.40445
1.41007
1.42656
1.46102
1.5476
1.72793
2.12836
3.45829
6.42907
1.40001
1.40001
1.40001
1.40001
1.40001
1.40001
1.40001
1.40001
1.40001
1.40001
1.40002
1.40005
1.40012
1.40026
1.40072
1.40154
1.40438
1.40955
1.42583
1.45842
1.54253
1.71506
2.08795
3.325
6.37436
1.40001
1.40001
1.40001
1.40001
1.40001
1.40001
1.40001
1.40001
1.40001
1.40001
1.40002
1.40005
1.4001
1.40029
1.40061
1.40171
1.40376
1.41025
1.42328
1.45932
1.5353
1.70851
2.05993
3.22484
6.30173
1.40001
1.40001
1.40001
1.40001
1.40001
1.40001
1.40001
1.40001
1.40001
1.40001
1.40002
1.40004
1.40012
1.40024
1.40069
1.40146
1.40414
1.409
1.42444
1.45506
1.53481
1.69793
2.04058
3.14819
6.21617
1.40001
1.40001
1.40001
1.40001
1.40001
1.40001
1.40001
1.40001
1.40001
1.40001
1.40002
1.40004
1.40011
1.40024
1.40067
1.40142
1.40404
1.40876
1.42387
1.45359
1.53153
1.69061
2.02287
3.07925
6.13255
1.40001
1.40001
1.40001
1.40001
1.40001
1.40001
1.40001
1.40001
1.40001
1.40001
1.40002
1.40004
1.40011
1.40023
1.40066
1.40139
1.40396
1.40854
1.42334
1.45226
1.52858
1.68393
2.0076
3.0177
6.05482
1.40001
1.40001
1.40001
1.40001
1.40001
1.40001
1.40001
1.40001
1.40001
1.40001
1.40002
1.40004
1.40011
1.40024
1.40061
1.40145
1.40365
1.40891
1.42184
1.45266
1.52419
1.67937
1.99386
2.96343
5.9814
1.40001
1.40001
1.40001
1.40001
1.40001
1.40001
1.40001
1.40001
1.40001
1.40001
1.40002
1.40004
1.4001
1.40025
1.40057
1.40152
1.40339
1.40916
1.42071
1.45272
1.52062
1.67518
1.98331
2.91698
5.91283
1.40001
1.40001
1.40001
1.40001
1.40001
1.40001
1.40001
1.40001
1.40001
1.40001
1.40002
1.40004
1.40011
1.40023
1.4006
1.40139
1.40358
1.4085
1.42129
1.45053
1.52019
1.66943
1.97772
2.87877
5.85262
1.40001
1.40001
1.40001
1.40001
1.40001
1.40001
1.40001
1.40001
1.40001
1.40001
1.40002
1.40004
1.40011
1.40022
1.40061
1.40132
1.40364
1.40814
1.42148
1.44912
1.51942
1.66509
1.97507
2.8488
5.80323
1.40001
1.40001
1.40001
1.40001
1.40001
1.40001
1.40001
1.40001
1.40001
1.40001
1.40002
1.40004
1.4001
1.40023
1.40057
1.40142
1.40336
1.40863
1.42018
1.45025
1.51632
1.66394
1.97294
2.82739
5.76669
1.40001
1.40001
1.40001
1.40001
1.40001
1.40001
1.40001
1.40001
1.40001
1.40001
1.40002
1.40005
1.40009
1.40025
1.40053
1.40147
1.40323
1.40873
1.41979
1.45034
1.51488
1.66283
1.97201
2.81277
5.74286
1.40001
1.40001
1.40001
1.40001
1.40001
1.40001
1.40001
1.40001
1.40001
1.40001
1.40002
1.40004
1.4001
1.40023
1.40058
1.40134
1.40353
1.40805
1.42096
1.44832
1.51668
1.66003
1.97241
2.8039
5.73122
2.25216
1.8341
2.144
1.98532
1.88249
1.85845
1.84329
1.80848
1.76931
1.73572
1.70828
1.67904
1.64609
1.62508
1.61789
1.61593
1.61881
1.63606
1.66515
1.70335
1.74713
1.7935
1.84016
1.88473
1.92779
1.96838
2.00678
2.04302
2.07839
2.1105
2.1425
2.1739
2.20302
2.23013
2.25478
2.27788
2.29906
2.31648
2.3333
2.34844
2.36269
2.37251
2.38244
2.38903
2.39495
2.39853
2.40137
2.40135
2.40049
2.39796
2.39457
2.39008
2.38363
2.37717
2.36883
2.35994
2.34975
2.33873
2.32671
2.31442
2.30059
2.28696
2.27185
2.25736
2.24077
2.22545
2.20791
2.19144
2.17343
2.15582
2.13737
2.11909
2.10007
2.08152
2.06212
2.0434
2.0239
2.00511
1.98566
1.96704
1.94761
1.9294
1.90992
1.89224
1.87283
1.85558
1.83652
1.81947
1.80109
1.7841
1.76653
1.7498
1.73299
1.71691
1.70107
1.6862
1.67189
1.65925
1.64796
1.64079
2.775
2.39478
2.33828
2.09893
1.89251
1.8434
1.7952
1.72904
1.67105
1.62944
1.59916
1.57082
1.54279
1.51861
1.50684
1.50208
1.50273
1.52044
1.54999
1.59183
1.63952
1.69082
1.74366
1.79544
1.84492
1.89283
1.93912
1.98357
2.02436
2.06414
2.10107
2.13953
2.17502
2.20876
2.24006
2.26909
2.29534
2.31961
2.3419
2.36333
2.38186
2.39901
2.41272
2.42549
2.43468
2.44504
2.45139
2.45681
2.45858
2.46103
2.46078
2.45986
2.4566
2.4531
2.44688
2.44095
2.43241
2.42425
2.41334
2.40335
2.39019
2.37844
2.36362
2.34997
2.33409
2.3187
2.30196
2.28527
2.26761
2.24999
2.23146
2.21306
2.19389
2.17481
2.15527
2.13571
2.11597
2.09622
2.07635
2.05673
2.03672
2.01742
1.99734
1.97835
1.95846
1.9396
1.92019
1.90139
1.88262
1.86387
1.84586
1.82752
1.8103
1.79263
1.77629
1.75977
1.74492
1.73057
1.71863
1.70972
3.27384
2.80931
2.56813
2.37145
2.14239
2.0074
1.86383
1.7566
1.67182
1.62127
1.58585
1.54006
1.50147
1.47068
1.45375
1.44477
1.44655
1.46543
1.49658
1.5407
1.59411
1.65171
1.71166
1.77041
1.82733
1.88226
1.93453
1.98664
2.03536
2.08476
2.13107
2.17802
2.21988
2.26212
2.29905
2.33577
2.36798
2.39956
2.427
2.45383
2.47654
2.49728
2.51448
2.52928
2.54157
2.55167
2.56139
2.56717
2.57031
2.57188
2.5727
2.57151
2.5691
2.56476
2.55908
2.55217
2.54373
2.53442
2.52381
2.51202
2.49971
2.48557
2.47178
2.45568
2.44045
2.42282
2.40621
2.38737
2.36954
2.34971
2.3309
2.3103
2.29076
2.26969
2.24966
2.22843
2.20801
2.18692
2.16617
2.14543
2.12443
2.10413
2.08306
2.06317
2.04239
2.02266
2.00249
1.98316
1.96373
1.94477
1.92599
1.9075
1.88939
1.87169
1.85443
1.83794
1.82211
1.80781
1.79479
1.78584
3.52487
3.0646
2.7589
2.55158
2.36268
2.21489
2.09022
1.94692
1.81255
1.69607
1.63111
1.57186
1.52162
1.48236
1.46
1.45285
1.45783
1.47812
1.51494
1.56569
1.62612
1.691
1.75916
1.8261
1.89123
1.95379
2.01385
2.07256
2.12951
2.1851
2.23863
2.29024
2.33925
2.38516
2.4278
2.46706
2.50337
2.53635
2.5669
2.59424
2.61865
2.64022
2.65785
2.67361
2.6849
2.6961
2.70453
2.71128
2.7125
2.71348
2.7119
2.71049
2.70551
2.70085
2.69264
2.68491
2.67408
2.66361
2.65059
2.6378
2.62284
2.60816
2.59141
2.57518
2.55676
2.53914
2.51923
2.50038
2.47931
2.45939
2.4374
2.41656
2.39382
2.37232
2.34904
2.32727
2.30368
2.28195
2.25821
2.23661
2.21282
2.19133
2.16766
2.14629
2.12341
2.10221
2.08008
2.05878
2.03742
2.01635
1.99578
1.97514
1.95541
1.93552
1.91686
1.89812
1.88108
1.86444
1.85032
1.83883
3.65482
3.2493
2.93786
2.71029
2.53443
2.38031
2.26193
2.14028
2.02141
1.90623
1.79837
1.70899
1.63494
1.58152
1.54554
1.53107
1.53563
1.55499
1.5949
1.65337
1.71962
1.7898
1.86367
1.93816
2.01034
2.08024
2.14609
2.20973
2.26975
2.32774
2.38215
2.43388
2.48166
2.52611
2.56641
2.60352
2.63667
2.66712
2.69403
2.71831
2.73954
2.7578
2.77302
2.78554
2.79455
2.80325
2.8093
2.81446
2.81344
2.81199
2.80761
2.80404
2.79723
2.79069
2.78115
2.77152
2.75955
2.74715
2.73305
2.71827
2.70234
2.68566
2.66826
2.65007
2.63148
2.612
2.59252
2.57195
2.55179
2.53024
2.50946
2.48717
2.46588
2.44321
2.42151
2.39872
2.37657
2.35374
2.3312
2.3084
2.28576
2.26325
2.24108
2.21873
2.19681
2.17458
2.15312
2.13101
2.11008
2.08827
2.06791
2.04659
2.02688
2.00627
1.98742
1.9679
1.95042
1.9329
1.91803
1.90543
3.73556
3.38344
3.0924
2.86094
2.67989
2.52947
2.40444
2.29425
2.18808
2.09052
2.00002
1.91707
1.84919
1.79198
1.75788
1.74051
1.74487
1.76147
1.79381
1.845
1.9033
1.96396
2.03633
2.10857
2.18253
2.25003
2.31605
2.3753
2.43281
2.48432
2.53374
2.57816
2.62017
2.65771
2.69261
2.72353
2.75179
2.77648
2.79872
2.81808
2.83482
2.84905
2.86007
2.86904
2.87441
2.87992
2.88331
2.88594
2.88377
2.87973
2.87358
2.86744
2.85973
2.85119
2.84129
2.83002
2.81794
2.80422
2.79014
2.7743
2.75835
2.74062
2.7229
2.70353
2.68423
2.6635
2.64287
2.62104
2.59929
2.57666
2.554
2.53089
2.5075
2.48423
2.46029
2.43716
2.41292
2.39007
2.36585
2.34369
2.31974
2.29784
2.27417
2.25241
2.22915
2.2075
2.18483
2.16336
2.14135
2.12018
2.09888
2.07818
2.05767
2.03766
2.01813
1.99919
1.98107
1.96407
1.94851
1.93612
3.78763
3.48494
3.21533
2.99272
2.80964
2.66029
2.5359
2.42907
2.33422
2.2487
2.17738
2.11376
2.06421
2.0213
1.99546
1.98084
1.98199
1.99074
2.00478
2.02974
2.05739
2.09588
2.14916
2.20899
2.27735
2.34572
2.40877
2.46642
2.51844
2.56608
2.60961
2.6503
2.68772
2.72266
2.75469
2.7844
2.81095
2.83487
2.85588
2.87449
2.89032
2.9038
2.91422
2.9227
2.92774
2.93283
2.93632
2.93872
2.93731
2.93298
2.92676
2.91978
2.91174
2.90251
2.89222
2.8804
2.8678
2.85366
2.83904
2.82295
2.80666
2.78896
2.77124
2.75217
2.73317
2.71289
2.69268
2.6713
2.64998
2.62773
2.60536
2.58252
2.55926
2.53612
2.51212
2.48893
2.46467
2.44184
2.41738
2.39457
2.3701
2.34728
2.32307
2.30021
2.27649
2.25361
2.23056
2.20775
2.18542
2.16284
2.14125
2.11911
2.09833
2.0769
2.05709
2.03674
2.01834
1.99989
1.98399
1.97005
3.82215
3.55941
3.31403
3.10095
2.92353
2.77449
2.65241
2.55051
2.46527
2.39552
2.34304
2.30125
2.27293
2.24835
2.23298
2.22339
2.22156
2.21699
2.20133
2.18746
2.1958
2.21232
2.23971
2.28368
2.34007
2.40791
2.47566
2.53696
2.59137
2.64007
2.68355
2.7241
2.7607
2.79509
2.82673
2.85581
2.88162
2.90523
2.92538
2.94371
2.95869
2.97211
2.98211
2.99087
2.9955
3.00049
3.00374
3.00595
3.0049
3.00058
2.99443
2.9867
2.97841
2.96844
2.95812
2.94585
2.93334
2.91882
2.9042
2.88764
2.87107
2.85269
2.83435
2.81431
2.7944
2.77294
2.75164
2.72907
2.70655
2.68317
2.65964
2.6358
2.61154
2.58751
2.56307
2.53928
2.51467
2.49088
2.4663
2.44248
2.41811
2.39428
2.37032
2.34657
2.32314
2.29952
2.27667
2.2533
2.23107
2.20807
2.18651
2.16406
2.14329
2.12161
2.10186
2.08133
2.06299
2.04445
2.02849
2.01456
3.8491
3.6167
3.39418
3.19349
3.02184
2.87825
2.75961
2.66509
2.595
2.54504
2.51894
2.49235
2.4856
2.48925
2.47793
2.46802
2.4582
2.43364
2.38135
2.3388
2.31562
2.32052
2.33497
2.35751
2.39922
2.45088
2.5152
2.58122
2.64172
2.69468
2.74094
2.78165
2.81837
2.8516
2.88198
2.90976
2.9348
2.95724
2.97688
2.99423
3.00821
3.02069
3.02965
3.03757
3.04076
3.04464
3.04649
3.04818
3.04639
3.04219
3.03511
3.02675
3.01677
3.00574
2.99372
2.98051
2.9666
2.9514
2.93567
2.91866
2.90126
2.88263
2.86376
2.84373
2.82353
2.80227
2.78085
2.75854
2.73598
2.71281
2.68927
2.66555
2.64141
2.61767
2.5931
2.56934
2.54443
2.52068
2.49567
2.47197
2.44711
2.4235
2.39903
2.37551
2.35159
2.32821
2.30494
2.28181
2.2593
2.23658
2.21487
2.19278
2.17196
2.15076
2.13102
2.11113
2.09287
2.07515
2.0593
2.04647
3.8719
3.66367
3.46044
3.27441
3.11029
2.97435
2.86346
2.78096
2.73559
2.71024
2.69492
2.69522
2.72447
2.73519
2.72202
2.70912
2.68173
2.62036
2.54578
2.48423
2.44164
2.42331
2.42969
2.44135
2.45956
2.49645
2.5417
2.59751
2.6588
2.71608
2.76712
2.81082
2.84943
2.88238
2.91264
2.93872
2.9628
2.98358
3.00209
3.01765
3.03112
3.04203
3.05047
3.05683
3.06013
3.06246
3.06403
3.06425
3.06241
3.05737
3.05061
3.04161
3.03181
3.02033
3.00861
2.99528
2.98184
2.96672
2.95147
2.93457
2.9175
2.89897
2.88022
2.86028
2.84002
2.8189
2.79726
2.77512
2.75218
2.72927
2.70534
2.68219
2.65762
2.63428
2.60919
2.58564
2.56027
2.53654
2.51117
2.48735
2.46227
2.43843
2.41381
2.39004
2.36601
2.34239
2.31903
2.29567
2.27305
2.25013
2.2283
2.20605
2.18517
2.16388
2.14421
2.12436
2.1064
2.08901
2.07361
2.06138
3.89295
3.70437
3.51873
3.34731
3.19445
3.06998
2.97196
2.91498
2.8974
2.88522
2.89064
2.93685
2.97793
2.97123
2.95888
2.93417
2.87724
2.78413
2.6961
2.62396
2.5708
2.53696
2.52149
2.5249
2.53389
2.54775
2.57626
2.61368
2.65999
2.71444
2.76735
2.8177
2.86067
2.89911
2.93052
2.95895
2.98277
3.00433
3.02287
3.03912
3.05281
3.06447
3.07368
3.08117
3.08539
3.08807
3.08976
3.09075
3.08989
3.08616
3.08042
3.07256
3.0633
3.05218
3.04041
3.02703
3.01337
2.99803
2.98251
2.96528
2.94796
2.92904
2.91009
2.88977
2.86936
2.84787
2.82613
2.80365
2.78079
2.75779
2.73422
2.71083
2.68666
2.66291
2.63829
2.61424
2.58942
2.56515
2.54033
2.51593
2.49129
2.4669
2.44262
2.41838
2.3946
2.37067
2.34751
2.32399
2.30158
2.2786
2.2571
2.23487
2.21447
2.19334
2.17436
2.15491
2.1379
2.12112
2.10639
2.09565
3.91697
3.74379
3.57311
3.41804
3.28006
3.17226
3.09776
3.08136
3.07198
3.07981
3.12634
3.19117
3.21029
3.1976
3.17494
3.12577
3.02548
2.9236
2.8338
2.75897
2.69982
2.65589
2.62558
2.61051
2.6053
2.61221
2.62128
2.63915
2.67052
2.7045
2.74977
2.80036
2.84914
2.89276
2.92997
2.96155
2.98773
3.01
3.02897
3.04476
3.05868
3.06959
3.07899
3.08634
3.09114
3.09316
3.09455
3.09517
3.0942
3.09036
3.08444
3.07633
3.06687
3.05562
3.04367
3.0302
3.01634
3.00097
2.98531
2.96814
2.95072
2.93192
2.91287
2.89269
2.87215
2.8508
2.82886
2.8067
2.78386
2.76123
2.7376
2.71452
2.69022
2.66674
2.64202
2.61825
2.59335
2.56937
2.54449
2.52039
2.49568
2.47157
2.44719
2.42323
2.39936
2.37572
2.35255
2.32939
2.30708
2.28456
2.26331
2.24168
2.22175
2.20145
2.18326
2.16512
2.14914
2.13403
2.12056
2.11329
3.94457
3.78402
3.63055
3.49038
3.37792
3.29177
3.26617
3.25819
3.26765
3.31485
3.38805
3.42692
3.41635
3.39736
3.35364
3.26054
3.15244
3.05192
2.96542
2.89066
2.82908
2.77693
2.73681
2.70559
2.68619
2.67382
2.67575
2.68019
2.69122
2.71267
2.73771
2.77493
2.82118
2.86757
2.91099
2.94815
2.97958
3.00528
3.02599
3.04369
3.0579
3.07048
3.08049
3.08865
3.09465
3.09768
3.0994
3.10013
3.09998
3.09741
3.09265
3.08558
3.07726
3.06687
3.05568
3.04269
3.02932
3.01432
2.99909
2.98227
2.96523
2.94673
2.92797
2.90799
2.88763
2.8664
2.84483
2.82291
2.8004
2.7779
2.75451
2.73145
2.70729
2.68375
2.65909
2.63521
2.61035
2.58627
2.56146
2.5373
2.51273
2.48863
2.46445
2.44053
2.41692
2.39327
2.37039
2.34717
2.32521
2.30268
2.28188
2.26045
2.2412
2.22142
2.20439
2.18703
2.17242
2.15893
2.14756
2.14371
3.97527
3.83054
3.69437
3.58121
3.49296
3.45877
3.45063
3.46059
3.50532
3.5831
3.63019
3.62181
3.60529
3.56533
3.47781
3.37048
3.26786
3.1746
3.09351
3.01965
2.95616
2.89769
2.84937
2.8064
2.77392
2.74757
2.73203
2.72225
2.72661
2.73227
2.74487
2.76505
2.7936
2.83403
2.87714
2.91834
2.95595
2.98677
3.0131
3.03324
3.05047
3.0637
3.07503
3.08381
3.09066
3.09508
3.09682
3.09796
3.09839
3.09687
3.09293
3.08662
3.07893
3.06912
3.05834
3.04571
3.03253
3.01765
3.00247
2.98567
2.96869
2.9502
2.93149
2.91148
2.89111
2.87003
2.84847
2.82673
2.80419
2.78191
2.75856
2.73572
2.71177
2.68839
2.66408
2.64025
2.61578
2.59166
2.56725
2.54303
2.51883
2.49469
2.47084
2.44698
2.42365
2.40026
2.37767
2.35492
2.33337
2.31148
2.29137
2.27078
2.25263
2.23418
2.21863
2.2028
2.1905
2.17994
2.17204
2.17225
4.01743
3.88769
3.77703
3.69206
3.65661
3.649
3.65852
3.70571
3.78055
3.82813
3.82012
3.80362
3.76264
3.67403
3.57054
3.47017
3.37872
3.29437
3.21769
3.14509
3.07898
3.01625
2.96067
2.90945
2.866
2.82842
2.79933
2.77721
2.76471
2.76026
2.76499
2.77215
2.78562
2.80755
2.83982
2.8789
2.9174
2.95449
2.98579
3.0129
3.03405
3.05132
3.06493
3.07531
3.08342
3.08924
3.09215
3.09338
3.09401
3.09335
3.09102
3.08584
3.07926
3.07042
3.06058
3.04865
3.03607
3.02162
3.00676
2.99028
2.97345
2.95519
2.93643
2.91657
2.89625
2.87538
2.85395
2.83235
2.81
2.78776
2.76463
2.74181
2.71805
2.69476
2.6706
2.64695
2.62264
2.59877
2.57456
2.55061
2.52667
2.50277
2.47926
2.45558
2.43266
2.4094
2.38733
2.36476
2.34388
2.32247
2.30319
2.28368
2.26677
2.25009
2.23581
2.22285
2.21339
2.20682
2.20418
2.20611
4.07306
3.96665
3.8871
3.85654
3.84927
3.85946
3.91487
3.98682
4.03055
4.02129
4.00199
3.95587
3.85898
3.75703
3.66023
3.57121
3.48904
3.41122
3.33647
3.26446
3.19598
3.13017
3.06931
3.01207
2.96057
2.91474
2.87495
2.84236
2.81663
2.79964
2.78891
2.7904
2.79465
2.80232
2.81663
2.8429
2.87579
2.91221
2.94824
2.9809
3.00844
3.03139
3.04881
3.06274
3.0727
3.08006
3.08494
3.0863
3.08752
3.0876
3.08656
3.0825
3.07677
3.06874
3.05963
3.04828
3.03625
3.02209
3.00759
2.99124
2.97471
2.95651
2.9381
2.9184
2.89861
2.87789
2.85696
2.83547
2.8135
2.79137
2.7685
2.74576
2.72228
2.69892
2.67517
2.65125
2.62753
2.60325
2.5797
2.55539
2.53206
2.50804
2.48502
2.46159
2.43906
2.41646
2.39468
2.3733
2.35261
2.333
2.31411
2.29713
2.28104
2.267
2.25446
2.24594
2.23998
2.23943
2.23919
2.24515
4.15139
4.07502
4.05564
4.04956
4.06342
4.13625
4.20839
4.24247
4.22969
4.20405
4.14459
4.04159
3.93727
3.84139
3.75563
3.67556
3.5994
3.52464
3.45097
3.37862
3.30823
3.24008
3.17504
3.11373
3.056
3.0042
2.95584
2.91556
2.87923
2.85155
2.82918
2.81608
2.80905
2.81231
2.8155
2.82405
2.83988
2.86891
2.90202
2.93629
2.96996
2.99828
3.02305
3.04131
3.05618
3.06595
3.07296
3.07619
3.07754
3.07774
3.07756
3.07498
3.07058
3.0635
3.05564
3.04514
3.03416
3.02064
3.00701
2.99105
2.97512
2.95713
2.93916
2.91982
2.90022
2.87999
2.859
2.83805
2.81593
2.79431
2.77136
2.74904
2.72558
2.7026
2.67889
2.65542
2.63168
2.60795
2.58441
2.56063
2.53751
2.51387
2.49137
2.46812
2.44638
2.42396
2.40317
2.38219
2.36284
2.34407
2.3272
2.31171
2.29771
2.28612
2.27777
2.2742
2.27379
2.27448
2.27983
2.29705
4.27048
4.24559
4.24428
4.26878
4.36557
4.44258
4.46865
4.45402
4.42003
4.34264
4.23018
4.11846
4.02069
3.93429
3.85634
3.78183
3.70886
3.63538
3.56227
3.48893
3.41748
3.34701
3.27935
3.2144
3.15242
3.09535
3.04097
2.99374
2.94923
2.91286
2.88063
2.85609
2.83726
2.82817
2.82376
2.82619
2.82963
2.8395
2.85834
2.88904
2.92093
2.95437
2.98386
3.01004
3.02971
3.04516
3.05509
3.06168
3.06454
3.06515
3.06588
3.06454
3.06181
3.0559
3.04922
3.03974
3.02956
3.01687
3.00366
2.98844
2.97267
2.95541
2.93769
2.91904
2.89975
2.88002
2.85943
2.83875
2.81711
2.79553
2.77308
2.75079
2.72773
2.70498
2.68148
2.65851
2.63471
2.61175
2.58788
2.5651
2.54153
2.51904
2.49622
2.47421
2.45251
2.43135
2.41125
2.3916
2.37377
2.35692
2.34234
2.32872
2.31816
2.3104
2.30892
2.30868
2.31064
2.31564
2.3296
2.36812
4.45663
4.44724
4.47757
4.59655
4.69231
4.71328
4.69518
4.65042
4.55232
4.42613
4.30687
4.20307
4.11395
4.03526
3.96128
3.88952
3.81694
3.74415
3.66989
3.59631
3.52284
3.45094
3.38082
3.31302
3.24817
3.18654
3.12868
3.0751
3.02576
2.98148
2.94194
2.90809
2.87976
2.85789
2.84231
2.8365
2.83018
2.83372
2.83891
2.85023
2.87284
2.90155
2.93445
2.9646
2.99216
3.01324
3.03014
3.04068
3.04754
3.04948
3.0506
3.05025
3.0493
3.04454
3.03905
3.03052
3.02164
3.00987
2.99789
2.98317
2.96837
2.95141
2.93451
2.916
2.89749
2.87778
2.85803
2.83728
2.81652
2.7948
2.77324
2.75073
2.72859
2.70559
2.68302
2.65989
2.63699
2.61402
2.59098
2.5684
2.54556
2.5236
2.50137
2.48033
2.45922
2.43957
2.42028
2.40286
2.38667
2.37262
2.35977
2.3499
2.34388
2.34293
2.34338
2.34582
2.35558
2.37555
2.39684
2.44902
4.65239
4.73514
4.85788
4.95756
4.97358
4.95272
4.89745
4.77808
4.63611
4.50586
4.39446
4.30036
4.21721
4.14187
4.06889
3.99692
3.92368
3.85002
3.77478
3.70048
3.62618
3.55301
3.48124
3.41159
3.34416
3.27982
3.21822
3.16005
3.10615
3.05545
3.0103
2.96815
2.93233
2.9002
2.87508
2.8551
2.84467
2.83538
2.83174
2.83484
2.84225
2.85592
2.88214
2.91087
2.94058
2.96825
2.99136
3.00917
3.02109
3.02844
3.03074
3.03122
3.03113
3.02924
3.02472
3.01793
3.00979
2.99976
2.98832
2.97521
2.96067
2.94506
2.92836
2.91088
2.89266
2.87372
2.85439
2.83428
2.814
2.79285
2.77178
2.74975
2.72821
2.70554
2.68373
2.66074
2.63878
2.61583
2.59386
2.57132
2.54963
2.52782
2.5069
2.48626
2.46675
2.44808
2.43094
2.41568
2.40226
2.39041
2.38148
2.37793
2.37738
2.37815
2.3837
2.39527
2.41935
2.4517
2.47946
2.53465
4.97451
5.13879
5.25286
5.25994
5.23371
5.16531
5.01788
4.85913
4.71762
4.59756
4.49573
4.40775
4.32773
4.25267
4.17888
4.10507
4.03034
3.95504
3.87954
3.80349
3.72804
3.65364
3.58044
3.50918
3.43946
3.37263
3.30801
3.24685
3.18882
3.1338
3.08342
3.03535
2.99295
2.95301
2.91948
2.88953
2.86661
2.8507
2.83869
2.82799
2.82978
2.8328
2.84103
2.85698
2.88245
2.91095
2.93827
2.96279
2.982
2.99589
3.00388
3.00718
3.00761
3.00747
3.00556
3.0004
2.99322
2.98447
2.97402
2.96224
2.9488
2.93452
2.91866
2.90249
2.88478
2.86719
2.84795
2.82928
2.80879
2.78919
2.76782
2.74729
2.72549
2.70415
2.68229
2.66044
2.63869
2.61672
2.59525
2.57363
2.55275
2.53197
2.51224
2.49297
2.47522
2.45865
2.44446
2.43194
2.42157
2.41339
2.41237
2.41202
2.41454
2.42081
2.43929
2.46544
2.49857
2.53705
2.56685
2.61647
5.43145
5.58447
5.5851
5.55152
5.46423
5.27815
5.0993
4.94398
4.81375
4.70468
4.61016
4.52496
4.44511
4.3673
4.29029
4.2132
4.1361
4.0589
3.98201
3.9049
3.82853
3.75301
3.67849
3.60575
3.5343
3.46539
3.39856
3.33443
3.27325
3.21479
3.15948
3.10735
3.05835
3.01328
2.97137
2.93458
2.90137
2.87431
2.85381
2.83715
2.82412
2.81599
2.81792
2.82256
2.83189
2.85094
2.87548
2.90203
2.92706
2.94754
2.96314
2.9725
2.97681
2.97721
2.97721
2.97511
2.97064
2.96312
2.95441
2.94352
2.93208
2.91867
2.90478
2.88917
2.87312
2.85584
2.83808
2.81968
2.80054
2.7813
2.76104
2.74112
2.72012
2.69974
2.67842
2.65784
2.6366
2.61611
2.5953
2.57524
2.55537
2.53628
2.51806
2.50098
2.48541
2.47249
2.46082
2.45168
2.44635
2.44528
2.44617
2.44996
2.4616
2.48364
2.51423
2.54917
2.58648
2.62419
2.64993
2.68894
5.94391
5.93069
5.88752
5.76591
5.54638
5.34062
5.17239
5.03472
4.9202
4.82029
4.72978
4.64467
4.56196
4.48153
4.40095
4.32179
4.24199
4.16331
4.08452
4.00631
3.92873
3.8519
3.77626
3.70183
3.62917
3.55851
3.48985
3.42347
3.35939
3.29746
3.23859
3.18168
3.12842
3.07719
3.02993
2.9853
2.94523
2.90871
2.87769
2.8521
2.83245
2.81412
2.8005
2.79729
2.79874
2.80368
2.81348
2.83484
2.85825
2.88253
2.90435
2.92148
2.93276
2.93934
2.94
2.94023
2.93901
2.93514
2.92769
2.91822
2.90795
2.89597
2.88376
2.86938
2.85525
2.83872
2.82291
2.80488
2.78763
2.76868
2.75028
2.73074
2.71152
2.6916
2.67189
2.6519
2.63207
2.61246
2.59308
2.57432
2.5562
2.53903
2.52326
2.50894
2.49771
2.48778
2.47962
2.47762
2.47734
2.47886
2.48614
2.50258
2.52948
2.56238
2.60018
2.63818
2.6731
2.70417
2.72178
2.74916
6.3145
6.26994
6.08981
5.81554
5.58391
5.39956
5.25449
5.13482
5.0309
4.93612
4.84599
4.75948
4.67377
4.59016
4.50657
4.42488
4.3434
4.26351
4.18404
4.10552
4.02703
3.94934
3.87236
3.79685
3.72254
3.65021
3.5794
3.51065
3.44394
3.37908
3.31678
3.25609
3.19826
3.14224
3.08938
3.03901
2.99195
2.94867
2.90923
2.87435
2.84432
2.82048
2.79767
2.78
2.76769
2.76765
2.76952
2.77466
2.78634
2.80715
2.83037
2.85249
2.87133
2.88492
2.89321
2.89544
2.89576
2.89556
2.89245
2.88588
2.87662
2.86709
2.85537
2.84345
2.82971
2.81557
2.8002
2.78428
2.76758
2.75047
2.73284
2.71506
2.69688
2.67866
2.66023
2.64191
2.62368
2.60578
2.58841
2.57164
2.55601
2.54156
2.52915
2.5195
2.5115
2.50612
2.50533
2.5057
2.51074
2.52156
2.54517
2.5749
2.61094
2.64969
2.68761
2.72195
2.74908
2.77013
2.77922
2.79741
6.4807
6.34306
6.02961
5.77755
5.58615
5.44173
5.32626
5.22512
5.13119
5.04065
4.9515
4.864
4.77709
4.69129
4.60607
4.52238
4.43967
4.35865
4.27847
4.19932
4.12037
4.04227
3.96456
3.88828
3.81244
3.73857
3.66559
3.59469
3.52517
3.45751
3.39163
3.32738
3.26529
3.20501
3.14723
3.09173
3.03914
2.98942
2.94267
2.89994
2.86077
2.82675
2.79825
2.77206
2.7491
2.73406
2.72627
2.72642
2.72837
2.73421
2.74939
2.76959
2.79183
2.81166
2.82743
2.83742
2.84236
2.84301
2.84307
2.84145
2.83609
2.82828
2.81839