/*--------------------------------*- C++ -*----------------------------------*\
  =========                 |
  \\      /  F ield         | OpenFOAM: The Open Source CFD Toolbox
   \\    /   O peration     | Website:  https://openfoam.org
    \\  /    A nd           | Version:  13
     \\/     M anipulation  |
\*---------------------------------------------------------------------------*/
FoamFile
{
    format      ascii;
    class       volScalarField;
    location    "8.5";
    object      T;
}
// * * * * * * * * * * * * * * * * * * * * * * * * * * * * * * * * * * * * * //

dimensions      [0 0 0 1 0 0 0];

internalField   nonuniform List<scalar> 
5250
(
1.00001
1.00002
1.00006
1.00013
1.00037
1.00078
1.00227
1.00483
1.01346
1.03124
1.08334
1.21775
1.58642
2.34639
2.71299
2.74263
2.73727
2.73922
2.75071
2.76663
2.77889
2.78736
2.79377
2.7993
2.8024
1.00001
1.00002
1.00005
1.00015
1.00031
1.00092
1.00192
1.00541
1.01222
1.03246
1.08058
1.21662
1.57909
2.33722
2.70959
2.7422
2.7367
2.73845
2.74987
2.76567
2.77783
2.78625
2.79261
2.79806
2.80101
1.00001
1.00002
1.00005
1.00013
1.00033
1.00083
1.00198
1.00514
1.01209
1.03153
1.07871
1.21121
1.56454
2.31615
2.70178
2.74094
2.735
2.73615
2.74723
2.76293
2.7746
2.78321
2.78936
2.7949
2.7978
1.00001
1.00002
1.00006
1.00012
1.00034
1.00075
1.00203
1.00467
1.01218
1.02952
1.07675
1.20202
1.5432
2.28221
2.68934
2.73917
2.73228
2.73232
2.74318
2.75791
2.7702
2.77716
2.78368
2.78831
2.79117
1.00001
1.00002
1.00005
1.00012
1.0003
1.00075
1.00188
1.00447
1.01161
1.0279
1.07281
1.19073
1.51443
2.23408
2.67166
2.73695
2.72855
2.727
2.73719
2.75165
2.76299
2.7709
2.77612
2.78133
2.78322
1
1.00002
1.00004
1.00012
1.00027
1.00075
1.0016
1.00458
1.00997
1.02739
1.06603
1.17858
1.47655
2.16987
2.64742
2.73395
2.72363
2.71987
2.72932
2.74312
2.75355
2.76049
2.76567
2.76908
2.77123
1
1.00002
1.00004
1.0001
1.00026
1.00063
1.00163
1.00376
1.01005
1.0235
1.06207
1.16026
1.43377
2.08524
2.61548
2.72952
2.71674
2.71063
2.71944
2.7327
2.74237
2.74822
2.75184
2.75461
2.75464
1
1.00001
1.00004
1.00009
1.00025
1.00054
1.00149
1.00336
1.0089
1.02116
1.05505
1.14205
1.38305
1.98001
2.57405
2.72163
2.70643
2.69779
2.7061
2.71842
2.72749
2.73168
2.73306
2.7325
2.72903
1
1.00001
1.00003
1.00009
1.00019
1.00052
1.00122
1.0031
1.00757
1.0188
1.04741
1.12281
1.32872
1.85488
2.52087
2.70726
2.69091
2.6813
2.68961
2.70051
2.70864
2.71117
2.70918
2.70237
2.6872
1
1.00001
1.00003
1.00007
1.00019
1.00042
1.00112
1.0026
1.00662
1.01615
1.04077
1.10452
1.27781
1.7296
2.45813
2.68681
2.67011
2.66178
2.6688
2.67851
2.68458
2.68455
2.67628
2.6542
2.59801
1
1.00001
1.00003
1.00006
1.00017
1.00036
1.001
1.0022
1.00593
1.01385
1.03595
1.0904
1.24167
1.64094
2.38939
2.66255
2.65491
2.64733
2.648
2.65485
2.65801
2.65333
2.63422
2.58815
2.48319
1
1.00001
1.00002
1.00005
1.00015
1.00031
1.00087
1.00192
1.00515
1.01206
1.03119
1.07821
1.20839
1.55573
2.28298
2.62173
2.64455
2.63533
2.63056
2.63141
2.62974
2.61877
2.58943
2.52622
2.41778
1
1.00001
1.00002
1.00004
1.00013
1.00026
1.00076
1.00162
1.00449
1.0102
1.02688
1.06626
1.17671
1.4717
2.14739
2.5677
2.63541
2.62546
2.61519
2.61079
2.60307
2.5846
2.54962
2.48802
2.39304
1
1.00001
1.00001
1.00004
1.00009
1.00025
1.00057
1.00148
1.00354
1.00884
1.02193
1.0554
1.14481
1.38745
1.98239
2.4969
2.62026
2.61151
2.59891
2.58856
2.57734
2.55545
2.51749
2.46043
2.38347
1
1
1.00001
1.00003
1.00008
1.00019
1.00048
1.00119
1.00282
1.00731
1.01721
1.04478
1.11329
1.30339
1.78679
2.40519
2.59121
2.58905
2.57872
2.56526
2.5512
2.52933
2.49363
2.44034
2.37293
1
1
1.00001
1.00002
1.00007
1.00015
1.00041
1.00087
1.00247
1.00527
1.01461
1.03366
1.08967
1.23178
1.61228
2.29483
2.55112
2.56235
2.55359
2.54023
2.52523
2.50306
2.47162
2.42423
2.36417
1
1
1.00001
1.00002
1.00005
1.00012
1.00031
1.00075
1.00182
1.00458
1.01099
1.02797
1.06997
1.18466
1.48918
2.15173
2.49577
2.54107
2.53185
2.51946
2.50304
2.47945
2.44981
2.4087
2.35603
1
1
1.00001
1.00001
1.00004
1.00009
1.00026
1.00054
1.00156
1.00331
1.00919
1.02105
1.05567
1.14162
1.37997
1.95354
2.41142
2.51793
2.51294
2.49952
2.483
2.45981
2.43057
2.39349
2.34795
1
1
1
1.00001
1.00003
1.00008
1.00017
1.00049
1.00101
1.00287
1.00631
1.01688
1.04016
1.1055
1.27534
1.7169
2.29783
2.48122
2.48887
2.47816
2.46091
2.43932
2.41269
2.37895
2.33857
1
1
1
1.00001
1.00002
1.00005
1.00015
1.00032
1.00088
1.00188
1.00529
1.01159
1.03117
1.07555
1.20072
1.52513
2.15756
2.43008
2.46207
2.45466
2.43874
2.41805
2.39425
2.36517
2.3298
1
1
1
1.00001
1.00002
1.00004
1.0001
1.00025
1.00062
1.00149
1.00379
1.0089
1.02303
1.05614
1.14788
1.38853
1.95701
2.34793
2.43468
2.43244
2.41905
2.39875
2.37698
2.34996
2.31993
1
1
1
1.00001
1.00001
1.00003
1.00007
1.00019
1.00042
1.00118
1.0025
1.00705
1.01553
1.04166
1.10259
1.2729
1.70326
2.23031
2.39518
2.40774
2.39891
2.38097
2.35987
2.33683
2.30839
1
1
1
1
1.00001
1.00002
1.00006
1.00012
1.00034
1.00074
1.00199
1.00457
1.0117
1.02821
1.07207
1.18542
1.48716
2.07136
2.33761
2.38065
2.37611
2.36223
2.34233
2.32144
2.29839
1
1
1
1
1.00001
1.00001
1.00004
1.00009
1.00023
1.00055
1.00136
1.00337
1.00806
1.02042
1.05003
1.12998
1.33997
1.84817
2.24376
2.34896
2.35381
2.34533
2.3279
2.30667
2.28508
1
1
1
1
1
1.00001
1.00003
1.00006
1.00016
1.00037
1.00095
1.00227
1.00549
1.01374
1.0332
1.08479
1.21734
1.56526
2.10308
2.3004
2.32757
2.32422
2.31067
2.29266
2.27323
1
1
1
1
1
1.00001
1.00002
1.00004
1.00011
1.00027
1.00062
1.00165
1.00365
1.00987
1.02241
1.05905
1.14784
1.39052
1.92154
2.23616
2.30218
2.3042
2.29468
2.27863
2.26343
1
1
1
1
1
1
1.00001
1.00003
1.00007
1.00018
1.00043
1.00112
1.00248
1.00671
1.01504
1.0398
1.09727
1.25656
1.65565
2.11714
2.26499
2.28304
2.27851
2.26787
2.25502
1
1
1
1
1
1
1.00001
1.00002
1.00005
1.00011
1.00032
1.00067
1.00183
1.00409
1.01062
1.02513
1.06423
1.16275
1.42584
1.94341
2.20265
2.25716
2.26184
2.25771
2.2539
1
1
1
1
1
1
1.00001
1.00001
1.00003
1.00008
1.00019
1.0005
1.0011
1.00298
1.00652
1.01751
1.04072
1.10676
1.27301
1.69042
2.09784
2.22539
2.24779
2.25218
2.25846
1
1
1
1
1
1
1
1.00001
1.00002
1.00005
1.00014
1.00028
1.0008
1.00172
1.00461
1.01052
1.02699
1.06563
1.1695
1.43902
1.93377
2.1711
2.22944
2.25195
2.27194
1
1
1
1
1
1
1
1.00001
1.00002
1.00003
1.00009
1.0002
1.0005
1.00119
1.00286
1.00713
1.01697
1.04284
1.10693
1.27786
1.68996
2.07816
2.21557
2.26261
2.30352
1
1
1
1
1
1
1
1
1.00001
1.00002
1.00006
1.00012
1.00034
1.0007
1.00202
1.0042
1.0116
1.02607
1.06843
1.17028
1.44332
1.93342
2.18795
2.28574
2.35399
1
1
1
1
1
1
1
1
1.00001
1.00002
1.00003
1.00009
1.00021
1.00051
1.00125
1.00294
1.00751
1.01748
1.04495
1.111
1.28962
1.71205
2.14122
2.33577
2.43416
1
1
1
1
1
1
1
1
1
1.00001
1.00002
1.00006
1.00014
1.00038
1.00081
1.00225
1.00482
1.01321
1.03
1.07916
1.19985
1.51955
2.08302
2.41826
2.52777
1
1
1
1
1
1
1
1
1
1.00001
1.00002
1.00004
1.00012
1.00025
1.00073
1.00149
1.00429
1.00935
1.02524
1.06076
1.16144
1.42405
2.00709
2.5198
2.63549
1
1
1
1
1
1
1
1
1
1.00001
1.00001
1.00004
1.00009
1.00023
1.00056
1.00135
1.00346
1.00817
1.02127
1.0522
1.13857
1.36995
1.92163
2.6163
2.73164
1
1
1
1
1
1
1
1
1
1.00001
1.00001
1.00004
1.00008
1.00021
1.0005
1.00124
1.00313
1.00753
1.01939
1.04821
1.12774
1.34477
1.89199
2.65716
2.7899
1
1
1
1
1
1
1
1
1
1.00001
1.00001
1.00003
1.00007
1.00021
1.00043
1.00128
1.0027
1.00766
1.01752
1.04699
1.11999
1.32869
1.8658
2.6476
2.81263
1
1
1
1
1
1
1
1
1
1.00001
1.00001
1.00003
1.00007
1.00019
1.00044
1.00116
1.0028
1.00702
1.01752
1.04443
1.11612
1.31422
1.83723
2.61369
2.8166
1
1
1
1
1
1
1
1
1
1
1.00001
1.00003
1.00007
1.00018
1.00044
1.00113
1.00265
1.00704
1.01654
1.04375
1.11157
1.30408
1.81245
2.58508
2.81282
1
1
1
1
1
1
1
1
1
1.00001
1.00001
1.00003
1.00007
1.00019
1.00041
1.00111
1.00262
1.00668
1.01648
1.04195
1.1089
1.29386
1.79017
2.56143
2.80491
1
1
1
1
1
1
1
1
1
1.00001
1.00001
1.00003
1.00006
1.00018
1.0004
1.00109
1.00254
1.00656
1.016
1.04095
1.10578
1.28521
1.76874
2.54013
2.79618
1
1
1
1
1
1
1
1
1
1
1.00001
1.00003
1.00006
1.00018
1.0004
1.00106
1.0025
1.00638
1.01571
1.03988
1.10317
1.27729
1.7489
2.52073
2.7874
1
1
1
1
1
1
1
1
1
1
1.00001
1.00003
1.00007
1.00016
1.00044
1.00094
1.00268
1.00582
1.01614
1.03798
1.1019
1.26959
1.73073
2.50297
2.77841
1
1
1
1
1
1
1
1
1
1
1.00001
1.00002
1.00007
1.00015
1.00044
1.00091
1.00263
1.0058
1.01567
1.03754
1.09953
1.26391
1.71374
2.48725
2.76974
1
1
1
1
1
1
1
1
1
1
1.00001
1.00003
1.00007
1.00015
1.00042
1.00092
1.00258
1.00567
1.0156
1.03663
1.0981
1.25871
1.69804
2.47383
2.76216
1
1
1
1
1
1
1
1
1
1
1.00001
1.00003
1.00006
1.00016
1.0004
1.00095
1.00247
1.00574
1.0152
1.0364
1.09639
1.25497
1.68379
2.4634
2.75601
1
1
1
1
1
1
1
1
1
1
1.00001
1.00002
1.00007
1.00015
1.00042
1.00088
1.00258
1.00548
1.01529
1.03574
1.0956
1.25184
1.67242
2.4554
2.75089
1
1
1
1
1
1
1
1
1
1
1.00001
1.00003
1.00006
1.00016
1.00038
1.00098
1.00229
1.00605
1.0141
1.03707
1.09308
1.2513
1.66425
2.45048
2.74696
1
1
1
1
1
1
1
1
1
1
1.00001
1.00003
1.00006
1.00017
1.00035
1.00104
1.00218
1.00617
1.0139
1.03712
1.0926
1.2504
1.66073
2.4493
2.74484
2.35257
2.48671
2.7712
3.01763
3.00067
2.96538
2.95045
2.93693
2.91603
2.89482
2.87583
2.85861
2.83864
2.82049
2.80928
2.80637
2.80624
2.81189
2.82338
2.8392
2.85724
2.875
2.89162
2.90758
2.92071
2.93235
2.94253
2.95165
2.95823
2.96597
2.97088
2.97376
2.97629
2.97726
2.9775
2.97606
2.97371
2.97256
2.97055
2.96816
2.96296
2.95957
2.95284
2.9476
2.94044
2.93467
2.92724
2.92016
2.91222
2.90457
2.89619
2.88742
2.87943
2.86986
2.86117
2.85173
2.84258
2.83321
2.82391
2.81381
2.80459
2.79413
2.78461
2.77345
2.76412
2.75245
2.74289
2.73135
2.72118
2.71001
2.69947
2.68833
2.67784
2.66652
2.65614
2.64479
2.63441
2.62314
2.61283
2.60157
2.59155
2.58012
2.57061
2.55895
2.54993
2.53826
2.52942
2.51818
2.50915
2.49861
2.48937
2.47948
2.47034
2.46098
2.45232
2.44366
2.43611
2.42898
2.42396
2.41979
2.3661
2.4599
2.6065
2.82421
2.96331
3.01074
3.07205
3.08522
3.08062
3.06608
3.05568
3.04747
3.03578
3.02109
3.013
3.01251
3.01572
3.01788
3.02543
3.0313
3.03921
3.04454
3.04713
3.04799
3.04792
3.04534
3.04096
3.03555
3.03232
3.02716
3.02365
3.01619
3.00974
3.00139
2.99269
2.98344
2.97457
2.96522
2.95604
2.94551
2.93534
2.92337
2.91251
2.90003
2.88927
2.87598
2.86515
2.85171
2.84051
2.82724
2.81555
2.80291
2.79137
2.77857
2.76749
2.75473
2.74371
2.73104
2.72039
2.70761
2.69745
2.68474
2.67464
2.66237
2.6519
2.64014
2.62929
2.61776
2.6068
2.59532
2.58445
2.57306
2.56229
2.55115
2.54042
2.52959
2.51896
2.50835
2.49797
2.48741
2.47748
2.46689
2.45744
2.44692
2.43779
2.42764
2.41855
2.40903
2.39981
2.39096
2.38166
2.37332
2.36417
2.35632
2.34771
2.34061
2.33311
2.32756
2.32257
2.32008
2.35451
2.3824
2.46297
2.52084
2.64528
2.76465
2.91857
3.01249
3.0682
3.08044
3.08631
3.10821
3.11431
3.11473
3.10964
3.11274
3.11998
3.12183
3.12162
3.11855
3.11287
3.10395
3.09419
3.08196
3.06921
3.05522
3.04174
3.02524
3.01114
2.99332
2.97787
2.95945
2.94524
2.92697
2.91237
2.89481
2.88004
2.86326
2.84915
2.83332
2.81949
2.80477
2.79114
2.77748
2.76405
2.75231
2.7391
2.72667
2.71379
2.70177
2.68946
2.67773
2.66572
2.65425
2.64283
2.63142
2.62041
2.60916
2.5982
2.58745
2.57629
2.56614
2.55479
2.54507
2.53371
2.52419
2.51297
2.50352
2.49249
2.4831
2.47222
2.46289
2.45214
2.44281
2.43221
2.4228
2.41248
2.40291
2.39303
2.38326
2.3739
2.36396
2.35505
2.3451
2.33639
2.32668
2.3179
2.30849
2.29953
2.29043
2.2815
2.27271
2.26405
2.25559
2.24748
2.23961
2.23256
2.22604
2.22133
2.21774
2.33011
2.32269
2.35449
2.3859
2.44432
2.51836
2.60253
2.7159
2.83015
2.94141
2.99071
3.03445
3.06644
3.09166
3.103
3.10271
3.09878
3.08896
3.08021
3.06468
3.04504
3.02479
3.00167
2.97938
2.95731
2.93588
2.91512
2.89351
2.872
2.85007
2.8289
2.80828
2.78858
2.76972
2.75174
2.73469
2.71823
2.70285
2.68773
2.67362
2.66
2.64652
2.63428
2.62125
2.61019
2.5987
2.58841
2.57685
2.56628
2.55507
2.54553
2.53463
2.52567
2.515
2.50635
2.49603
2.48749
2.47754
2.46896
2.45923
2.45063
2.44095
2.43242
2.42268
2.41432
2.40457
2.3964
2.3867
2.37861
2.36899
2.36097
2.35151
2.34361
2.3343
2.32659
2.3173
2.30979
2.30046
2.2932
2.28389
2.27694
2.26784
2.26103
2.25227
2.24531
2.23697
2.22977
2.222
2.21466
2.20741
2.20003
2.19318
2.18589
2.17945
2.17246
2.16662
2.16036
2.15579
2.15142
2.14974
2.31656
2.28441
2.28508
2.30334
2.3289
2.37448
2.42011
2.48269
2.55061
2.63217
2.72789
2.81018
2.88001
2.92981
2.96559
2.98091
2.97697
2.96214
2.93921
2.90988
2.87738
2.84737
2.81967
2.79356
2.76973
2.74665
2.72616
2.70574
2.68717
2.66856
2.65181
2.63577
2.62156
2.60807
2.59594
2.58415
2.57354
2.56296
2.55335
2.54385
2.53475
2.52582
2.51708
2.50817
2.50003
2.4917
2.4845
2.47568
2.46796
2.4589
2.45173
2.44297
2.43586
2.42722
2.41993
2.41153
2.40407
2.39595
2.38836
2.38046
2.37273
2.36485
2.35688
2.3489
2.34063
2.33254
2.32388
2.31568
2.30663
2.29839
2.28909
2.28081
2.27134
2.26293
2.25347
2.24492
2.23573
2.22719
2.21843
2.20997
2.20146
2.19301
2.18455
2.17633
2.16793
2.16012
2.15178
2.14438
2.13614
2.12913
2.12106
2.11441
2.10664
2.10039
2.0931
2.08745
2.08101
2.07655
2.07203
2.07036
2.30785
2.26781
2.24682
2.24691
2.25775
2.28055
2.31025
2.3453
2.38793
2.43567
2.49185
2.55405
2.60957
2.66251
2.69465
2.71499
2.70993
2.69254
2.665
2.63266
2.6021
2.57998
2.56055
2.54797
2.53454
2.52627
2.51556
2.50813
2.49866
2.49215
2.48477
2.47956
2.47392
2.46967
2.4649
2.46086
2.4564
2.45244
2.44811
2.44388
2.43953
2.43489
2.4305
2.42531
2.42072
2.41559
2.41118
2.40534
2.39967
2.39291
2.38696
2.3803
2.374
2.36723
2.36042
2.35357
2.34633
2.33944
2.33191
2.32498
2.31733
2.31039
2.30274
2.29581
2.28818
2.28119
2.27357
2.26646
2.25883
2.25152
2.24388
2.23629
2.22869
2.22079
2.21334
2.20508
2.19777
2.18917
2.18191
2.17292
2.16566
2.15666
2.14945
2.14062
2.13338
2.12485
2.11756
2.1094
2.10208
2.09428
2.08701
2.07958
2.07247
2.06545
2.05868
2.05221
2.04615
2.04072
2.03638
2.03361
2.30252
2.25895
2.22908
2.21325
2.21146
2.2189
2.23511
2.25788
2.2854
2.31961
2.35654
2.40054
2.43947
2.47817
2.50153
2.51431
2.50861
2.49227
2.46875
2.44072
2.41955
2.40409
2.39655
2.39683
2.39851
2.4001
2.40173
2.40224
2.40215
2.40171
2.40136
2.40057
2.39997
2.39881
2.39742
2.39523
2.39294
2.39019
2.38734
2.38409
2.3808
2.3771
2.37357
2.36919
2.36507
2.36053
2.35639
2.35135
2.34605
2.33997
2.33408
2.32797
2.32187
2.31574
2.30937
2.30312
2.29646
2.29004
2.28309
2.27645
2.26919
2.26231
2.25475
2.24763
2.23984
2.2325
2.22457
2.21707
2.20906
2.2014
2.19345
2.18558
2.1778
2.16972
2.16219
2.15393
2.14658
2.13806
2.13093
2.12247
2.11549
2.1072
2.10024
2.09225
2.0852
2.07764
2.0705
2.06341
2.05621
2.04958
2.04243
2.03622
2.02926
2.02348
2.01686
2.01165
2.0057
2.00148
1.99714
1.99549
2.29893
2.25513
2.22054
2.19715
2.18373
2.18167
2.18711
2.20031
2.22031
2.24736
2.27789
2.31351
2.34381
2.37462
2.391
2.39861
2.39131
2.37402
2.34613
2.32317
2.30445
2.29336
2.28623
2.28662
2.29211
2.30065
2.30772
2.31366
2.31765
2.31988
2.32148
2.32181
2.32253
2.32239
2.32201
2.32114
2.32019
2.31838
2.31681
2.31428
2.31206
2.30881
2.306
2.30189
2.29832
2.29414
2.29052
2.28616
2.28144
2.27612
2.27053
2.26504
2.25908
2.25348
2.24721
2.24142
2.23484
2.22884
2.22202
2.21583
2.20888
2.20259
2.19561
2.18928
2.18226
2.17587
2.16883
2.16228
2.15523
2.14844
2.1414
2.13432
2.12731
2.11996
2.11286
2.10519
2.09814
2.09041
2.08331
2.07562
2.06842
2.06087
2.05354
2.04621
2.03876
2.0317
2.02422
2.01748
2.01005
2.00364
1.99636
1.99031
1.98326
1.97761
1.97092
1.9658
1.9598
1.95561
1.95121
1.94945
2.29462
2.25289
2.21668
2.18927
2.1702
2.16
2.15948
2.16668
2.18249
2.20917
2.23401
2.26701
2.29594
2.32104
2.331
2.33382
2.32309
2.30027
2.27191
2.24622
2.22834
2.21738
2.20943
2.20734
2.21016
2.21769
2.22771
2.23678
2.24394
2.24927
2.25296
2.2557
2.2576
2.25913
2.26022
2.26085
2.2611
2.26083
2.26024
2.25901
2.25799
2.25592
2.2543
2.25132
2.24915
2.24599
2.24364
2.24009
2.23665
2.23212
2.22783
2.22307
2.21843
2.21363
2.20869
2.20372
2.19836
2.19305
2.18726
2.18161
2.17548
2.16954
2.16312
2.15693
2.15028
2.14384
2.137
2.13033
2.12337
2.11647
2.1095
2.10238
2.09543
2.08808
2.08126
2.07373
2.06699
2.0593
2.05257
2.0448
2.03801
2.03029
2.02339
2.01584
2.00881
2.00154
1.99441
1.98745
1.98029
1.97364
1.96656
1.96023
1.95335
1.94739
1.94089
1.93542
1.92964
1.92505
1.92086
1.91855
2.28999
2.25097
2.21581
2.18633
2.16525
2.15111
2.14789
2.15394
2.17009
2.19363
2.21955
2.25147
2.28203
2.29609
2.30336
2.2987
2.28298
2.25459
2.22417
2.19725
2.17828
2.16501
2.1586
2.15332
2.15346
2.15714
2.16481
2.17493
2.18483
2.19366
2.20053
2.20634
2.21029
2.21399
2.21612
2.21851
2.21986
2.22127
2.22207
2.2226
2.22247
2.22212
2.22138
2.22008
2.21835
2.21642
2.21445
2.21232
2.20958
2.20652
2.20274
2.19896
2.19445
2.19012
2.18505
2.18029
2.17476
2.16959
2.16368
2.15817
2.15202
2.14623
2.13992
2.13385
2.12741
2.12103
2.11448
2.10779
2.10124
2.09427
2.08778
2.08053
2.07419
2.06678
2.06055
2.05302
2.04679
2.03922
2.03288
2.02534
2.01883
2.01141
2.00472
1.99749
1.99065
1.98369
1.97677
1.97013
1.96322
1.95693
1.95015
1.94422
1.9377
1.9322
1.92611
1.92117
1.91579
1.91173
1.90784
1.90591
2.28523
2.2493
2.21609
2.1871
2.16597
2.15159
2.14955
2.15837
2.17415
2.19668
2.22595
2.2575
2.28058
2.28782
2.28808
2.27715
2.2538
2.22295
2.1939
2.16897
2.14912
2.13455
2.12539
2.11996
2.11571
2.11566
2.11856
2.12507
2.13412
2.14414
2.1543
2.162
2.16909
2.17334
2.17757
2.17984
2.18224
2.18361
2.18483
2.18545
2.18578
2.18548
2.18484
2.18349
2.18192
2.17986
2.17802
2.17574
2.17304
2.16984
2.16611
2.16216
2.15773
2.15343
2.14858
2.14397
2.13873
2.13386
2.12832
2.12322
2.11745
2.1121
2.10611
2.10045
2.09424
2.08821
2.08182
2.07544
2.06891
2.06221
2.05569
2.04884
2.04237
2.0354
2.0289
2.02186
2.01528
2.00823
2.00154
1.99454
1.98774
1.98083
1.97393
1.96715
1.96018
1.95355
1.94656
1.94016
1.93321
1.92712
1.9203
1.91461
1.90805
1.90285
1.89677
1.89223
1.88699
1.88346
1.87983
1.87838
2.27881
2.24684
2.21739
2.19051
2.17213
2.16173
2.16398
2.17625
2.19349
2.21863
2.24979
2.27551
2.28576
2.28861
2.2819
2.26297
2.23485
2.20549
2.17871
2.15573
2.13626
2.12025
2.10821
2.09873
2.09374
2.08943
2.0884
2.09026
2.09527
2.10265
2.11243
2.12257
2.13144
2.13856
2.1442
2.14824
2.1515
2.15386
2.15562
2.15722
2.158
2.15896
2.15886
2.15842
2.15757
2.15612
2.15475
2.15318
2.1514
2.14914
2.14633
2.14332
2.13968
2.13594
2.13156
2.12726
2.12237
2.11772
2.11252
2.10762
2.10217
2.09699
2.09131
2.08576
2.07984
2.07387
2.06775
2.06136
2.05514
2.04851
2.04234
2.03554
2.02939
2.02246
2.01627
2.00925
2.00296
1.99591
1.9895
1.9825
1.97599
1.96908
1.96249
1.95573
1.94907
1.94247
1.93577
1.92938
1.9227
1.91662
1.91005
1.9044
1.8981
1.893
1.88723
1.88284
1.87794
1.87452
1.87148
1.86998
2.27131
2.24428
2.21877
2.19834
2.18297
2.1826
2.18961
2.20375
2.22513
2.25364
2.28106
2.29205
2.29587
2.2918
2.27766
2.25155
2.22359
2.19764
2.17361
2.15282
2.13323
2.11676
2.10147
2.08978
2.07978
2.07384
2.06946
2.06845
2.06889
2.07189
2.07777
2.08646
2.09572
2.10479
2.11198
2.11817
2.12274
2.12627
2.12912
2.13083
2.13242
2.133
2.1334
2.13312
2.13243
2.1312
2.12979
2.1285
2.12677
2.12478
2.12206
2.11915
2.11547
2.11175
2.1073
2.103
2.09803
2.09335
2.08805
2.0831
2.0776
2.0724
2.0667
2.06117
2.05523
2.04928
2.0431
2.03681
2.03062
2.02412
2.01799
2.01137
2.00531
1.99861
1.99256
1.98581
1.97968
1.9729
1.96662
1.95986
1.95344
1.94672
1.94019
1.93361
1.92698
1.92064
1.914
1.90798
1.9014
1.89577
1.88939
1.88423
1.87823
1.87374
1.86838
1.86476
1.86039
1.85805
1.85585
1.85521
2.26393
2.24123
2.22257
2.20771
2.20471
2.20959
2.22204
2.2404
2.26676
2.29217
2.30403
2.30759
2.30452
2.29222
2.26955
2.24429
2.21963
2.19737
2.17568
2.15646
2.13664
2.11963
2.10224
2.08844
2.07531
2.0661
2.05832
2.05483
2.05203
2.0517
2.05269
2.05642
2.06304
2.07148
2.07985
2.08784
2.09401
2.09957
2.10304
2.10635
2.10806
2.10966
2.11026
2.11041
2.11003
2.10919
2.10794
2.10672
2.10522
2.10366
2.10139
2.09886
2.09559
2.09221
2.0881
2.08404
2.07933
2.07486
2.06979
2.06506
2.05975
2.05477
2.04924
2.04388
2.03812
2.03233
2.02647
2.02036
2.01448
2.00811
2.0022
1.99568
1.98972
1.98318
1.97714
1.97062
1.96446
1.95799
1.95169
1.94526
1.93885
1.93248
1.92601
1.91971
1.91324
1.90708
1.90065
1.89474
1.8884
1.88292
1.87678
1.87191
1.86622
1.86219
1.85722
1.8542
1.8506
1.84925
1.84806
1.84778
2.25615
2.24093
2.22975
2.22724
2.23173
2.24313
2.26108
2.28501
2.30884
2.32038
2.32375
2.32064
2.30902
2.28772
2.26495
2.24283
2.2216
2.20173
2.18179
2.16296
2.14342
2.1255
2.10738
2.09168
2.07685
2.06481
2.05424
2.04652
2.0404
2.03765
2.03542
2.03534
2.03704
2.04167
2.04908
2.05675
2.06485
2.07113
2.07707
2.08089
2.08413
2.08596
2.08701
2.08757
2.0874
2.08681
2.08571
2.08466
2.08347
2.08217
2.08015
2.07783
2.07472
2.07152
2.06753
2.06362
2.059
2.05463
2.04967
2.045
2.03983
2.0349
2.02956
2.02428
2.01875
2.01314
2.00751
2.0016
1.99587
1.98974
1.98395
1.97768
1.97187
1.96553
1.95966
1.9533
1.94731
1.94095
1.93481
1.9285
1.92222
1.91601
1.90965
1.90361
1.89725
1.89146
1.88516
1.87972
1.87359
1.8686
1.86286
1.85846
1.85347
1.84982
1.84583
1.84345
1.84136
1.84112
1.84152
1.84076
2.25147
2.24389
2.24445
2.25149
2.26333
2.28333
2.30679
2.32907
2.33809
2.34104
2.33711
2.32495
2.30499
2.2841
2.26402
2.245
2.22654
2.20817
2.18983
2.17117
2.15197
2.1334
2.11479
2.09775
2.08163
2.0671
2.05442
2.04334
2.03439
2.0272
2.02256
2.0196
2.01801
2.01814
2.02084
2.0264
2.0331
2.04055
2.04723
2.05288
2.05751
2.06041
2.06264
2.06351
2.06408
2.0638
2.06304
2.06208
2.06088
2.05977
2.05816
2.05623
2.05352
2.05072
2.04712
2.04359
2.03925
2.03521
2.03043
2.02602
2.02093
2.01617
2.0108
2.00569
2.00014
1.99476
1.98911
1.98345
1.97776
1.97187
1.9662
1.96019
1.9545
1.94853
1.94268
1.93685
1.93078
1.92507
1.91882
1.91316
1.90684
1.90114
1.89488
1.88914
1.88303
1.87734
1.87152
1.86597
1.86065
1.85543
1.85085
1.84632
1.84268
1.83906
1.83688
1.83523
1.83529
1.83595
1.83757
1.83723
2.25161
2.25471
2.26521
2.27883
2.30272
2.32701
2.34856
2.35696
2.35979
2.35439
2.3406
2.32183
2.30178
2.28343
2.26573
2.24906
2.23227
2.21526
2.19751
2.17911
2.16022
2.14134
2.1227
2.1046
2.08778
2.07129
2.05727
2.04313
2.03202
2.02131
2.01352
2.00674
2.0035
2.00027
1.99957
2.00005
2.00368
2.00973
2.01612
2.02315
2.02856
2.03368
2.03652
2.03913
2.03987
2.04054
2.04017
2.03947
2.03842
2.03765
2.03625
2.03478
2.03228
2.0299
2.02647
2.02328
2.01904
2.01523
2.01042
2.00618
2.00103
1.9964
1.99106
1.98606
1.98075
1.9754
1.97014
1.96447
1.95924
1.95335
1.94809
1.94215
1.93678
1.93091
1.9254
1.91962
1.91396
1.90826
1.90243
1.89682
1.89082
1.88534
1.87925
1.87397
1.86793
1.86287
1.85719
1.8524
1.84735
1.84309
1.83901
1.83551
1.83254
1.83041
1.82962
1.82979
1.83078
1.83284
1.83555
1.83759
2.25844
2.27311
2.28918
2.3176
2.34667
2.3686
2.37597
2.37719
2.37021
2.35504
2.33533
2.31704
2.2997
2.28397
2.26853
2.25328
2.2374
2.22115
2.20357
2.18566
2.16676
2.14809
2.12923
2.11086
2.09336
2.07602
2.0607
2.04492
2.03198
2.01867
2.00813
1.99846
1.99137
1.98567
1.9826
1.97944
1.97942
1.98063
1.9851
1.99046
1.99732
2.00283
2.0083
2.01171
2.01463
2.01579
2.01669
2.01631
2.01539
2.01472
2.01336
2.01225
2.01001
2.00797
2.00484
2.002
1.99816
1.99462
1.99023
1.98607
1.98126
1.97654
1.97148
1.96646
1.96136
1.95608
1.95095
1.9455
1.94034
1.93482
1.92962
1.92406
1.91882
1.9132
1.90798
1.90229
1.89712
1.89135
1.88626
1.88045
1.87535
1.86965
1.86445
1.85901
1.85379
1.84878
1.84375
1.83939
1.83495
1.83149
1.82802
1.82554
1.82369
1.82338
1.82396
1.82521
1.82734
1.83217
1.83851
1.84286
2.27437
2.29612
2.32871
2.3626
2.38535
2.39341
2.39382
2.38586
2.36906
2.34902
2.33021
2.31387
2.29909
2.28486
2.27094
2.2563
2.24127
2.22505
2.20826
2.19036
2.17222
2.15358
2.13495
2.11654
2.09843
2.08088
2.06392
2.04759
2.03225
2.01771
2.00457
1.99258
1.9823
1.97379
1.96781
1.96271
1.95983
1.95786
1.95798
1.95996
1.96456
1.97085
1.97635
1.98199
1.98569
1.98912
1.99051
1.99169
1.99139
1.99085
1.98979
1.98897
1.98725
1.98568
1.98286
1.98046
1.97681
1.97364
1.96933
1.96556
1.96073
1.95644
1.9514
1.9468
1.94167
1.93684
1.93162
1.92667
1.92137
1.91641
1.91106
1.90611
1.90072
1.89575
1.89038
1.88531
1.88005
1.87484
1.86974
1.86443
1.85947
1.85414
1.84933
1.84412
1.83957
1.83473
1.83068
1.82658
1.82343
1.82041
1.81828
1.81706
1.81717
1.81823
1.81979
1.82335
1.82773
1.83629
1.84587
1.85137
2.29989
2.34031
2.37534
2.40021
2.41027
2.40982
2.40046
2.38157
2.36085
2.34184
2.32566
2.31134
2.29855
2.28548
2.27236
2.25822
2.24351
2.22759
2.21101
2.19346
2.17549
2.15705
2.13854
2.11999
2.10174
2.08363
2.06618
2.04929
2.0327
2.01741
2.00217
1.98894
1.97597
1.96545
1.95578
1.94889
1.94297
1.93865
1.93557
1.93478
1.93507
1.93807
1.94307
1.94866
1.95432
1.95907
1.96275
1.96508
1.96661
1.96655
1.96607
1.96541
1.96431
1.96293
1.96067
1.95821
1.95517
1.95196
1.94832
1.94444
1.9403
1.93591
1.93145
1.92682
1.92209
1.91732
1.91235
1.90749
1.9024
1.89757
1.89241
1.88767
1.88242
1.87778
1.87245
1.86788
1.86259
1.85802
1.85287
1.84827
1.84332
1.8388
1.83409
1.8298
1.82551
1.8217
1.81821
1.81528
1.81286
1.81103
1.81036
1.81087
1.81208
1.81443
1.81786
1.82508
1.83313
1.84382
1.85442
1.85995
2.34877
2.3915
2.41557
2.42548
2.42442
2.41313
2.3925
2.37136
2.35201
2.33569
2.32199
2.30946
2.29748
2.2849
2.27183
2.25793
2.24329
2.22771
2.21141
2.19425
2.17658
2.1585
2.14027
2.12183
2.10373
2.0855
2.0678
2.05017
2.03306
2.01669
2.00038
1.98579
1.97114
1.95881
1.94669
1.93724
1.92856
1.92244
1.91649
1.9132
1.91088
1.91095
1.9121
1.91592
1.92147
1.92691
1.93236
1.93658
1.93984
1.94146
1.9422
1.94163
1.94102
1.93993
1.93845
1.93632
1.93381
1.93086
1.92764
1.92394
1.92019
1.91597
1.91187
1.9072
1.90286
1.89786
1.89346
1.88825
1.88388
1.87861
1.87426
1.86913
1.86467
1.85978
1.85516
1.85051
1.84581
1.84133
1.83668
1.83235
1.82785
1.82374
1.81952
1.81583
1.81219
1.80923
1.80667
1.80464
1.80332
1.80324
1.80412
1.80582
1.80845
1.814
1.8208
1.83129
1.84162
1.85261
1.8625
1.86683
2.40646
2.43191
2.44093
2.43806
2.42331
2.40007
2.378
2.35926
2.34362
2.32998
2.31776
2.30608
2.29426
2.28215
2.2693
2.25571
2.24121
2.22588
2.20976
2.19306
2.1758
2.15813
2.14028
2.1221
2.10415
2.08597
2.06806
2.05029
2.03268
2.01557
1.99892
1.98292
1.96783
1.95343
1.94049
1.92826
1.91815
1.90908
1.90205
1.89579
1.89111
1.88828
1.88765
1.88793
1.89024
1.89499
1.9006
1.90644
1.91133
1.91529
1.91755
1.91889
1.91874
1.91823
1.91724
1.91601
1.91364
1.91116
1.90783
1.90464
1.90075
1.89712
1.89286
1.88884
1.88433
1.87995
1.87532
1.87065
1.86608
1.86126
1.85685
1.85202
1.84776
1.84298
1.83877
1.83408
1.8299
1.82535
1.82124
1.81697
1.81303
1.80922
1.80569
1.80258
1.79999
1.79791
1.79651
1.79578
1.79624
1.79762
1.79954
1.80356
1.80935
1.81855
1.82824
1.83983
1.8502
1.8597
1.86745
1.87003
2.46551
2.47178
2.46408
2.44272
2.41426
2.38956
2.36899
2.35257
2.33847
2.32604
2.31427
2.3026
2.29089
2.27824
2.26534
2.25126
2.23698
2.22166
2.20603
2.18974
2.17297
2.15587
2.13838
2.12073
2.10284
2.0848
2.06681
2.04886
2.03112
2.01387
1.99674
1.98054
1.96449
1.94971
1.93537
1.92248
1.91035
1.89992
1.89055
1.88303
1.87613
1.87092
1.86726
1.86609
1.86634
1.86758
1.87144
1.87678
1.88267
1.88825
1.89278
1.89597
1.89773
1.898
1.8975
1.8966
1.89524
1.89317
1.89034
1.88734
1.88377
1.88038
1.87623
1.87258
1.86793
1.86406
1.85911
1.85506
1.85007
1.84586
1.84102
1.83675
1.83214
1.82794
1.82357
1.81945
1.81536
1.81135
1.80753
1.80379
1.8003
1.79709
1.79424
1.79207
1.79034
1.78932
1.7892
1.79017
1.7916
1.7947
1.79917
1.80702
1.81607
1.82726
1.83797
1.84853
1.85724
1.86387
1.86884
1.86982
2.52359
2.50176
2.46905
2.43388
2.4043
2.38178
2.36401
2.34962
2.33686
2.32472
2.3129
2.30055
2.28831
2.2752
2.26205
2.24789
2.23346
2.2181
2.20237
2.18605
2.16951
2.1527
2.13573
2.11835
2.10088
2.08308
2.06534
2.0476
2.02998
2.01271
1.99553
1.97915
1.96299
1.94785
1.93315
1.9195
1.90663
1.8946
1.88381
1.87431
1.86648
1.85957
1.85379
1.84967
1.84812
1.84827
1.84891
1.85134
1.85622
1.86213
1.86794
1.87318
1.87695
1.87937
1.88015
1.87988
1.87915
1.8777
1.87592
1.87265
1.86969
1.8658
1.86243
1.85832
1.85459
1.85036
1.84623
1.84186
1.83751
1.83305
1.82866
1.82418
1.81987
1.81555
1.81141
1.80734
1.80343
1.79967
1.79607
1.79281
1.7898
1.78735
1.78546
1.78425
1.78367
1.78393
1.78512
1.78748
1.79079
1.79747
1.80535
1.81588
1.82686
1.83787
1.84785
1.85581
1.86196
1.86551
1.86804
1.86763
2.59782
2.54606
2.48631
2.44356
2.41232
2.38956
2.37133
2.35591
2.34169
2.32794
2.31449
2.30082
2.2873
2.27362
2.25997
2.24579
2.23127
2.21595
2.2002
2.1839
2.16741
2.15059
2.13378
2.11653
2.09946
2.08193
2.06463
2.04708
2.0298
2.01265
1.99583
1.97953
1.96361
1.9484
1.93368
1.91973
1.90638
1.89392
1.88252
1.87192
1.86283
1.85466
1.8481
1.84174
1.83718
1.83422
1.8341
1.83462
1.83642
1.84023
1.84582
1.852
1.85759
1.86226
1.86513
1.8666
1.86659
1.86591
1.86467
1.86269
1.85995
1.85651
1.85295
1.84909
1.84523
1.84114
1.83698
1.83267
1.82828
1.82386
1.8194
1.81499
1.81065
1.80633
1.80231
1.79822
1.79465
1.79098
1.78802
1.78504
1.783
1.78137
1.78048
1.78047
1.78103
1.78252
1.7855
1.78981
1.79718
1.80629
1.81726
1.82814
1.83901
1.8481
1.85545
1.86052
1.86349
1.86488
1.86547
1.86422
2.66663
2.58988
2.52633
2.47828
2.44268
2.41587
2.39408
2.3751
2.35776
2.34145
2.32552
2.30981
2.29443
2.27942
2.26461
2.24978
2.23456
2.21895
2.20284
2.18636
2.16983
2.15277
2.13621
2.11894
2.1022
2.08478
2.06784
2.05056
2.03376
2.01699
2.00068
1.98465
1.96905
1.9539
1.93917
1.92504
1.91149
1.89876
1.88662
1.8756
1.86523
1.85613
1.84809
1.84106
1.83492
1.83017
1.82701
1.8264
1.82664
1.82797
1.83062
1.83572
1.84109
1.84709
1.852
1.85534
1.85739
1.85737
1.85644
1.85517
1.85324
1.85041
1.84689
1.84315
1.83915
1.83518
1.83087
1.82678
1.82232
1.81808
1.81356
1.80929
1.80486
1.80072
1.79653
1.79272
1.78908
1.78591
1.7833
1.78114
1.7801
1.77959
1.77977
1.7806
1.78253
1.78588
1.79253
1.80033
1.81072
1.82112
1.83233
1.84218
1.85082
1.85708
1.86148
1.86382
1.86462
1.86454
1.86431
1.86219
2.72027
2.63941
2.57784
2.53184
2.49468
2.46362
2.43648
2.41263
2.39053
2.36953
2.34963
2.33076
2.31265
2.29589
2.27948
2.2637
2.24737
2.2312
2.21428
2.19743
2.18029
2.16315
2.14604
2.12905
2.11199
2.09512
2.07808
2.06136
2.04458
2.02823
2.01192
1.99621
1.98054
1.96561
1.95088
1.93688
1.92339
1.91051
1.89831
1.88679
1.87587
1.86583
1.85648
1.84833
1.84094
1.83446
1.82916
1.82552
1.82428
1.82456
1.82591
1.82859
1.83196
1.83711
1.84271
1.84732
1.85112
1.85296