/*--------------------------------*- C++ -*----------------------------------*\
  =========                 |
  \\      /  F ield         | OpenFOAM: The Open Source CFD Toolbox
   \\    /   O peration     | Website:  https://openfoam.org
    \\  /    A nd           | Version:  13
     \\/     M anipulation  |
\*---------------------------------------------------------------------------*/
FoamFile
{
    format      ascii;
    class       volVectorField;
    location    "8.5";
    object      U;
}
// * * * * * * * * * * * * * * * * * * * * * * * * * * * * * * * * * * * * * //

dimensions      [0 1 -1 0 0 0 0];

internalField   nonuniform List<vector> 
5250
(
(2.99999 4.38348e-09 0)
(2.99998 4.90129e-08 0)
(2.99995 2.40665e-07 0)
(2.99988 5.67536e-07 0)
(2.99971 1.69009e-06 0)
(2.99929 5.38461e-06 0)
(2.99825 6.29282e-06 0)
(2.99568 4.11924e-05 0)
(2.98927 3.43583e-05 0)
(2.9731 0.000219528 0)
(2.93063 0.000366688 0)
(2.81194 0.0012143 0)
(2.46403 0.00311153 0)
(1.50488 0.00936968 0)
(0.667064 0.0223007 0)
(0.543504 0.0229642 0)
(0.5672 0.0237515 0)
(0.558487 0.0253794 0)
(0.504531 0.0271807 0)
(0.418305 0.0292376 0)
(0.336886 0.0317393 0)
(0.268154 0.0346409 0)
(0.198471 0.0377231 0)
(0.119308 0.0413536 0)
(0.052338 0.0465637 0)
(2.99999 4.90453e-08 0)
(2.99998 1.40943e-07 0)
(2.99995 1.0099e-06 0)
(2.99989 1.43935e-06 0)
(2.99972 7.18303e-06 0)
(2.99929 1.09855e-05 0)
(2.99828 4.09648e-05 0)
(2.9957 7.56571e-05 0)
(2.98942 0.000227966 0)
(2.97339 0.000501879 0)
(2.93142 0.0013741 0)
(2.81434 0.00351551 0)
(2.47053 0.00987786 0)
(1.52034 0.0288724 0)
(0.676486 0.0676577 0)
(0.541918 0.0663396 0)
(0.566364 0.065828 0)
(0.558297 0.0683988 0)
(0.504381 0.0714033 0)
(0.418324 0.0751239 0)
(0.336872 0.0794932 0)
(0.267542 0.0841813 0)
(0.19685 0.0885849 0)
(0.116368 0.0929211 0)
(0.048943 0.0973046 0)
(2.99999 7.88569e-08 0)
(2.99998 3.17915e-07 0)
(2.99996 1.45859e-06 0)
(2.99989 3.08778e-06 0)
(2.99972 1.07091e-05 0)
(2.99932 1.99808e-05 0)
(2.9983 7.0292e-05 0)
(2.99584 0.000120519 0)
(2.98962 0.000419445 0)
(2.97407 0.000811908 0)
(2.93311 0.00240425 0)
(2.81912 0.0059132 0)
(2.485 0.0169545 0)
(1.55417 0.0491853 0)
(0.69853 0.116861 0)
(0.540149 0.112257 0)
(0.566942 0.110288 0)
(0.560944 0.115032 0)
(0.507683 0.120726 0)
(0.422461 0.128025 0)
(0.341328 0.136138 0)
(0.271523 0.144667 0)
(0.199831 0.152862 0)
(0.117892 0.160425 0)
(0.0485709 0.166194 0)
(3 5.32256e-08 0)
(2.99998 6.1367e-07 0)
(2.99996 1.35529e-06 0)
(2.99989 5.99445e-06 0)
(2.99973 1.04968e-05 0)
(2.99934 3.88787e-05 0)
(2.99836 6.93566e-05 0)
(2.99599 0.000234422 0)
(2.98999 0.000453423 0)
(2.97504 0.00135827 0)
(2.9357 0.00309996 0)
(2.82639 0.00859469 0)
(2.50693 0.0236095 0)
(1.60663 0.069032 0)
(0.732434 0.166944 0)
(0.537048 0.157468 0)
(0.568763 0.153593 0)
(0.566669 0.160815 0)
(0.514648 0.169472 0)
(0.430886 0.180696 0)
(0.350319 0.192898 0)
(0.280259 0.205785 0)
(0.207479 0.218504 0)
(0.12331 0.23007 0)
(0.0504355 0.237729 0)
(3 9.4764e-08 0)
(2.99998 6.75386e-07 0)
(2.99996 2.22884e-06 0)
(2.9999 6.61174e-06 0)
(2.99975 1.665e-05 0)
(2.99937 4.45971e-05 0)
(2.99846 0.000102277 0)
(2.99616 0.000279827 0)
(2.99056 0.000625598 0)
(2.97627 0.00168752 0)
(2.93916 0.00407155 0)
(2.83618 0.0109704 0)
(2.53576 0.0302915 0)
(1.67852 0.0882391 0)
(0.778059 0.218713 0)
(0.532202 0.202924 0)
(0.571883 0.196369 0)
(0.57553 0.20588 0)
(0.525186 0.217363 0)
(0.443396 0.232501 0)
(0.363646 0.249041 0)
(0.293455 0.266775 0)
(0.219478 0.284769 0)
(0.132157 0.301351 0)
(0.0541842 0.311835 0)
(3 1.32017e-07 0)
(2.99999 7.96543e-07 0)
(2.99996 2.82684e-06 0)
(2.9999 7.82535e-06 0)
(2.99976 2.08533e-05 0)
(2.99942 5.16536e-05 0)
(2.99855 0.000131945 0)
(2.99643 0.000317451 0)
(2.99116 0.000810521 0)
(2.97792 0.00196658 0)
(2.94341 0.0050577 0)
(2.84835 0.0131816 0)
(2.57151 0.0367802 0)
(1.7712 0.106465 0)
(0.837064 0.272059 0)
(0.526954 0.24864 0)
(0.577378 0.2388 0)
(0.588489 0.250555 0)
(0.54013 0.264838 0)
(0.460852 0.284062 0)
(0.382248 0.305499 0)
(0.312198 0.329084 0)
(0.236986 0.353833 0)
(0.145641 0.377605 0)
(0.0604331 0.39329 0)
(3 1.49783e-07 0)
(2.99999 9.33648e-07 0)
(2.99997 3.13004e-06 0)
(2.99991 9.08419e-06 0)
(2.99978 2.33706e-05 0)
(2.99946 5.89835e-05 0)
(2.99868 0.000151722 0)
(2.99672 0.000359761 0)
(2.99194 0.00094391 0)
(2.97981 0.0022532 0)
(2.94852 0.00586495 0)
(2.86263 0.0151728 0)
(2.61407 0.0423527 0)
(1.88489 0.122435 0)
(0.911331 0.323845 0)
(0.524723 0.294104 0)
(0.587944 0.281102 0)
(0.607507 0.294753 0)
(0.561002 0.311675 0)
(0.484669 0.33526 0)
(0.40762 0.362346 0)
(0.338163 0.393073 0)
(0.262132 0.426712 0)
(0.166241 0.461229 0)
(0.0709846 0.487083 0)
(3 1.58644e-07 0)
(2.99999 9.8124e-07 0)
(2.99997 3.46767e-06 0)
(2.99992 9.58203e-06 0)
(2.9998 2.58747e-05 0)
(2.99952 6.4609e-05 0)
(2.99881 0.000162773 0)
(2.99709 0.00040604 0)
(2.99274 0.00100175 0)
(2.98201 0.00252353 0)
(2.9542 0.006332 0)
(2.87875 0.0166495 0)
(2.66179 0.0459369 0)
(2.01891 0.133357 0)
(1.00402 0.367406 0)
(0.533568 0.341319 0)
(0.607531 0.326888 0)
(0.634978 0.339967 0)
(0.590019 0.358259 0)
(0.517027 0.386079 0)
(0.441947 0.419532 0)
(0.373777 0.458901 0)
(0.298168 0.504038 0)
(0.198661 0.55473 0)
(0.0895564 0.601368 0)
(3 1.58538e-07 0)
(2.99999 9.8585e-07 0)
(2.99997 3.46751e-06 0)
(2.99993 9.71402e-06 0)
(2.99983 2.57617e-05 0)
(2.99957 6.54233e-05 0)
(2.99897 0.000162251 0)
(2.99742 0.000408454 0)
(2.9937 0.0010051 0)
(2.98425 0.00251769 0)
(2.96029 0.0063575 0)
(2.89577 0.0165403 0)
(2.71212 0.0455313 0)
(2.16857 0.131958 0)
(1.12377 0.380364 0)
(0.571761 0.38455 0)
(0.642809 0.377938 0)
(0.673457 0.386963 0)
(0.630015 0.406075 0)
(0.560782 0.436937 0)
(0.488121 0.477378 0)
(0.422164 0.525767 0)
(0.349874 0.584765 0)
(0.252119 0.660834 0)
(0.124545 0.75065 0)
(3 1.56498e-07 0)
(2.99999 8.53621e-07 0)
(2.99998 3.25173e-06 0)
(2.99994 8.34108e-06 0)
(2.99985 2.41321e-05 0)
(2.99964 5.52235e-05 0)
(2.99909 0.000153576 0)
(2.99779 0.000341069 0)
(2.9945 0.000936009 0)
(2.98648 0.00213186 0)
(2.96589 0.00565818 0)
(2.9115 0.0141077 0)
(2.75868 0.0386251 0)
(2.31041 0.109877 0)
(1.2681 0.32711 0)
(0.636834 0.411643 0)
(0.686372 0.433386 0)
(0.715892 0.433642 0)
(0.677918 0.455002 0)
(0.614856 0.487638 0)
(0.546632 0.534652 0)
(0.485158 0.59147 0)
(0.424321 0.6688 0)
(0.343725 0.786899 0)
(0.19234 0.993541 0)
(3 1.23057e-07 0)
(2.99999 7.94239e-07 0)
(2.99998 2.68703e-06 0)
(2.99995 7.74291e-06 0)
(2.99987 1.99181e-05 0)
(2.99968 5.11356e-05 0)
(2.99921 0.000125211 0)
(2.99807 0.000312807 0)
(2.99519 0.000761502 0)
(2.98819 0.00188922 0)
(2.97027 0.00466475 0)
(2.92322 0.0118612 0)
(2.79168 0.0313902 0)
(2.406 0.087638 0)
(1.40961 0.259912 0)
(0.701409 0.453088 0)
(0.706206 0.486813 0)
(0.734703 0.483924 0)
(0.71865 0.504175 0)
(0.669485 0.537027 0)
(0.612556 0.587006 0)
(0.564026 0.651749 0)
(0.532748 0.74459 0)
(0.530526 0.889173 0)
(0.565154 1.13068 0)
(3 1.13527e-07 0)
(2.99999 7.37167e-07 0)
(2.99998 2.47903e-06 0)
(2.99995 7.20318e-06 0)
(2.99989 1.83023e-05 0)
(2.99972 4.7554e-05 0)
(2.99931 0.000114547 0)
(2.99832 0.00029059 0)
(2.99582 0.000701439 0)
(2.98973 0.00175778 0)
(2.9742 0.00432207 0)
(2.93372 0.0109927 0)
(2.82123 0.0289013 0)
(2.49303 0.0804751 0)
(1.59013 0.235716 0)
(0.803436 0.505743 0)
(0.714474 0.526486 0)
(0.744389 0.528271 0)
(0.748193 0.546294 0)
(0.717689 0.580891 0)
(0.679332 0.631426 0)
(0.650944 0.70116 0)
(0.650982 0.799055 0)
(0.703269 0.936102 0)
(0.82905 1.11386 0)
(3 1.00702e-07 0)
(2.99999 7.23927e-07 0)
(2.99998 2.29363e-06 0)
(2.99996 7.05015e-06 0)
(2.9999 1.71304e-05 0)
(2.99976 4.67643e-05 0)
(2.99941 0.00010727 0)
(2.99856 0.000289644 0)
(2.99641 0.000657431 0)
(2.9912 0.00175484 0)
(2.97796 0.00411144 0)
(2.94369 0.0107766 0)
(2.84938 0.0277433 0)
(2.57578 0.0775162 0)
(1.79205 0.224549 0)
(0.934168 0.54616 0)
(0.724854 0.554826 0)
(0.755387 0.559199 0)
(0.77497 0.576871 0)
(0.762507 0.615056 0)
(0.743019 0.667018 0)
(0.736726 0.736318 0)
(0.759603 0.827253 0)
(0.831705 0.938364 0)
(0.970979 1.04744 0)
(3 1.06659e-07 0)
(3 6.59452e-07 0)
(2.99999 2.33935e-06 0)
(2.99997 6.43441e-06 0)
(2.99992 1.7392e-05 0)
(2.9998 4.31688e-05 0)
(2.99951 0.000109385 0)
(2.99878 0.000270437 0)
(2.99704 0.000667018 0)
(2.99261 0.00166691 0)
(2.98171 0.0041181 0)
(2.95342 0.0104367 0)
(2.87677 0.0272233 0)
(2.65655 0.0752009 0)
(2.00942 0.217837 0)
(1.09166 0.578282 0)
(0.750253 0.587258 0)
(0.776551 0.590744 0)
(0.806259 0.602338 0)
(0.808865 0.640528 0)
(0.803646 0.69309 0)
(0.813137 0.757827 0)
(0.849932 0.834789 0)
(0.926001 0.919889 0)
(1.0566 0.990847 0)
(3 1.00685e-07 0)
(3 6.11154e-07 0)
(2.99999 2.14732e-06 0)
(2.99997 5.98773e-06 0)
(2.99993 1.59215e-05 0)
(2.99984 3.97051e-05 0)
(2.9996 0.000101313 0)
(2.99903 0.000244645 0)
(2.99758 0.000626028 0)
(2.99408 0.00150174 0)
(2.98526 0.0038475 0)
(2.96297 0.00948705 0)
(2.90338 0.0248705 0)
(2.73535 0.0676298 0)
(2.24094 0.195414 0)
(1.29446 0.55631 0)
(0.821439 0.616836 0)
(0.81974 0.627573 0)
(0.84719 0.63204 0)
(0.861049 0.663247 0)
(0.863779 0.711528 0)
(0.880882 0.769201 0)
(0.923793 0.832884 0)
(0.998353 0.89807 0)
(1.11563 0.949375 0)
(3 8.12585e-08 0)
(3 5.25918e-07 0)
(2.99999 1.76769e-06 0)
(2.99998 5.13626e-06 0)
(2.99995 1.31369e-05 0)
(2.99987 3.38627e-05 0)
(2.99968 8.27133e-05 0)
(2.99922 0.000207892 0)
(2.99808 0.000505841 0)
(2.99529 0.00126136 0)
(2.98837 0.00310081 0)
(2.97094 0.00774731 0)
(2.92531 0.0197593 0)
(2.79885 0.0527677 0)
(2.43287 0.149298 0)
(1.52672 0.44499 0)
(0.921474 0.635973 0)
(0.871212 0.662794 0)
(0.890787 0.670859 0)
(0.913239 0.688895 0)
(0.922249 0.72749 0)
(0.942361 0.776206 0)
(0.98613 0.828462 0)
(1.05666 0.879182 0)
(1.16019 0.918331 0)
(3 6.88271e-08 0)
(3 4.2646e-07 0)
(2.99999 1.48935e-06 0)
(2.99998 4.1382e-06 0)
(2.99996 1.10392e-05 0)
(2.9999 2.72251e-05 0)
(2.99974 6.91651e-05 0)
(2.99938 0.000167373 0)
(2.99846 0.000417884 0)
(2.99624 0.00101368 0)
(2.99067 0.00251953 0)
(2.97685 0.00617212 0)
(2.94079 0.0156297 0)
(2.84203 0.0406832 0)
(2.55747 0.112436 0)
(1.76986 0.332467 0)
(1.04194 0.666501 0)
(0.905958 0.696175 0)
(0.921203 0.70846 0)
(0.951425 0.715161 0)
(0.972695 0.742994 0)
(0.996821 0.782466 0)
(1.03967 0.824848 0)
(1.10513 0.864543 0)
(1.19613 0.8947 0)
(3 5.58333e-08 0)
(3 3.74134e-07 0)
(2.99999 1.24354e-06 0)
(2.99999 3.64606e-06 0)
(2.99997 9.23635e-06 0)
(2.99992 2.42067e-05 0)
(2.9998 5.79136e-05 0)
(2.99951 0.000149283 0)
(2.99879 0.000351702 0)
(2.99704 0.000906604 0)
(2.99266 0.00214172 0)
(2.98186 0.00549089 0)
(2.95397 0.0134883 0)
(2.87861 0.0354672 0)
(2.6636 0.0967992 0)
(2.03685 0.281891 0)
(1.21362 0.693466 0)
(0.943144 0.727962 0)
(0.948393 0.738086 0)
(0.9816 0.738876 0)
(1.01511 0.756 0)
(1.0444 0.787485 0)
(1.08609 0.822131 0)
(1.14627 0.853532 0)
(1.22649 0.876771 0)
(3 4.81772e-08 0)
(3 3.05486e-07 0)
(3 1.05365e-06 0)
(2.99999 2.98863e-06 0)
(2.99997 7.81932e-06 0)
(2.99994 1.98846e-05 0)
(2.99985 4.90573e-05 0)
(2.99962 0.000122877 0)
(2.99909 0.000298392 0)
(2.99774 0.000749739 0)
(2.99449 0.00181873 0)
(2.9863 0.00458185 0)
(2.96575 0.0113646 0)
(2.91133 0.0294292 0)
(2.75943 0.0795887 0)
(2.3155 0.228831 0)
(1.4543 0.636357 0)
(1.02772 0.741921 0)
(0.99499 0.758871 0)
(1.01685 0.762525 0)
(1.05538 0.769943 0)
(1.08929 0.792989 0)
(1.12875 0.820619 0)
(1.18293 0.845431 0)
(1.25353 0.863262 0)
(3 3.79642e-08 0)
(3 2.46422e-07 0)
(3 8.24453e-07 0)
(2.99999 2.4029e-06 0)
(2.99998 6.12365e-06 0)
(2.99995 1.57671e-05 0)
(2.99989 3.85382e-05 0)
(2.99972 9.60615e-05 0)
(2.99931 0.000235339 0)
(2.99831 0.000576705 0)
(2.99586 0.00142755 0)
(2.98981 0.00349115 0)
(2.97467 0.00869327 0)
(2.93538 0.0219904 0)
(2.8281 0.0580181 0)
(2.51944 0.162548 0)
(1.72718 0.481071 0)
(1.14011 0.748394 0)
(1.04635 0.778434 0)
(1.05526 0.789677 0)
(1.0921 0.789457 0)
(1.13021 0.802359 0)
(1.16807 0.822043 0)
(1.21658 0.840612 0)
(1.27868 0.8537 0)
(3 3.15023e-08 0)
(3 1.86143e-07 0)
(3 6.75551e-07 0)
(2.99999 1.81455e-06 0)
(2.99999 4.97116e-06 0)
(2.99996 1.20311e-05 0)
(2.99991 3.09131e-05 0)
(2.99979 7.3886e-05 0)
(2.99949 0.00018588 0)
(2.99873 0.00044838 0)
(2.99691 0.00110939 0)
(2.99236 0.00271788 0)
(2.98115 0.00669932 0)
(2.95224 0.0168005 0)
(2.87448 0.0434482 0)
(2.65349 0.118828 0)
(2.02305 0.349743 0)
(1.30026 0.760904 0)
(1.0893 0.806168 0)
(1.08617 0.817269 0)
(1.11945 0.813065 0)
(1.16362 0.813437 0)
(1.20263 0.825025 0)
(1.24714 0.838151 0)
(1.30219 0.847215 0)
(3 2.45833e-08 0)
(3 1.47071e-07 0)
(3 5.23272e-07 0)
(3 1.43595e-06 0)
(2.99999 3.86316e-06 0)
(2.99997 9.47493e-06 0)
(2.99994 2.42863e-05 0)
(2.99985 5.78565e-05 0)
(2.99962 0.000147483 0)
(2.99908 0.00034905 0)
(2.99775 0.000890192 0)
(2.99447 0.00211794 0)
(2.98639 0.00538404 0)
(2.96595 0.0131509 0)
(2.91209 0.034175 0)
(2.76272 0.0915399 0)
(2.3256 0.264151 0)
(1.54021 0.69681 0)
(1.16961 0.8171 0)
(1.12991 0.834127 0)
(1.14848 0.835172 0)
(1.19179 0.827285 0)
(1.23454 0.829787 0)
(1.27634 0.837372 0)
(1.32514 0.842826 0)
(3 1.76163e-08 0)
(3 1.14359e-07 0)
(3 3.82819e-07 0)
(3 1.11313e-06 0)
(2.99999 2.8433e-06 0)
(2.99998 7.29314e-06 0)
(2.99995 1.78853e-05 0)
(2.99989 4.43433e-05 0)
(2.99973 0.000108594 0)
(2.99935 0.00026558 0)
(2.99839 0.000656015 0)
(2.9961 0.00159167 0)
(2.99035 0.0039628 0)
(2.97621 0.00969756 0)
(2.93952 0.0246699 0)
(2.84028 0.0646092 0)
(2.55644 0.180826 0)
(1.83511 0.525504 0)
(1.29028 0.810634 0)
(1.18117 0.843855 0)
(1.18273 0.855015 0)
(1.21777 0.846368 0)
(1.26234 0.83899 0)
(1.30366 0.83957 0)
(1.34776 0.841102 0)
(3 1.32631e-08 0)
(3 8.40278e-08 0)
(3 2.89286e-07 0)
(3 8.16447e-07 0)
(2.99999 2.1402e-06 0)
(2.99999 5.37105e-06 0)
(2.99997 1.33577e-05 0)
(2.99992 3.28561e-05 0)
(2.99981 8.04198e-05 0)
(2.99954 0.000198026 0)
(2.99885 0.000481147 0)
(2.99723 0.00119031 0)
(2.99314 0.00289999 0)
(2.98318 0.00719246 0)
(2.95762 0.017904 0)
(2.88971 0.046166 0)
(2.69877 0.125325 0)
(2.15033 0.367301 0)
(1.46307 0.805232 0)
(1.23194 0.865598 0)
(1.21634 0.874095 0)
(1.23885 0.866713 0)
(1.28304 0.852424 0)
(1.32709 0.846057 0)
(1.36894 0.842931 0)
(3 9.69567e-09 0)
(3 6.16387e-08 0)
(3 2.11372e-07 0)
(3 5.99572e-07 0)
(3 1.55896e-06 0)
(2.99999 3.94728e-06 0)
(2.99998 9.69878e-06 0)
(2.99995 2.41037e-05 0)
(2.99987 5.83579e-05 0)
(2.99968 0.000145007 0)
(2.99922 0.000349058 0)
(2.99812 0.000868923 0)
(2.99535 0.00209934 0)
(2.9887 0.00522959 0)
(2.97189 0.0128599 0)
(2.92866 0.0328436 0)
(2.81151 0.0872439 0)
(2.47226 0.249749 0)
(1.74344 0.669978 0)
(1.33338 0.852937 0)
(1.26711 0.876705 0)
(1.2712 0.880701 0)
(1.30664 0.867254 0)
(1.35027 0.854926 0)
(1.38921 0.846675 0)
(3 6.89704e-09 0)
(3 4.33575e-08 0)
(3 1.5015e-07 0)
(3 4.2069e-07 0)
(3 1.10496e-06 0)
(2.99999 2.76501e-06 0)
(2.99998 6.82657e-06 0)
(2.99996 1.68449e-05 0)
(2.99991 4.06732e-05 0)
(2.99978 0.00010067 0)
(2.99946 0.000240884 0)
(2.99869 0.000598591 0)
(2.99678 0.00142904 0)
(2.99215 0.00355764 0)
(2.98059 0.0086045 0)
(2.95123 0.021603 0)
(2.87268 0.0554812 0)
(2.65146 0.151241 0)
(2.04885 0.439457 0)
(1.46488 0.82606 0)
(1.31197 0.881996 0)
(1.3019 0.892364 0)
(1.32638 0.883333 0)
(1.36837 0.864544 0)
(1.4062 0.849858 0)
(3 4.74949e-09 0)
(3 3.16211e-08 0)
(3 1.04516e-07 0)
(3 3.06822e-07 0)
(3 7.71739e-07 0)
(3 2.0056e-06 0)
(2.99999 4.80099e-06 0)
(2.99997 1.2136e-05 0)
(2.99994 2.88772e-05 0)
(2.99985 7.20814e-05 0)
(2.99963 0.000172917 0)
(2.99911 0.00042666 0)
(2.99781 0.00103485 0)
(2.99467 0.0025364 0)
(2.9869 0.00623181 0)
(2.96746 0.0153946 0)
(2.91657 0.0392919 0)
(2.7771 0.104559 0)
(2.37201 0.30092 0)
(1.69493 0.742117 0)
(1.38279 0.88055 0)
(1.33799 0.899283 0)
(1.34732 0.898266 0)
(1.38204 0.877036 0)
(1.41859 0.852218 0)
(3 3.37924e-09 0)
(3 2.17447e-08 0)
(3 7.37488e-08 0)
(3 2.1106e-07 0)
(3 5.43107e-07 0)
(3 1.38274e-06 0)
(2.99999 3.36908e-06 0)
(2.99998 8.38409e-06 0)
(2.99996 2.01881e-05 0)
(2.9999 4.98985e-05 0)
(2.99975 0.000120232 0)
(2.99941 0.000295989 0)
(2.99854 0.000715937 0)
(2.99647 0.00175898 0)
(2.9913 0.00428736 0)
(2.9787 0.0105892 0)
(2.9463 0.0265014 0)
(2.85994 0.0691021 0)
(2.61469 0.191658 0)
(1.99802 0.542693 0)
(1.5038 0.857368 0)
(1.38282 0.903823 0)
(1.37223 0.90728 0)
(1.39106 0.88958 0)
(1.42139 0.855653 0)
(3 2.36364e-09 0)
(3 1.47387e-08 0)
(3 5.1205e-08 0)
(3 1.43138e-07 0)
(3 3.76369e-07 0)
(3 9.40064e-07 0)
(3 2.32763e-06 0)
(2.99999 5.70647e-06 0)
(2.99997 1.38866e-05 0)
(2.99993 3.40274e-05 0)
(2.99984 8.21815e-05 0)
(2.9996 0.000202437 0)
(2.99903 0.000486618 0)
(2.99765 0.00120155 0)
(2.99425 0.0029037 0)
(2.98594 0.00717128 0)
(2.965 0.017688 0)
(2.91035 0.0450698 0)
(2.75986 0.120593 0)
(2.3292 0.348596 0)
(1.70579 0.783369 0)
(1.4402 0.900957 0)
(1.39811 0.910043 0)
(1.40037 0.893416 0)
(1.41451 0.854787 0)
(3 1.56181e-09 0)
(3 1.02065e-08 0)
(3 3.41317e-08 0)
(3 9.90283e-08 0)
(3 2.5146e-07 0)
(3 6.46685e-07 0)
(3 1.55956e-06 0)
(2.99999 3.9017e-06 0)
(2.99998 9.34085e-06 0)
(2.99996 2.31005e-05 0)
(2.99989 5.56243e-05 0)
(2.99974 0.000136341 0)
(2.99937 0.000330486 0)
(2.99849 0.000805873 0)
(2.99627 0.00196794 0)
(2.991 0.00479409 0)
(2.97775 0.0118326 0)
(2.94422 0.0295841 0)
(2.85489 0.077254 0)
(2.59982 0.215873 0)
(1.99701 0.589129 0)
(1.54826 0.873189 0)
(1.43031 0.908611 0)
(1.40829 0.885531 0)
(1.40413 0.83711 0)
(3 1.06288e-09 0)
(3 6.6399e-09 0)
(3 2.30392e-08 0)
(3 6.43004e-08 0)
(3 1.69183e-07 0)
(3 4.20209e-07 0)
(3 1.04245e-06 0)
(3 2.54517e-06 0)
(2.99999 6.18491e-06 0)
(2.99997 1.51384e-05 0)
(2.99993 3.6409e-05 0)
(2.99983 8.96225e-05 0)
(2.99959 0.000213925 0)
(2.99901 0.000530259 0)
(2.99758 0.00126088 0)
(2.99416 0.00313485 0)
(2.98561 0.00754792 0)
(2.96439 0.0188088 0)
(2.90885 0.0476285 0)
(2.75649 0.127436 0)
(2.3272 0.366477 0)
(1.73197 0.788874 0)
(1.46471 0.894537 0)
(1.40158 0.868087 0)
(1.37648 0.796258 0)
(3 6.85595e-10 0)
(3 4.3469e-09 0)
(3 1.4986e-08 0)
(3 4.20754e-08 0)
(3 1.0987e-07 0)
(3 2.7482e-07 0)
(3 6.74553e-07 0)
(3 1.66255e-06 0)
(2.99999 3.98082e-06 0)
(2.99998 9.89671e-06 0)
(2.99996 2.33306e-05 0)
(2.99989 5.84468e-05 0)
(2.99974 0.000136932 0)
(2.99936 0.000344143 0)
(2.99844 0.000806573 0)
(2.99624 0.00202335 0)
(2.99079 0.00480248 0)
(2.97745 0.0120057 0)
(2.94336 0.0296625 0)
(2.85277 0.0776618 0)
(2.59576 0.216603 0)
(2.00145 0.581424 0)
(1.53549 0.851086 0)
(1.37907 0.842723 0)
(1.32204 0.73364 0)
(3 4.48383e-10 0)
(3 2.66382e-09 0)
(3 9.5315e-09 0)
(3 2.58049e-08 0)
(3 6.96192e-08 0)
(3 1.67852e-07 0)
(3 4.28397e-07 0)
(3 1.00537e-06 0)
(2.99999 2.53021e-06 0)
(2.99999 5.9302e-06 0)
(2.99997 1.4783e-05 0)
(2.99993 3.48677e-05 0)
(2.99983 8.593e-05 0)
(2.99957 0.00020504 0)
(2.99898 0.000499308 0)
(2.99748 0.00120583 0)
(2.99392 0.00291298 0)
(2.98505 0.00713066 0)
(2.96297 0.0174456 0)
(2.90517 0.0443529 0)
(2.74701 0.118295 0)
(2.30914 0.340193 0)
(1.66882 0.727909 0)
(1.3318 0.782537 0)
(1.22918 0.645862 0)
(3 2.58165e-10 0)
(3 1.65426e-09 0)
(3 5.56133e-09 0)
(3 1.59602e-08 0)
(3 4.063e-08 0)
(3 1.02783e-07 0)
(3 2.49447e-07 0)
(3 6.08987e-07 0)
(3 1.4772e-06 0)
(2.99999 3.5296e-06 0)
(2.99998 8.64538e-06 0)
(2.99995 2.03745e-05 0)
(2.99988 5.03874e-05 0)
(2.9997 0.000117515 0)
(2.99928 0.000292281 0)
(2.99825 0.000680128 0)
(2.99573 0.00169156 0)
(2.98954 0.00396679 0)
(2.97415 0.00984415 0)
(2.93454 0.0240894 0)
(2.82774 0.0626728 0)
(2.52765 0.174203 0)
(1.84026 0.469046 0)
(1.26084 0.646497 0)
(1.09708 0.525972 0)
(3 1.44951e-10 0)
(3 9.58475e-10 0)
(3 3.19534e-09 0)
(3 9.21567e-09 0)
(3 2.3245e-08 0)
(3 5.94399e-08 0)
(3 1.40369e-07 0)
(3 3.53427e-07 0)
(3 8.13024e-07 0)
(2.99999 2.05425e-06 0)
(2.99998 4.66737e-06 0)
(2.99996 1.18061e-05 0)
(2.99991 2.67938e-05 0)
(2.99977 6.73966e-05 0)
(2.99944 0.000153655 0)
(2.99865 0.000382404 0)
(2.99666 0.000882511 0)
(2.99183 0.00216216 0)
(2.97966 0.00509399 0)
(2.94845 0.0125264 0)
(2.86398 0.0312163 0)
(2.62418 0.0828027 0)
(1.97419 0.235357 0)
(1.16003 0.474684 0)
(0.908408 0.396766 0)
(3 8.72493e-11 0)
(3 4.98988e-10 0)
(3 1.84829e-09 0)
(3 4.80248e-09 0)
(3 1.33125e-08 0)
(3 3.1075e-08 0)
(3 7.97369e-08 0)
(3 1.84284e-07 0)
(3 4.55548e-07 0)
(2.99999 1.07282e-06 0)
(2.99999 2.56361e-06 0)
(2.99997 6.19993e-06 0)
(2.99992 1.43542e-05 0)
(2.99981 3.57046e-05 0)
(2.99954 8.03454e-05 0)
(2.99886 0.00020452 0)
(2.99721 0.000452044 0)
(2.99304 0.00116401 0)
(2.98276 0.00261278 0)
(2.95604 0.00661627 0)
(2.88393 0.0160719 0)
(2.67671 0.0424375 0)
(2.07706 0.117296 0)
(1.07103 0.296391 0)
(0.688763 0.272283 0)
(3 4.61868e-11 0)
(3 2.70211e-10 0)
(3 9.67086e-10 0)
(3 2.59111e-09 0)
(3 6.99061e-09 0)
(3 1.63905e-08 0)
(3 4.23209e-08 0)
(3 9.41981e-08 0)
(3 2.44718e-07 0)
(3 5.28942e-07 0)
(2.99999 1.39213e-06 0)
(2.99997 2.96684e-06 0)
(2.99993 7.794e-06 0)
(2.99983 1.67835e-05 0)
(2.99958 4.32884e-05 0)
(2.99896 9.54836e-05 0)
(2.99746 0.000239173 0)
(2.99363 0.000550946 0)
(2.98419 0.00134258 0)
(2.95958 0.00321279 0)
(2.89306 0.00805319 0)
(2.70042 0.0208983 0)
(2.1244 0.0572907 0)
(1.00221 0.154325 0)
(0.49194 0.170322 0)
(3 2.38117e-11 0)
(3 1.52298e-10 0)
(3 5.13823e-10 0)
(3 1.4585e-09 0)
(3 3.72961e-09 0)
(3 9.22938e-09 0)
(3 2.25251e-08 0)
(3 5.3407e-08 0)
(3 1.30411e-07 0)
(3 3.00902e-07 0)
(2.99999 7.47298e-07 0)
(2.99997 1.69897e-06 0)
(2.99994 4.21335e-06 0)
(2.99984 9.66693e-06 0)
(2.99961 2.36312e-05 0)
(2.99902 5.50451e-05 0)
(2.99759 0.000133018 0)
(2.99396 0.000318049 0)
(2.98497 0.000773008 0)
(2.96162 0.00189953 0)
(2.89843 0.00487036 0)
(2.71575 0.0130815 0)
(2.16258 0.0377889 0)
(0.994583 0.107149 0)
(0.388704 0.133142 0)
(3 1.3135e-11 0)
(3 9.89145e-11 0)
(3 2.7918e-10 0)
(3 9.55246e-10 0)
(3 2.03875e-09 0)
(3 5.9684e-09 0)
(3 1.27493e-08 0)
(3 3.3503e-08 0)
(3 7.81783e-08 0)
(3 1.8233e-07 0)
(2.99999 4.70062e-07 0)
(2.99997 9.93726e-07 0)
(2.99994 2.83633e-06 0)
(2.99985 5.49126e-06 0)
(2.99962 1.7043e-05 0)
(2.99905 3.12697e-05 0)
(2.99768 0.000103225 0)
(2.99417 0.000187537 0)
(2.9855 0.000602828 0)
(2.963 0.00127262 0)
(2.90236 0.00365932 0)
(2.72777 0.00971332 0)
(2.20083 0.0293069 0)
(1.02509 0.0887975 0)
(0.374623 0.124519 0)
(3 9.66505e-12 0)
(3 5.98381e-11 0)
(3 2.08625e-10 0)
(3 5.79936e-10 0)
(3 1.53344e-09 0)
(3 3.72563e-09 0)
(3 9.43229e-09 0)
(3 2.22371e-08 0)
(3 5.58687e-08 0)
(3 1.30182e-07 0)
(2.99999 3.31297e-07 0)
(2.99998 7.74512e-07 0)
(2.99994 1.95912e-06 0)
(2.99985 4.67324e-06 0)
(2.99963 1.18129e-05 0)
(2.99909 2.84962e-05 0)
(2.99772 7.19675e-05 0)
(2.99438 0.000176851 0)
(2.98587 0.000445122 0)
(2.96417 0.00113032 0)
(2.9055 0.00296986 0)
(2.73734 0.00823784 0)
(2.23158 0.0244662 0)
(1.06555 0.0748304 0)
(0.393842 0.119984 0)
(3 7.22367e-12 0)
(3 4.42345e-11 0)
(3 1.76104e-10 0)
(3 4.19121e-10 0)
(3 1.29319e-09 0)
(3 2.84275e-09 0)
(3 7.21595e-09 0)
(3 1.91438e-08 0)
(3 3.77775e-08 0)
(3 1.26401e-07 0)
(2.99999 2.03953e-07 0)
(2.99998 8.15606e-07 0)
(2.99994 1.12505e-06 0)
(2.99985 5.17422e-06 0)
(2.99964 6.68746e-06 0)
(2.9991 3.18219e-05 0)
(2.9978 4.29046e-05 0)
(2.99448 0.000190655 0)
(2.9863 0.00031657 0)
(2.96511 0.00109946 0)
(2.90832 0.00250607 0)
(2.74591 0.00745085 0)
(2.25866 0.0217856 0)
(1.10779 0.066759 0)
(0.421705 0.11335 0)
(3 5.99838e-12 0)
(3 3.95185e-11 0)
(3 1.30779e-10 0)
(3 3.74752e-10 0)
(3 9.79529e-10 0)
(3 2.3875e-09 0)
(3 6.05318e-09 0)
(3 1.44629e-08 0)
(3 3.60057e-08 0)
(3 8.73362e-08 0)
(2.99999 2.19415e-07 0)
(2.99998 5.29264e-07 0)
(2.99994 1.35147e-06 0)
(2.99986 3.28997e-06 0)
(2.99965 8.44256e-06 0)
(2.99912 2.08647e-05 0)
(2.99785 5.33449e-05 0)
(2.9946 0.000134662 0)
(2.98663 0.000341968 0)
(2.966 0.000886023 0)
(2.91085 0.00234501 0)
(2.75363 0.00658065 0)
(2.28325 0.0195606 0)
(1.14839 0.0599247 0)
(0.450878 0.10479 0)
(3 1.02676e-12 0)
(3 3.61744e-11 0)
(3 3.98635e-11 0)
(3 3.56789e-10 0)
(3 3.18976e-10 0)
(3 2.25567e-09 0)
(3 2.33131e-09 0)
(3 1.31579e-08 0)
(3 1.73071e-08 0)
(3 7.60393e-08 0)
(2.99999 1.29267e-07 0)
(2.99998 4.26605e-07 0)
(2.99994 9.96415e-07 0)
(2.99986 2.45318e-06 0)
(2.99966 7.20745e-06 0)
(2.99914 1.47155e-05 0)
(2.9979 5.09385e-05 0)
(2.99472 9.52641e-05 0)
(2.98693 0.000330641 0)
(2.96678 0.000712784 0)
(2.91311 0.00212224 0)
(2.76052 0.00574056 0)
(2.3053 0.017318 0)
(1.18636 0.052933 0)
(0.479808 0.0950544 0)
(3 1.79964e-13 0)
(3 2.75327e-11 0)
(3 1.34297e-11 0)
(3 2.81342e-10 0)
(3 1.21557e-10 0)
(3 1.69342e-09 0)
(3 1.52201e-09 0)
(3 9.23506e-09 0)
(3 1.3974e-08 0)
(3 5.08837e-08 0)
(2.99999 1.16344e-07 0)
(2.99998 2.58281e-07 0)
(2.99994 9.68322e-07 0)
(2.99986 1.37253e-06 0)
(2.99966 7.18906e-06 0)
(2.99916 8.22614e-06 0)
(2.99792 5.08143e-05 0)
(2.99484 6.03488e-05 0)
(2.98715 0.000315084 0)
(2.96749 0.000560207 0)
(2.91512 0.00188915 0)
(2.76647 0.00492518 0)
(2.32485 0.0150045 0)
(1.22129 0.0456291 0)
(0.508322 0.0840107 0)
(3 1.59245e-12 0)
(3 8.20745e-12 0)
(3 3.90553e-11 0)
(3 8.61665e-11 0)
(3 3.08688e-10 0)
(3 6.77701e-10 0)
(3 2.142e-09 0)
(3 4.8784e-09 0)
(3 1.40023e-08 0)
(3 3.57704e-08 0)
(2.99999 9.24257e-08 0)
(2.99998 2.65932e-07 0)
(2.99994 6.38738e-07 0)
(2.99986 1.82977e-06 0)
(2.99966 4.47816e-06 0)
(2.99917 1.29573e-05 0)
(2.99794 3.02684e-05 0)
(2.99494 8.8025e-05 0)
(2.98734 0.00020908 0)
(2.9681 0.000578598 0)
(2.91682 0.00151375 0)
(2.77164 0.00430492 0)
(2.34128 0.0126563 0)
(1.25239 0.0381455 0)
(0.534365 0.0714534 0)
(3 2.02428e-12 0)
(3 1.4037e-12 0)
(3 4.90043e-11 0)
(3 1.20225e-11 0)
(3 3.85944e-10 0)
(3 3.176e-10 0)
(3 2.05344e-09 0)
(3 3.95807e-09 0)
(3 1.04753e-08 0)
(3 3.68333e-08 0)
(2.99999 5.9252e-08 0)
(2.99998 3.06746e-07 0)
(2.99995 3.26665e-07 0)
(2.99987 2.29386e-06 0)
(2.99967 2.17118e-06 0)
(2.99918 1.57885e-05 0)
(2.99798 1.5227e-05 0)
(2.99499 0.000100247 0)
(2.98756 0.00013143 0)
(2.96858 0.000559197 0)
(2.91827 0.00119108 0)
(2.77598 0.00366409 0)
(2.35476 0.0103808 0)
(1.27895 0.0307023 0)
(0.556772 0.0579618 0)
(3 8.02515e-13 0)
(3 6.70733e-12 0)
(3 1.53294e-11 0)
(3 7.04187e-11 0)
(3 1.22887e-10 0)
(3 4.82994e-10 0)
(3 1.01957e-09 0)
(3 3.3425e-09 0)
(3 8.98765e-09 0)
(3 2.08858e-08 0)
(2.99999 7.4237e-08 0)
(2.99998 1.3081e-07 0)
(2.99995 5.38208e-07 0)
(2.99987 9.08779e-07 0)
(2.99967 3.81862e-06 0)
(2.99919 6.00324e-06 0)
(2.99801 2.64319e-05 0)
(2.99503 4.45118e-05 0)
(2.98773 0.000170145 0)
(2.96899 0.000348105 0)
(2.91944 0.00106876 0)
(2.77948 0.00281622 0)
(2.36522 0.0081946 0)
(1.30024 0.0235308 0)
(0.574336 0.0444257 0)
(3 1.84841e-12 0)
(3 -3.2081e-12 0)
(3 6.85095e-12 0)
(3 -1.69133e-11 0)
(3 4.88215e-11 0)
(3 -1.60189e-10 0)
(3 1.13459e-09 0)
(3 -2.11715e-09 0)
(3 1.34523e-08 0)
(3 -1.73808e-08 0)
(2.99999 1.11103e-07 0)
(2.99998 -9.93625e-08 0)
(2.99995 7.91736e-07 0)
(2.99987 -4.37426e-07 0)
(2.99967 5.0358e-06 0)
(2.9992 -6.28539e-07 0)
(2.99801 2.94809e-05 0)
(2.99511 1.14287e-05 0)
(2.98781 0.000159756 0)
(2.96933 0.000195301 0)
(2.92034 0.000845355 0)
(2.78203 0.00197902 0)
(2.37311 0.00590517 0)
(1.31635 0.016696 0)
(0.58793 0.0314562 0)
(3 3.90409e-12 0)
(3 -1.65627e-11 0)
(3 5.1124e-11 0)
(3 -1.52136e-10 0)
(3 3.69519e-10 0)
(3 -8.37762e-10 0)
(3 2.36641e-09 0)
(3 -4.3663e-09 0)
(3 1.36454e-08 0)
(3 -1.74307e-08 0)
(2.99999 7.37492e-08 0)
(2.99998 -3.13342e-08 0)
(2.99995 3.52284e-07 0)
(2.99987 2.89489e-07 0)
(2.99967 1.48095e-06 0)
(2.99921 4.4921e-06 0)
(2.99802 4.71591e-06 0)
(2.99514 3.8292e-05 0)
(2.98788 2.80012e-05 0)
(2.96957 0.000211795 0)
(2.9209 0.000370822 0)
(2.78385 0.00126426 0)
(2.37807 0.00340991 0)
(1.32726 0.00989594 0)
(0.597374 0.0187863 0)
(3 8.92654e-13 0)
(3 -7.38595e-12 0)
(3 2.34925e-11 0)
(3 -7.21652e-11 0)
(3 1.76477e-10 0)
(3 -2.94567e-10 0)
(3 7.30935e-10 0)
(3 -3.2319e-10 0)
(3 1.13693e-09 0)
(3 6.57071e-09 0)
(2.99999 -8.72766e-09 0)
(2.99998 8.41794e-08 0)
(2.99995 -1.41099e-07 0)
(2.99987 7.22287e-07 0)
(2.99968 -1.1406e-06 0)
(2.9992 5.07326e-06 0)
(2.99804 -7.544e-06 0)
(2.99513 3.11335e-05 0)
(2.98795 -2.76579e-05 0)
(2.96963 0.000120645 0)
(2.92118 4.77388e-05 0)
(2.78474 0.000459284 0)
(2.38045 0.0010675 0)
(1.33221 0.00323978 0)
(0.601783 0.00626733 0)
(1.1193 0.999719 0)
(1.00453 0.710944 0)
(0.0935667 0.429492 0)
(-0.422463 0.023995 0)
(-0.546426 -0.00852906 0)
(-0.692859 -0.023158 0)
(-0.749419 -0.010894 0)
(-0.800701 0.0123073 0)
(-0.86821 0.0189576 0)
(-0.933297 0.0157195 0)
(-0.986235 0.00817807 0)
(-1.03234 0.00144426 0)
(-1.07992 -0.00191426 0)
(-1.12137 0.00047995 0)
(-1.14351 0.00137728 0)
(-1.14862 -0.000106165 0)
(-1.14383 -0.00280311 0)
(-1.12529 -0.00575907 0)
(-1.09023 -0.00888075 0)
(-1.04152 -0.0118449 0)
(-0.98344 -0.0141683 0)
(-0.920434 -0.0155784 0)
(-0.855659 -0.0163818 0)
(-0.79142 -0.0166328 0)
(-0.728982 -0.0165401 0)
(-0.6687 -0.016241 0)
(-0.610455 -0.0159491 0)
(-0.553847 -0.0157471 0)
(-0.498486 -0.0157746 0)
(-0.444212 -0.0159914 0)
(-0.39019 -0.016779 0)
(-0.33593 -0.0182616 0)
(-0.282639 -0.0193076 0)
(-0.230666 -0.0199835 0)
(-0.180166 -0.0207774 0)
(-0.130744 -0.0215165 0)
(-0.0821477 -0.0223325 0)
(-0.0353809 -0.0236476 0)
(0.0144221 -0.0252382 0)
(0.0638915 -0.0238677 0)
(0.108291 -0.0221314 0)
(0.151814 -0.0210333 0)
(0.193835 -0.0203188 0)
(0.23395 -0.0194447 0)
(0.271514 -0.0185465 0)
(0.308051 -0.0181294 0)
(0.346198 -0.018339 0)
(0.384209 -0.0180428 0)
(0.420604 -0.0173228 0)
(0.455654 -0.0166466 0)
(0.489741 -0.0161323 0)
(0.522964 -0.0156561 0)
(0.555427 -0.0151934 0)
(0.587138 -0.0147489 0)
(0.618113 -0.0143075 0)
(0.648407 -0.0138726 0)
(0.678036 -0.013451 0)
(0.707029 -0.0130301 0)
(0.735414 -0.0126208 0)
(0.763199 -0.0122136 0)
(0.790418 -0.0118124 0)
(0.817092 -0.011417 0)
(0.843238 -0.0110262 0)
(0.868878 -0.0106419 0)
(0.894037 -0.010258 0)
(0.918736 -0.00988366 0)
(0.942988 -0.00950598 0)
(0.966822 -0.00913495 0)
(0.990242 -0.00876036 0)
(1.01327 -0.00838734 0)
(1.03592 -0.00801102 0)
(1.0582 -0.00763355 0)
(1.08011 -0.00725297 0)
(1.10166 -0.00687188 0)
(1.12285 -0.00648948 0)
(1.14369 -0.00610884 0)
(1.16418 -0.00573029 0)
(1.18433 -0.00535688 0)
(1.20414 -0.00498976 0)
(1.22361 -0.0046315 0)
(1.24276 -0.00428197 0)
(1.26159 -0.00394374 0)
(1.2801 -0.00361427 0)
(1.29831 -0.00329628 0)
(1.31621 -0.00298815 0)
(1.3338 -0.00268766 0)
(1.35109 -0.00240276 0)
(1.36808 -0.00212902 0)
(1.38475 -0.00185901 0)
(1.40109 -0.0015871 0)
(1.41709 -0.00132613 0)
(1.43271 -0.00107702 0)
(1.44789 -0.000858732 0)
(1.46257 -0.000633965 0)
(1.47665 -0.000393659 0)
(1.48991 -0.000124149 0)