/*--------------------------------*- C++ -*----------------------------------*\
  =========                 |
  \\      /  F ield         | OpenFOAM: The Open Source CFD Toolbox
   \\    /   O peration     | Website:  https://openfoam.org
    \\  /    A nd           | Version:  13
     \\/     M anipulation  |
\*---------------------------------------------------------------------------*/
FoamFile
{
    format      ascii;
    class       surfaceScalarField;
    location    "6";
    object      phi;
}
// * * * * * * * * * * * * * * * * * * * * * * * * * * * * * * * * * * * * * //

dimensions      [1 0 -1 0 0 0 0];

internalField   nonuniform List<scalar> 
10325
(
0.00840003
9.85316e-11
0.00840004
4.06787e-10
0.00840003
1.93137e-09
0.0084
4.26166e-09
0.0084
1.34154e-08
0.00839997
3.17231e-08
0.00839948
8.48441e-08
0.0084002
2.12301e-07
0.00839712
5.12574e-07
0.00839945
1.35031e-06
0.00839129
3.39118e-06
0.00838327
9.74455e-06
0.0083462
3.08369e-05
0.00822459
0.000116553
0.00760194
0.000593495
0.00695433
0.000655388
0.00632988
0.000627231
0.00568089
0.000649245
0.00500131
0.000680058
0.00428426
0.000718248
0.00351931
0.000766545
0.00270608
0.000814858
0.00184944
0.000858014
0.000948882
0.000901501
0.000949553
0.00840003
1.43088e-10
0.00840003
1.1813e-09
0.00840005
3.20498e-09
0.00839998
1.14722e-08
0.00840003
2.49037e-08
0.00839993
7.11469e-08
0.00839953
1.68632e-07
0.00840009
4.16167e-07
0.00839729
1.10035e-06
0.00839888
2.59164e-06
0.00839173
7.19117e-06
0.00838196
1.95312e-05
0.00834461
6.32722e-05
0.00822119
0.000234372
0.00760364
0.00118156
0.00694278
0.00132429
0.00632624
0.00124659
0.00568672
0.00128903
0.00501222
0.00135505
0.00428869
0.001443
0.00351588
0.00154099
0.00269525
0.00163715
0.00182803
0.00172665
0.00092193
0.00180859
0.00187221
0.00840003
4.25713e-10
0.00840005
1.05256e-09
0.00839998
7.71247e-09
0.00840012
1.00516e-08
0.00839972
5.45193e-08
0.00840068
7.19518e-08
0.00839807
3.30662e-07
0.00840377
4.88272e-07
0.00839079
1.89218e-06
0.00840993
3.58375e-06
0.00837924
1.10983e-05
0.00839381
2.89742e-05
0.00834048
9.39537e-05
0.0082316
0.000345648
0.00765499
0.0017264
0.00698442
0.00200321
0.00636951
0.00186442
0.00573749
0.00192138
0.00506925
0.00202383
0.00434716
0.00216646
0.00356996
0.00231999
0.00274084
0.00246779
0.00186013
0.0026088
0.00093693
0.00273298
0.00280995
0.00840003
3.02868e-10
0.00840001
2.22589e-09
0.00840008
6.54442e-09
0.0083999
2.13908e-08
0.00840034
5.09698e-08
0.00839912
1.34139e-07
0.00840198
3.41785e-07
0.00839518
8.07594e-07
0.00840828
2.1629e-06
0.00838341
5.09057e-06
0.00841066
1.39202e-05
0.00836938
3.79689e-05
0.00836227
0.000120774
0.00824961
0.000439802
0.00776515
0.00218149
0.00708842
0.00268936
0.00646992
0.00248623
0.00584287
0.00254871
0.00518185
0.00268537
0.004462
0.00288728
0.00368348
0.00309997
0.00284616
0.00330716
0.00194461
0.00351213
0.00098515
0.00369344
0.00379593
0.00840003
2.86311e-10
0.00840004
2.70156e-09
0.0084
7.08091e-09
0.00840008
2.69698e-08
0.00839993
5.26406e-08
0.00839999
1.83174e-07
0.00839992
3.28966e-07
0.00839909
1.13719e-06
0.00839981
2.12949e-06
0.00839697
6.74377e-06
0.00839475
1.53437e-05
0.00838761
4.57615e-05
0.00836493
0.000139269
0.00829057
0.000506313
0.00796675
0.00247306
0.007281
0.00338461
0.00664381
0.00312683
0.00601391
0.00317934
0.00535905
0.00334125
0.00464568
0.00360277
0.00386366
0.00388435
0.00301156
0.00416162
0.00208017
0.00444526
0.0010672
0.00470803
0.00486453
0.00840003
5.22417e-10
0.00840004
2.17008e-09
0.00839999
1.02369e-08
0.00840011
2.1069e-08
0.00839978
7.549e-08
0.00840064
1.41427e-07
0.00839836
4.78101e-07
0.00840377
9.01562e-07
0.00839167
2.90467e-06
0.00841268
6.10277e-06
0.00837993
1.79589e-05
0.00840927
4.68196e-05
0.00837157
0.000148141
0.00835986
0.000524912
0.0083098
0.00248768
0.00761462
0.00408843
0.00692501
0.00382034
0.00627954
0.00382568
0.00562424
0.00399734
0.00491119
0.00431708
0.00412555
0.00467161
0.00325484
0.00503428
0.00228376
0.00541834
0.00119344
0.00580008
0.00605955
0.00840003
3.76881e-10
0.00840003
2.43072e-09
0.00840003
8.25751e-09
0.00840003
2.37214e-08
0.00840004
6.16843e-08
0.00839987
1.58197e-07
0.00840046
3.92217e-07
0.00839853
9.87149e-07
0.00840298
2.44284e-06
0.00839511
6.18913e-06
0.008407
1.58742e-05
0.00839881
4.33778e-05
0.00842186
0.000130768
0.00848227
0.000453497
0.0089173
0.00202217
0.00821122
0.00480079
0.00737159
0.00466362
0.00668631
0.0045125
0.00601626
0.00466901
0.00529568
0.00503937
0.00449429
0.0054753
0.00359858
0.0059323
0.00257864
0.00644068
0.00139178
0.00698866
0.0074528
0.00840003
2.59273e-10
0.00840003
2.53495e-09
0.00840003
6.48027e-09
0.00840003
2.48467e-08
0.00840005
4.87427e-08
0.00839987
1.62943e-07
0.00840053
3.08681e-07
0.00839856
9.91503e-07
0.00840343
1.9509e-06
0.00839517
5.8575e-06
0.00840965
1.3173e-05
0.00840139
3.76887e-05
0.0084336
0.000107542
0.00851279
0.000362719
0.00896697
0.00155427
0.00853332
0.0052267
0.00769002
0.00550433
0.00707219
0.00513071
0.00642146
0.00532075
0.00572852
0.00573397
0.00494201
0.00626406
0.00403977
0.00683691
0.00299016
0.00749243
0.00170431
0.0082763
0.0091588
0.00840003
3.65667e-10
0.00840004
1.95604e-09
0.0084
7.75287e-09
0.00840009
1.90771e-08
0.00839985
5.66296e-08
0.00840049
1.30103e-07
0.00839888
3.44327e-07
0.00840291
8.30582e-07
0.00839425
2.05328e-06
0.00841113
5.18852e-06
0.00838606
1.28595e-05
0.0084177
3.46027e-05
0.00839914
9.93626e-05
0.00844392
0.000328966
0.00862267
0.00135887
0.00835738
0.00547329
0.0079619
0.0058898
0.00736264
0.00573163
0.0067368
0.00594707
0.00613426
0.00633718
0.00541839
0.00698117
0.00458754
0.00766967
0.00359544
0.0084866
0.00222643
0.00964727
0.0113868
0.00840003
3.31341e-10
0.00840003
2.10179e-09
0.00840006
7.03816e-09
0.00839998
2.02403e-08
0.00840014
5.33598e-08
0.00839983
1.29226e-07
0.00840023
3.51901e-07
0.00839968
7.68573e-07
0.00839989
2.2062e-06
0.00839952
4.74976e-06
0.0084001
1.34714e-05
0.00839782
3.31023e-05
0.00840195
9.807e-05
0.00841228
0.000315149
0.00851366
0.00124721
0.00833343
0.00563098
0.00799094
0.00622964
0.00752068
0.00620257
0.00704442
0.00642443
0.00652245
0.00686076
0.00595566
0.0075496
0.00529544
0.00833162
0.00440025
0.00938358
0.00309925
0.01095
0.0144873
0.00840003
3.59306e-10
0.00840004
1.9664e-09
0.0084
7.6483e-09
0.0084001
1.95197e-08
0.00839988
5.56748e-08
0.0084004
1.34814e-07
0.00839926
3.38241e-07
0.00840163
8.62266e-07
0.00839663
2.01651e-06
0.00840544
5.39224e-06
0.00839047
1.27417e-05
0.00840818
3.4886e-05
0.00838804
9.63892e-05
0.00840243
0.000312146
0.00845852
0.00117708
0.00844754
0.0056192
0.008062
0.00661623
0.00766964
0.00659667
0.0073286
0.00676577
0.00693649
0.00725281
0.00655912
0.00792719
0.00611154
0.00877987
0.00568154
0.00981469
0.0056257
0.011007
0.0114372
0.00867672
0.00840003
3.09893e-10
0.00840002
2.23905e-09
0.00840006
6.84556e-09
0.00839997
2.18061e-08
0.00840019
5.1784e-08
0.00839969
1.41419e-07
0.00840083
3.38426e-07
0.00839833
8.50781e-07
0.00840339
2.14352e-06
0.00839362
5.16197e-06
0.00840872
1.35147e-05
0.00838653
3.42293e-05
0.00840822
9.70652e-05
0.00839679
0.000303354
0.00846121
0.00111356
0.0087364
0.00531532
0.00832729
0.00702794
0.00792287
0.00700298
0.00760263
0.00708794
0.00732066
0.00753636
0.00705636
0.0081931
0.00684371
0.00899404
0.00678431
0.00987572
0.00719477
0.0105983
0.0104828
0.00814923
0.00840003
3.54287e-10
0.00840004
1.87782e-09
0.00840001
7.43359e-09
0.0084001
1.83445e-08
0.0083999
5.48595e-08
0.00840039
1.2429e-07
0.00839932
3.42617e-07
0.00840187
7.90154e-07
0.00839647
2.07766e-06
0.00840734
5.00944e-06
0.00838944
1.29101e-05
0.00841499
3.31454e-05
0.00839133
9.17093e-05
0.00843219
0.000281795
0.00852667
0.00100172
0.00932818
0.00448712
0.00884483
0.00751611
0.00833321
0.00751854
0.00799077
0.00743275
0.00775165
0.00777685
0.00758252
0.00836337
0.00754242
0.00903558
0.00774163
0.00967719
0.00823832
0.0101027
0.0099081
0.00881409
0.00840003
2.58162e-10
0.00840003
1.73541e-09
0.00840004
5.74694e-09
0.00840001
1.69019e-08
0.00840011
4.27341e-08
0.00839986
1.12398e-07
0.00840062
2.69689e-07
0.00839891
6.95096e-07
0.00840375
1.65179e-06
0.00839476
4.25164e-06
0.00841543
1.02732e-05
0.00839373
2.67341e-05
0.00844509
7.0644e-05
0.00848864
0.000208425
0.00880151
0.00069802
0.0103488
0.00290298
0.00966841
0.00820025
0.00908292
0.00810802
0.00857001
0.00794927
0.00827858
0.00807009
0.00815629
0.00848687
0.00819675
0.00899669
0.00843021
0.00944494
0.00886016
0.0096733
0.00944345
0.00932477
0.00840003
2.0007e-10
0.00840003
1.53664e-09
0.00840005
4.53185e-09
0.0084
1.5013e-08
0.00840013
3.38602e-08
0.00839984
9.77605e-08
0.00840067
2.14786e-07
0.00839896
5.93868e-07
0.00840356
1.33113e-06
0.00839516
3.554e-06
0.00841415
8.29985e-06
0.00839187
2.17575e-05
0.00843882
5.57383e-05
0.00845524
0.000159974
0.0086505
0.000516741
0.00949729
0.00203908
0.00991948
0.00776794
0.00957808
0.00844948
0.00905646
0.00847201
0.00878901
0.00833867
0.00869108
0.00858638
0.00874479
0.0089438
0.00895616
0.00923483
0.00930687
0.009324
0.00906625
0.00968486
0.00840003
2.22952e-10
0.00840003
1.14932e-09
0.00840003
4.58919e-09
0.00840004
1.12794e-08
0.00840001
3.38838e-08
0.00840013
7.50407e-08
0.00839978
2.13163e-07
0.00840091
4.61156e-07
0.00839835
1.29261e-06
0.00840528
2.82804e-06
0.00839268
7.79026e-06
0.00841791
1.81278e-05
0.0083958
4.92917e-05
0.00844689
0.000134472
0.00851147
0.000427641
0.0089618
0.00159141
0.00985746
0.00684439
0.00970635
0.00859818
0.00945653
0.00872108
0.00920358
0.00859305
0.00912847
0.00866298
0.00919392
0.00888006
0.00937613
0.00905318
0.00965274
0.00904793
0.00877281
0.0099468
0.00840003
1.54244e-10
0.00840003
1.15151e-09
0.00840003
3.51716e-09
0.00840003
1.1155e-08
0.00840004
2.63737e-08
0.00840002
7.34548e-08
0.00840015
1.67293e-07
0.00839973
4.52866e-07
0.00840123
1.03298e-06
0.00839793
2.7449e-06
0.0084062
6.45521e-06
0.00839515
1.68477e-05
0.00841751
4.25257e-05
0.00841627
0.000117896
0.00849507
0.000359547
0.00879004
0.00128199
0.0101485
0.00546018
0.0100659
0.00868288
0.00981243
0.0089765
0.00957405
0.00883342
0.00950294
0.00873562
0.00956085
0.0088234
0.00971217
0.00890281
0.00992643
0.00883397
0.00855123
0.0101479
0.00840003
1.44087e-10
0.00840003
8.43703e-10
0.00840003
3.10781e-09
0.00840005
8.27874e-09
0.0084
2.29094e-08
0.00840017
5.55609e-08
0.00839983
1.42286e-07
0.00840081
3.47354e-07
0.00839901
8.52592e-07
0.00840417
2.15226e-06
0.00839582
5.13873e-06
0.00841643
1.32972e-05
0.00840018
3.26911e-05
0.00845772
8.85762e-05
0.00853294
0.000255712
0.00896911
0.000854259
0.0109969
0.0033984
0.0106668
0.00901092
0.0104661
0.00918118
0.0101209
0.00918258
0.00992686
0.00893197
0.00991451
0.00883745
0.0100133
0.00880511
0.0101665
0.00868124
0.00839159
0.0103261
0.00840003
1.1458e-10
0.00840003
6.84774e-10
0.00840004
2.42031e-09
0.00840002
6.66322e-09
0.00840007
1.80035e-08
0.0084
4.34447e-08
0.00840019
1.14161e-07
0.00839997
2.6219e-07
0.0084005
7.00781e-07
0.0084005
1.56559e-06
0.00840174
4.24556e-06
0.00840448
9.61259e-06
0.00841291
2.57557e-05
0.00843237
6.41571e-05
0.00850852
0.000183221
0.0087799
0.000577563
0.00996994
0.00219656
0.0110125
0.00795268
0.010835
0.00935886
0.0105573
0.00946176
0.0103228
0.0091694
0.0102489
0.00891266
0.0102919
0.00876261
0.0103891
0.00858436
0.00828708
0.0104932
0.00840003
8.28199e-11
0.00840003
5.63264e-10
0.00840003
1.85624e-09
0.00840004
5.52892e-09
0.00840003
1.37096e-08
0.00840004
3.68835e-08
0.00840008
8.49506e-08
0.00839998
2.28786e-07
0.00840066
5.12784e-07
0.00839914
1.39302e-06
0.00840448
3.11546e-06
0.00839638
8.42591e-06
0.00841831
1.96533e-05
0.0084072
5.28924e-05
0.0084706
0.00014116
0.00858888
0.000436967
0.00921753
0.00157227
0.0109342
0.00621108
0.0110269
0.00926533
0.0108951
0.00959393
0.0106426
0.00942392
0.0105487
0.00900783
0.0105521
0.00875959
0.0106032
0.00853265
0.00822671
0.0106631
0.00840003
7.24921e-11
0.00840003
4.23831e-10
0.00840004
1.52814e-09
0.00840003
4.12065e-09
0.00840005
1.13213e-08
0.00840003
2.70416e-08
0.00840009
7.16107e-08
0.00840009
1.6435e-07
0.00840014
4.36671e-07
0.00840075
9.9262e-07
0.00840009
2.63537e-06
0.00840489
6.08046e-06
0.00840336
1.60003e-05
0.00842368
3.89941e-05
0.00845092
0.000105941
0.00858608
0.000305102
0.00912082
0.00102813
0.0114046
0.00390152
0.0114484
0.00921722
0.0113789
0.00966485
0.0111589
0.00964538
0.0109094
0.00925833
0.0108241
0.00884517
0.0108241
0.00853272
0.00820958
0.0108403
0.00840003
4.80471e-11
0.00840003
3.35854e-10
0.00840003
1.0725e-09
0.00840003
3.28799e-09
0.00840004
7.95531e-09
0.00840003
2.15903e-08
0.0084001
4.99055e-08
0.00839996
1.3079e-07
0.00840057
3.04271e-07
0.0083995
7.77901e-07
0.00840353
1.8487e-06
0.00839753
4.62473e-06
0.00841756
1.13084e-05
0.00840162
2.83068e-05
0.00846808
7.30321e-05
0.00853599
0.000202793
0.00894503
0.000636158
0.0104892
0.00234068
0.0117595
0.00793066
0.0117102
0.00971286
0.0115046
0.0098507
0.011247
0.00951689
0.0111239
0.00896861
0.0110631
0.00859255
0.00823632
0.0110363
0.00840003
3.78827e-11
0.00840003
2.42376e-10
0.00840003
8.34798e-10
0.00840004
2.3593e-09
0.00840003
6.19466e-09
0.00840007
1.56231e-08
0.0084
3.86255e-08
0.00840021
9.65094e-08
0.00839991
2.32593e-07
0.00840093
5.85028e-07
0.00839962
1.39874e-06
0.00840395
3.55177e-06
0.00840058
8.50307e-06
0.00841675
2.18076e-05
0.00841984
5.45451e-05
0.00848977
0.000149029
0.0086633
0.000445884
0.00942388
0.00158079
0.0116567
0.00567254
0.0119072
0.00945688
0.0119036
0.00985102
0.0116973
0.00972162
0.0114373
0.00922887
0.0113201
0.00870926
0.00830428
0.0112513
0.00840003
2.85196e-11
0.00840003
1.66688e-10
0.00840003
6.13672e-10
0.00840003
1.63043e-09
0.00840003
4.51687e-09
0.00840005
1.07834e-08
0.00840002
2.79751e-08
0.00840015
6.59802e-08
0.00839995
1.66389e-07
0.00840085
3.99056e-07
0.00839947
9.81101e-07
0.00840497
2.40318e-06
0.00839815
5.8257e-06
0.0084238
1.45621e-05
0.00841164
3.58889e-05
0.00850366
9.40999e-05
0.00864664
0.00026359
0.00939359
0.000848035
0.0120074
0.00302338
0.0124359
0.00902332
0.01238
0.00990596
0.0121041
0.00999668
0.0117875
0.00954482
0.0116062
0.00888992
0.00842577
0.0114837
0.00840003
1.9956e-11
0.00840003
1.22282e-10
0.00840003
4.28049e-10
0.00840003
1.19237e-09
0.00840004
3.16173e-09
0.00840003
7.79653e-09
0.00840006
1.97222e-08
0.00840003
4.71632e-08
0.00840016
1.18949e-07
0.00840016
2.80763e-07
0.00840044
7.10019e-07
0.00840138
1.67448e-06
0.00840157
4.2329e-06
0.00840896
1.01253e-05
0.00841312
2.56266e-05
0.00844972
6.44516e-05
0.0085276
0.000176034
0.00884628
0.000534949
0.00993606
0.00191875
0.0122635
0.0066774
0.012499
0.00966757
0.012528
0.00996546
0.0121623
0.00990947
0.0119147
0.00913742
0.00860298
0.0117374
0.00840003
1.30423e-11
0.00840003
8.89183e-11
0.00840003
2.90233e-10
0.00840003
8.68109e-10
0.00840004
2.15524e-09
0.00840003
5.68364e-09
0.00840006
1.34331e-08
0.00840001
3.45158e-08
0.0084002
8.08224e-08
0.00839994
2.05772e-07
0.00840094
4.85993e-07
0.0083997
1.21913e-06
0.00840458
2.92921e-06
0.00840007
7.28216e-06
0.00842038
1.78988e-05
0.00841944
4.51483e-05
0.00850021
0.000118407
0.00867011
0.000339839
0.00946502
0.00113091
0.0121536
0.0039586
0.0127238
0.00909027
0.0127832
0.00990483
0.0126879
0.0100036
0.0122677
0.00955765
0.00886192
0.0120086
0.00840003
9.39199e-12
0.00840003
6.05563e-11
0.00840003
2.04902e-10
0.00840003
5.90995e-10
0.00840004
1.51355e-09
0.00840003
3.86545e-09
0.00840004
9.45412e-09
0.00840004
2.32681e-08
0.00840007
5.70667e-08
0.00840017
1.37724e-07
0.00840011
3.4127e-07
0.00840115
8.146e-07
0.00840005
2.03604e-06
0.0084073
4.84621e-06
0.00840238
1.22124e-05
0.00843537
2.96859e-05
0.00845291
7.68397e-05
0.00860556
0.000207848
0.00907834
0.000639389
0.0108002
0.00223354
0.0127516
0.00711832
0.0129261
0.009727
0.0129475
0.00997998
0.0126143
0.00989031
0.00915814
0.01232
0.00840003
6.8653e-12
0.00840003
4.01542e-11
0.00840003
1.469e-10
0.00840003
3.91983e-10
0.00840003
1.07993e-09
0.00840003
2.57537e-09
0.00840003
6.69622e-09
0.00840005
1.56512e-08
0.00840003
3.99198e-08
0.00840019
9.38472e-08
0.00839997
2.353e-07
0.00840108
5.62593e-07
0.00839962
1.38505e-06
0.00840612
3.37681e-06
0.00839927
8.22745e-06
0.00842848
2.04873e-05
0.00842247
5.09413e-05
0.00853188
0.000134762
0.00874593
0.000387831
0.0096866
0.00130692
0.0124293
0.00434394
0.0130843
0.00906288
0.0131778
0.0098856
0.0130644
0.0100032
0.00954828
0.0126745
0.00840003
4.27977e-12
0.00840003
2.76505e-11
0.00840003
9.37463e-11
0.00840003
2.70448e-10
0.00840003
6.88894e-10
0.00840003
1.77255e-09
0.00840004
4.27353e-09
0.00840003
1.06906e-08
0.00840008
2.56081e-08
0.00840004
6.32858e-08
0.00840025
1.52059e-07
0.00840022
3.72698e-07
0.00840088
9.05109e-07
0.00840194
2.19268e-06
0.00840397
5.39264e-06
0.00841295
1.30864e-05
0.00842777
3.26958e-05
0.00848176
8.27289e-05
0.00863992
0.000225786
0.00925453
0.000692226
0.0112353
0.00235022
0.013161
0.00711658
0.0132939
0.00974931
0.0133767
0.00991802
0.00986823
0.0130561
0.00840003
2.93831e-12
0.00840003
1.81982e-11
0.00840003
6.32493e-11
0.00840003
1.77301e-10
0.00840003
4.67111e-10
0.00840003
1.15033e-09
0.00840004
2.91111e-09
0.00840003
6.90123e-09
0.00840005
1.74301e-08
0.00840006
4.07271e-08
0.0084001
1.03414e-07
0.00840031
2.40239e-07
0.00840021
6.09369e-07
0.00840212
1.42584e-06
0.00840071
3.58946e-06
0.00841252
8.53038e-06
0.00840899
2.14109e-05
0.00846094
5.28591e-05
0.00851837
0.000139313
0.00883596
0.000398126
0.00983476
0.00132748
0.0126682
0.00425785
0.0134617
0.00894724
0.0135765
0.00980202
0.0100182
0.0134256
0.00840003
1.75469e-12
0.00840003
1.22026e-11
0.00840003
3.92765e-11
0.00840003
1.18958e-10
0.00840003
2.90643e-10
0.00840003
7.71765e-10
0.00840004
1.80414e-09
0.00840003
4.61777e-09
0.00840005
1.08232e-08
0.00840003
2.70461e-08
0.00840016
6.44331e-08
0.00840002
1.5773e-07
0.00840077
3.83549e-07
0.00840014
9.17024e-07
0.00840395
2.2824e-06
0.00840173
5.375e-06
0.00841923
1.36083e-05
0.00842294
3.24893e-05
0.00849922
8.43138e-05
0.00864703
0.000224625
0.00929812
0.000687132
0.0112655
0.00227705
0.0134322
0.00675624
0.0135871
0.00964259
0.00980794
0.0137941
0.00840003
1.25468e-12
0.00840003
7.31221e-12
0.00840003
2.69026e-11
0.00840003
7.15234e-11
0.00840003
1.9662e-10
0.00840003
4.70936e-10
0.00840003
1.20185e-09
0.00840004
2.85581e-09
0.00840003
7.05434e-09
0.00840006
1.70498e-08
0.00840005
4.10612e-08
0.00840017
1.01179e-07
0.00840021
2.38333e-07
0.00840055
6.00729e-07
0.00840163
1.38649e-06
0.00840209
3.55283e-06
0.00841083
8.17977e-06
0.00841417
2.10918e-05
0.00846025
5.04384e-05
0.00853297
0.000133986
0.00885922
0.000374473
0.00989391
0.0012227
0.0127875
0.00383375
0.013787
0.00863263
0.00973387
0.0138578
0.00840003
7.15048e-13
0.00840003
4.90999e-12
0.00840003
1.58588e-11
0.00840003
4.78543e-11
0.00840003
1.17273e-10
0.00840003
3.09263e-10
0.00840003
7.27385e-10
0.00840003
1.84254e-09
0.00840004
4.35407e-09
0.00840003
1.07553e-08
0.00840008
2.58484e-08
0.00840006
6.24758e-08
0.00840024
1.53121e-07
0.00840033
3.62577e-07
0.00840086
9.06906e-07
0.00840238
2.11144e-06
0.00840407
5.36374e-06
0.00841489
1.25083e-05
0.00842838
3.2008e-05
0.00848848
7.82898e-05
0.00864355
0.000212405
0.0092361
0.000631032
0.0109842
0.00207017
0.0135293
0.00606317
0.00935227
0.0139055
0.00840003
4.69005e-13
0.00840003
2.90418e-12
0.00840003
1.02063e-11
0.00840003
2.83091e-11
0.00840003
7.4907e-11
0.00840003
1.84295e-10
0.00840003
4.60295e-10
0.00840003
1.10443e-09
0.00840003
2.71885e-09
0.00840005
6.4851e-09
0.00840004
1.58873e-08
0.0084001
3.79919e-08
0.00840008
9.25743e-08
0.00840036
2.21967e-07
0.00840049
5.3827e-07
0.00840145
1.30107e-06
0.00840364
3.1311e-06
0.00840726
7.64411e-06
0.00842294
1.85003e-05
0.00845038
4.60102e-05
0.0085477
0.000117074
0.00884673
0.00032486
0.00988968
0.00102125
0.0127771
0.00314078
0.00806228
0.0140552
0.00840003
2.98519e-13
0.00840003
1.74379e-12
0.00840003
6.40922e-12
0.00840003
1.70459e-11
0.00840003
4.68148e-11
0.00840003
1.11635e-10
0.00840003
2.85561e-10
0.00840003
6.72329e-10
0.00840003
1.67059e-09
0.00840004
3.98229e-09
0.00840004
9.68098e-09
0.00840007
2.34757e-08
0.00840008
5.5887e-08
0.00840017
1.38372e-07
0.00840044
3.23171e-07
0.00840051
8.1243e-07
0.00840301
1.8795e-06
0.0084022
4.7666e-06
0.00841801
1.10804e-05
0.00841817
2.82479e-05
0.00849313
6.85256e-05
0.00859745
0.000183314
0.00912066
0.000530477
0.0104989
0.00172866
0.00507277
0.0134642
0.00840003
1.63412e-13
0.00840003
1.11779e-12
0.00840003
3.63641e-12
0.00840003
1.08755e-11
0.00840003
2.67637e-11
0.00840003
7.02219e-11
0.00840003
1.65e-10
0.00840003
4.15964e-10
0.00840003
9.79569e-10
0.00840003
2.41409e-09
0.00840004
5.75873e-09
0.00840004
1.39152e-08
0.0084001
3.3786e-08
0.00840008
8.01501e-08
0.00840033
1.9759e-07
0.00840047
4.61461e-07
0.00840135
1.15374e-06
0.00840332
2.67093e-06
0.00840691
6.71751e-06
0.00842074
1.57067e-05
0.00844645
3.9735e-05
0.00853227
9.808e-05
0.00879126
0.000267922
0.00970796
0.000809261
0.00248875
0.012276
0.00840003
1.05496e-13
0.00840003
6.37689e-13
0.00840003
2.28722e-12
0.00840003
6.21462e-12
0.00840003
1.67213e-11
0.00840003
4.04602e-11
0.00840003
1.01605e-10
0.00840003
2.4348e-10
0.00840003
5.91428e-10
0.00840004
1.43667e-09
0.00840004
3.40577e-09
0.00840004
8.42919e-09
0.00840005
1.96153e-08
0.00840008
4.91958e-08
0.0084002
1.1323e-07
0.00840019
2.85934e-07
0.00840121
6.57783e-07
0.00840072
1.65319e-06
0.00840731
3.84677e-06
0.00840454
9.59719e-06
0.0084394
2.2832e-05
0.00844769
5.74536e-05
0.00860975
0.000146309
0.00895617
0.000415103
0.00131555
0.010148
0.00840003
6.03472e-14
0.00840003
3.87943e-13
0.00840003
1.31498e-12
0.00840003
3.77648e-12
0.00840003
9.65773e-12
0.00840003
2.43181e-11
0.00840003
5.95191e-11
0.00840003
1.43423e-10
0.00840003
3.52552e-10
0.00840003
8.29247e-10
0.00840004
2.06735e-09
0.00840004
4.78204e-09
0.00840004
1.20295e-08
0.00840008
2.77099e-08
0.00840007
6.96827e-08
0.00840033
1.61107e-07
0.00840019
4.02262e-07
0.00840194
9.41242e-07
0.00840084
2.32249e-06
0.00841107
5.52053e-06
0.0084071
1.35356e-05
0.00845531
3.29541e-05
0.00848154
8.25147e-05
0.00871664
0.000217495
0.000639856
0.00935987
0.00840003
3.42268e-14
0.00840003
2.25329e-13
0.00840003
7.60678e-13
0.00840003
2.19212e-12
0.00840003
5.56987e-12
0.00840003
1.41838e-11
0.00840003
3.38306e-11
0.00840003
8.46225e-11
0.00840003
1.9678e-10
0.00840003
4.93753e-10
0.00840003
1.13681e-09
0.00840003
2.85251e-09
0.00840005
6.57758e-09
0.00840004
1.63676e-08
0.00840011
3.81767e-08
0.00840008
9.36043e-08
0.00840051
2.2162e-07
0.00840033
5.34144e-07
0.00840272
1.28654e-06
0.0084022
3.0539e-06
0.00841429
7.46926e-06
0.00841742
1.76907e-05
0.00847504
4.41416e-05
0.00855244
0.00010947
0.000299079
0.00892053
0.00840003
2.1045e-14
0.00840003
1.23756e-13
0.00840003
4.50197e-13
0.00840003
1.2063e-12
0.00840003
3.28134e-12
0.00840003
7.79028e-12
0.00840003
2.00063e-11
0.00840003
4.61139e-11
0.00840003
1.16638e-10
0.00840003
2.68237e-10
0.00840003
6.69843e-10
0.00840004
1.5577e-09
0.00840003
3.82603e-09
0.00840005
9.04992e-09
0.00840005
2.17877e-08
0.00840013
5.25803e-08
0.00840015
1.23886e-07
0.00840047
3.05092e-07
0.00840095
7.06451e-07
0.00840194
1.76268e-06
0.00840646
4.05593e-06
0.00840977
1.01955e-05
0.00843861
2.37768e-05
0.00847088
6.04662e-05
0.000152144
0.00863701
0.00840003
1.06832e-14
0.00840003
7.19709e-14
0.00840003
2.38427e-13
0.00840003
7.0018e-13
0.00840003
1.74367e-12
0.00840003
4.51308e-12
0.00840003
1.05503e-11
0.00840003
2.66803e-11
0.00840003
6.13473e-11
0.00840003
1.53782e-10
0.00840003
3.54039e-10
0.00840003
8.78431e-10
0.00840004
2.0461e-09
0.00840004
4.99128e-09
0.00840006
1.18237e-08
0.00840006
2.83102e-08
0.00840014
6.83751e-08
0.00840026
1.60487e-07
0.00840049
3.94171e-07
0.00840169
9.13247e-07
0.00840198
2.27203e-06
0.0084107
5.22424e-06
0.00841203
1.31504e-05
0.00845781
3.0783e-05
7.88718e-05
0.0085051
0.00840003
5.87513e-15
0.00840003
3.77414e-14
0.00840003
1.28853e-13
0.00840003
3.66034e-13
0.00840003
9.3935e-13
0.00840003
2.32751e-12
0.00840003
5.72654e-12
0.00840003
1.34729e-11
0.00840003
3.33199e-11
0.00840003
7.6343e-11
0.00840003
1.90983e-10
0.00840003
4.3057e-10
0.00840003
1.08317e-09
0.00840004
2.43492e-09
0.00840004
6.09993e-09
0.00840007
1.37652e-08
0.00840006
3.41001e-08
0.00840024
7.79996e-08
0.00840023
1.89343e-07
0.00840107
4.405e-07
0.00840163
1.04607e-06
0.00840486
2.48917e-06
0.00841139
5.78038e-06
0.00842746
1.40947e-05
3.31846e-05
0.00847137
0.00840003
3.19837e-15
0.00840003
1.83648e-14
0.00840003
6.71633e-14
0.00840003
1.79127e-13
0.00840003
4.81572e-13
0.00840003
1.15542e-12
0.00840003
2.83384e-12
0.00840003
6.79025e-12
0.00840003
1.58496e-11
0.00840003
3.88615e-11
0.00840003
8.696e-11
0.00840003
2.20203e-10
0.00840003
4.75173e-10
0.00840003
1.22775e-09
0.00840004
2.60049e-09
0.00840004
6.76317e-09
0.00840008
1.42412e-08
0.00840005
3.65951e-08
0.00840036
7.79736e-08
0.00840008
1.95205e-07
0.00840191
4.2484e-07
0.00840049
1.02299e-06
0.00841001
2.30127e-06
0.00840549
5.30739e-06
1.23081e-05
0.00844626
0.00840003
1.31115e-15
0.00840003
9.54933e-15
0.00840003
3.0171e-14
0.00840003
9.17219e-14
0.00840003
2.1852e-13
0.00840003
5.6662e-13
0.00840003
1.31843e-12
0.00840003
3.15058e-12
0.00840003
7.59834e-12
0.00840003
1.68143e-11
0.00840003
4.31386e-11
0.00840003
8.81374e-11
0.00840003
2.39933e-10
0.00840003
4.6128e-10
0.00840003
1.30289e-09
0.00840005
2.4131e-09
0.00840002
6.86202e-09
0.00840012
1.27162e-08
0.00839998
3.51236e-08
0.0084005
6.66643e-08
0.0083998
1.73041e-07
0.00840244
3.43422e-07
0.00839908
8.14361e-07
0.00841038
1.67386e-06
3.60605e-06
0.0084019
0.00840003
7.43898e-16
0.00840003
3.68756e-15
0.00840003
1.58558e-14
0.00840003
3.57925e-14
0.00840003
1.14736e-13
0.00840003
2.25349e-13
0.00840003
6.64776e-13
0.00840003
1.29305e-12
0.00840003
3.57511e-12
0.00840003
7.3064e-12
0.00840003
1.8412e-11
0.00840003
4.14476e-11
0.00840003
9.2042e-11
0.00840003
2.31876e-10
0.00840004
4.47991e-10
0.00840003
1.28473e-09
0.00840005
2.1287e-09
0.00839999
6.91926e-09
0.00840018
9.66172e-09
0.00839975
3.65281e-08
0.00840094
4.11898e-08
0.00839835
1.83959e-07
0.00840459
1.71604e-07
0.00839164
8.17011e-07
8.20312e-07
0.0084129
0.00840003
3.78251e-16
0.00840003
1.86683e-15
0.00840003
6.50177e-15
0.00840003
1.90163e-14
0.00840003
4.53433e-14
0.00840003
1.19925e-13
0.00840003
2.6945e-13
0.00840003
6.6669e-13
0.00840003
1.51811e-12
0.00840003
3.4913e-12
0.00840003
8.42787e-12
0.00840003
1.81376e-11
0.00840003
4.5567e-11
0.00840003
9.23634e-11
0.00840004
2.4716e-10
0.00840003
4.55673e-10
0.00840004
1.3076e-09
0.00840001
2.18544e-09
0.00840005
6.83761e-09
0.00839999
9.97558e-09
0.00839987
3.3306e-08
0.00840009
4.84879e-08
0.0083984
1.46745e-07
0.00839991
2.32345e-07
6.06479e-07
0.0083928
0.00840003
1.77294e-16
0.00840003
8.00033e-16
0.00840003
3.14841e-15
0.00840003
8.10436e-15
0.00840003
2.14867e-14
0.00840003
5.31324e-14
0.00840003
1.07848e-13
0.00840003
3.46093e-13
0.00840003
4.70612e-13
0.00840003
2.17661e-12
0.00840003
2.12178e-12
0.00840003
1.31293e-11
0.00840003
8.74964e-12
0.00840003
7.62257e-11
0.00840004
3.37339e-11
0.00840002
4.23838e-10
0.00840005
6.93993e-11
0.00839999
2.19344e-09
0.0084001
7.58886e-10
0.00839985
1.0143e-08
0.00840012
1.03328e-08
0.00839937
4.23095e-08
0.00839937
8.80564e-08
0.00839689
1.76368e-07
5.16341e-07
0.00839496
0.00840003
-3.55076e-18
0.00840003
6.3499e-16
0.00840003
1.20173e-15
0.00840003
4.57062e-15
0.00840003
8.20096e-15
0.00840003
2.97117e-14
0.00840003
4.0988e-14
0.00840003
1.68983e-13
0.00840003
2.07836e-13
0.00840003
9.78526e-13
0.00840003
8.92986e-13
0.00840003
5.20822e-12
0.00840003
6.05993e-12
0.00840003
2.59986e-11
0.00840003
3.99755e-11
0.00840003
1.22446e-10
0.00840002
3.12505e-10
0.00840006
5.09049e-10
0.00839991
2.28518e-09
0.00840026
2.39335e-09
0.0083992
1.46234e-08
0.00840154
1.2238e-08
0.0083952
9.10684e-08
0.008406
7.41043e-08
4.67602e-07
0.00838046
0.00840003
1.59378e-17
0.00840003
2.90105e-16
0.00840003
3.09431e-16
0.00840003
3.33614e-15
0.00840003
2.66573e-15
0.00840003
1.72358e-14
0.00840003
2.58682e-14
0.00840003
8.21406e-14
0.00840003
1.44792e-13
0.00840003
4.48727e-13
0.00840003
8.22525e-13
0.00840003
2.38816e-12
0.00840003
4.86118e-12
0.00840003
1.17181e-11
0.00840003
3.01605e-11
0.00840004
5.78127e-11
0.00840001
1.78368e-10
0.00840007
3.1401e-10
0.0083999
9.87823e-10
0.00840031
1.9108e-09
0.00839916
5.95711e-09
0.00840162
9.73411e-09
0.00839512
4.0133e-08
0.00840596
6.18236e-08
2.45475e-07
0.00838045
0.00840003
0.00840003
0.00840003
0.00840003
0.00840003
0.00840003
0.00840003
0.00840003
0.00840003
0.00840003
0.00840003
0.00840003
0.00840003
0.00840003
0.00840003
0.00840004
0.00840001
0.00840008
0.00839989
0.00840032
0.00839918
0.00840156
0.00839531
0.00840538
0.00838157
0.00448914
0.00418713
0.00249735
0.00199077
0.00135214
0.00114458
-0.000319124
0.00166834
-0.00108364
0.000761083
-0.00166917
0.000581396
-0.0020507
0.00037622
-0.00221604
0.000159637
-0.00226595
4.40737e-05
-0.00237322
0.000101408
-0.00251491
0.000135597
-0.00264879
0.000127988
-0.00274846
9.39447e-05
-0.00282353
6.97868e-05
-0.00290097
7.26623e-05
-0.00298015
7.49867e-05
-0.00305657
7.28569e-05
-0.00312633
6.6837e-05
-0.00318609
5.70201e-05
-0.00323241
4.42435e-05
-0.00326499
3.08373e-05
-0.00329028
2.40735e-05
-0.00332888
3.74623e-05
-0.00337021
3.99582e-05
-0.00340406
3.24111e-05
-0.00342782
2.13847e-05
-0.00343427
2.76904e-06
-0.0034106
-2.84617e-05
-0.00334359
-7.35603e-05
-0.00322911
-0.00012141
-0.00307376
-0.000163357
-0.00288403
-0.000197941
-0.00266806
-0.000224748
-0.00242816
-0.000248847
-0.0021783
-0.000259212
-0.00192257
-0.000265232
-0.00166599
-0.000266553
-0.00140766
-0.000268607
-0.00114282
-0.000275616
-0.000880539
-0.00027389
-0.000622758
-0.000269833
-0.000365564
-0.000270077
-0.0001002
-0.000279027
0.000151056
-0.000265499
0.000383309
-0.000247173
0.000605455
-0.000237992
0.000817697
-0.000228897
0.00102058
-0.000220234
0.00121489
-0.000212183
0.00140025
-0.000204053
0.00157707
-0.000195932
0.00174575
-0.000188256
0.00190644
-0.00018069
0.00206018
-0.000173591
0.00220733
-0.000166739
0.00234793
-0.000159938
0.00248139
-0.000152733
0.00260859
-0.000146041
0.002731
-0.000140491
0.00284942
-0.000135253
0.00296329
-0.000129471
0.00307309
-0.000123845
0.00317886
-0.000118629
0.00328134
-0.000113655
0.00338044
-0.000109004
0.00347665
-0.000104374
0.00357003
-0.000100084
0.00366035
-9.57322e-05
0.00374827