/*--------------------------------*- C++ -*----------------------------------*\
  =========                 |
  \\      /  F ield         | OpenFOAM: The Open Source CFD Toolbox
   \\    /   O peration     | Website:  https://openfoam.org
    \\  /    A nd           | Version:  13
     \\/     M anipulation  |
\*---------------------------------------------------------------------------*/
FoamFile
{
    format      ascii;
    class       volScalarField;
    location    "6";
    object      rho;
}
// * * * * * * * * * * * * * * * * * * * * * * * * * * * * * * * * * * * * * //

dimensions      [1 -3 0 0 0 0 0];

internalField   nonuniform List<scalar> 
5250
(
1.40001
1.40002
1.40007
1.40015
1.40044
1.40092
1.40266
1.40564
1.4157
1.43465
1.48738
1.59435
1.83099
2.36076
4.51775
5.8614
5.73664
5.64936
5.66826
5.7484
5.83496
5.88717
5.92764
5.95955
5.98653
1.40001
1.40002
1.40007
1.40015
1.40043
1.40091
1.40262
1.40553
1.41552
1.43404
1.4863
1.59163
1.8257
2.34613
4.46758
5.86711
5.73748
5.64649
5.66591
5.74676
5.83337
5.8858
5.92707
5.95973
5.9876
1.40001
1.40002
1.40007
1.40015
1.40042
1.40089
1.40252
1.40544
1.41486
1.4333
1.48342
1.58658
1.81416
2.316
4.3551
5.88042
5.73876
5.63742
5.65663
5.7366
5.82289
5.87468
5.9156
5.94787
5.97594
1.40001
1.40002
1.40006
1.40016
1.40035
1.40096
1.40215
1.4057
1.41313
1.43343
1.4773
1.58088
1.79524
2.27188
4.17878
5.90356
5.74273
5.62306
5.64028
5.71848
5.80147
5.85115
5.89232
5.92469
5.95267
1.40001
1.40002
1.40005
1.40015
1.40033
1.40091
1.40195
1.40549
1.41191
1.43185
1.47163
1.57073
1.77195
2.21486
3.93893
5.93481
5.74987
5.60436
5.61896
5.69212
5.77507
5.82178
5.85903
5.8896
5.91979
1.40001
1.40002
1.40006
1.40012
1.40034
1.40072
1.40204
1.40444
1.41209
1.42719
1.46861
1.55455
1.74692
2.14775
3.64126
5.9692
5.76382
5.58575
5.59502
5.6605
5.73743
5.78166
5.81453
5.84325
5.8741
1.40001
1.40002
1.40004
1.40013
1.40027
1.40076
1.40161
1.40453
1.40983
1.4264
1.4592
1.54327
1.71372
2.08038
3.29628
5.98087
5.77712
5.56658
5.56714
5.61938
5.69044
5.72596
5.75284
5.77464
5.80703
1.40001
1.40002
1.40004
1.40011
1.40024
1.40068
1.40145
1.40407
1.4088
1.42375
1.45314
1.52956
1.68456
2.0159
3.00275
5.89862
5.75449
5.54121
5.53462
5.56677
5.63017
5.6559
5.66984
5.67925
5.70648
1.40001
1.40002
1.40004
1.40009
1.40025
1.40053
1.40148
1.40324
1.40878
1.41983
1.45037
1.51471
1.66186
1.96061
2.79773
5.65314
5.64117
5.51219
5.48899
5.50028
5.54824
5.56001
5.55549
5.53992
5.54466
1.40001
1.40001
1.40004
1.40008
1.40022
1.40048
1.40133
1.40287
1.40797
1.41749
1.44566
1.50289
1.63793
1.91145
2.61719
5.28322
5.54148
5.47613
5.42444
5.4259
5.44783
5.43959
5.40897
5.33903
5.28076
1.40001
1.40001
1.40003
1.40008
1.40018
1.40046
1.40107
1.40281
1.4064
1.41671
1.43848
1.49389
1.61085
1.86238
2.45235
4.83578
5.48649
5.44176
5.35545
5.34209
5.33261
5.30025
5.20979
4.99289
4.36578
1.40001
1.40001
1.40003
1.40007
1.40016
1.40039
1.40096
1.4023
1.40587
1.41373
1.43452
1.48032
1.58619
1.80706
2.29995
4.30808
5.45764
5.41345
5.29394
5.25135
5.21994
5.1515
5.00204
4.69364
4.02256
1.40001
1.40001
1.40003
1.40006
1.40014
1.40032
1.40081
1.40197
1.40477
1.41192
1.42836
1.46872
1.55796
1.75011
2.15497
3.71495
5.45817
5.40297
5.25458
5.16698
5.11142
5.01247
4.82087
4.49546
3.96637
1.40001
1.40001
1.40002
1.40005
1.4001
1.40029
1.40061
1.40169
1.40371
1.40995
1.42255
1.45672
1.52876
1.69144
2.02067
3.04282
5.42307
5.38484
5.24003
5.10118
5.01088
4.88874
4.68952
4.38657
3.97307
1.40001
1.40001
1.40002
1.40004
1.40009
1.40023
1.40051
1.40133
1.40312
1.40784
1.4188
1.44564
1.50667
1.64149
1.92009
2.64012
5.1507
5.29209
5.20881
5.04187
4.92921
4.79282
4.59691
4.3225
3.9798
1.40001
1.40001
1.40002
1.40003
1.40008
1.40016
1.40046
1.40098
1.40274
1.40592
1.41607
1.43587
1.48937
1.59863
1.83795
2.37734
4.52463
5.17485
5.13183
4.99373
4.85461
4.71409
4.52804
4.28016
3.98181
1.40001
1.40001
1.40001
1.40003
1.40006
1.40015
1.40032
1.40089
1.4019
1.40531
1.41156
1.43066
1.46891
1.56421
1.75686
2.17178
3.79607
5.11504
5.08571
4.97334
4.79994
4.64653
4.46965
4.24544
3.98102
1.40001
1.40001
1.40001
1.40002
1.40005
1.40011
1.40027
1.40063
1.40158
1.40382
1.40929
1.42277
1.45401
1.52665
1.68219
1.99673
2.98662
5.022
5.05485
4.97283
4.786
4.60268
4.42576
4.21946
3.98149
1.40001
1.40001
1.40001
1.40002
1.40004
1.40008
1.40021
1.40047
1.40126
1.40272
1.40749
1.41638
1.44264
1.49571
1.62178
1.8711
2.48891
4.67261
5.00044
4.93768
4.77399
4.57503
4.39308
4.20048
3.98316
1.40001
1.40001
1.40001
1.40002
1.40003
1.40007
1.40014
1.4004
1.40083
1.40235
1.40499
1.41372
1.4302
1.47632
1.56944
1.7766
2.20763
3.91579
4.90088
4.87283
4.76907
4.55785
4.3742
4.18881
3.9889
1.40001
1.40001
1.40001
1.40001
1.40002
1.40005
1.40012
1.40026
1.40071
1.40149
1.40418
1.40897
1.42416
1.45361
1.53022
1.6842
1.99823
3.04256
4.7693
4.83083
4.7611
4.58473
4.37189
4.18688
3.99724
1.40001
1.40001
1.40001
1.40001
1.40002
1.40004
1.40008
1.40021
1.40045
1.40121
1.40268
1.40707
1.41608
1.44054
1.49225
1.61253
1.8466
2.41813
4.38517
4.79211
4.74217
4.60712
4.39289
4.19426
4.01268
1.40001
1.40001
1.40001
1.40001
1.40002
1.40003
1.40006
1.40014
1.40034
1.40084
1.40194
1.40505
1.41142
1.42933
1.46665
1.55714
1.7406
2.12003
3.58886
4.71302
4.69358
4.61476
4.42804
4.21896
4.03199
1.40001
1.40001
1.40001
1.40001
1.40001
1.40002
1.40005
1.40009
1.40025
1.40054
1.40142
1.40326
1.40823
1.41934
1.44707
1.50825
1.64403
1.89731
2.60097
4.50578
4.69282
4.62978
4.47457
4.25281
4.05837
1.40001
1.40001
1.40001
1.40001
1.40001
1.40002
1.40003
1.40007
1.40017
1.40037
1.40101
1.40217
1.40597
1.41289
1.43405
1.47541
1.57849
1.77822
2.2197
3.89428
4.62455
4.60127
4.50786
4.29889
4.09261
1.40001
1.40001
1.40001
1.40001
1.40001
1.40001
1.40002
1.40005
1.40011
1.40027
1.40066
1.40154
1.40394
1.40899
1.42301
1.45238
1.52483
1.67344
1.96279
2.94343
4.43699
4.56253
4.51262
4.36565
4.13715
1.40001
1.40001
1.40001
1.40001
1.40001
1.40001
1.40002
1.40003
1.40008
1.40017
1.40047
1.40098
1.40272
1.40578
1.4157
1.43437
1.48565
1.58812
1.79862
2.27853
3.9555
4.50934
4.48393
4.39698
4.19776
1.40001
1.40001
1.40001
1.40001
1.40001
1.40001
1.40001
1.40002
1.40006
1.40012
1.40031
1.40067
1.40174
1.40397
1.41007
1.42339
1.45687
1.52933
1.68647
1.9828
3.04665
4.33802
4.44801
4.40363
4.27678
1.40001
1.40001
1.40001
1.40001
1.40001
1.40001
1.40001
1.40002
1.40004
1.40008
1.4002
1.40043
1.40115
1.40246
1.40672
1.41445
1.43785
1.48324
1.59448
1.79393
2.28381
3.90791
4.40409
4.3821
4.30744
1.40001
1.40001
1.40001
1.40001
1.40001
1.40001
1.40001
1.40001
1.40003
1.40005
1.40013
1.40027
1.40075
1.40156
1.40431
1.40923
1.42452
1.45399
1.53015
1.67824
1.9695
2.99085
4.22609
4.35807
4.31825
1.40001
1.40001
1.40001
1.40001
1.40001
1.40001
1.40001
1.40001
1.40002
1.40004
1.40008
1.40019
1.40044
1.40103
1.40259
1.40593
1.41509
1.43428
1.48276
1.58363
1.7782
2.23673
3.77438
4.3052
4.29261
1.40001
1.40001
1.40001
1.40001
1.40001
1.40001
1.40001
1.40001
1.40001
1.40002
1.40005
1.40012
1.40026
1.4007
1.40146
1.40405
1.40853
1.42298
1.44987
1.52138
1.65811
1.92372
2.81208
4.09145
4.27414
1.40001
1.40001
1.40001
1.40001
1.40001
1.40001
1.40001
1.40001
1.40001
1.40002
1.40003
1.40007
1.40018
1.40038
1.40102
1.40216
1.40589
1.41264
1.43306
1.47256
1.57028
1.74562
2.15234
3.55273
4.19612
1.40001
1.40001
1.40001
1.40001
1.40001
1.40001
1.40001
1.40001
1.40001
1.40001
1.40002
1.40005
1.4001
1.40025
1.40055
1.40146
1.40313
1.40842
1.41814
1.44668
1.5018
1.63071
1.84921
2.52489
3.92881
1.40001
1.40001
1.40001
1.40001
1.40001
1.40001
1.40001
1.40001
1.40001
1.40001
1.40002
1.40003
1.40006
1.40016
1.40032
1.40089
1.40186
1.40508
1.41083
1.4285
1.46224
1.54825
1.70481
2.04361
3.2472
1.40001
1.40001
1.40001
1.40001
1.40001
1.40001
1.40001
1.40001
1.40001
1.40001
1.40001
1.40002
1.40004
1.40009
1.40021
1.40046
1.40122
1.40262
1.40703
1.41513
1.43897
1.48512
1.59505
1.77849
2.2644
1.40001
1.40001
1.40001
1.40001
1.40001
1.40001
1.40001
1.40001
1.40001
1.40001
1.40001
1.40001
1.40002
1.40006
1.40011
1.40031
1.40064
1.40172
1.40373
1.40971
1.42166
1.45357
1.51873
1.65983
1.92019
1.40001
1.40001
1.40001
1.40001
1.40001
1.40001
1.40001
1.40001
1.40001
1.40001
1.40001
1.40001
1.40002
1.40003
1.40008
1.40016
1.40041
1.4009
1.40232
1.40523
1.41309
1.42996
1.47156
1.55857
1.72285
1.40001
1.40001
1.40001
1.40001
1.40001
1.40001
1.40001
1.40001
1.40001
1.40001
1.40001
1.40001
1.40001
1.40002
1.40004
1.4001
1.40022
1.40053
1.40127
1.40297
1.40732
1.41669
1.44078
1.49113
1.60173
1.40001
1.40001
1.40001
1.40001
1.40001
1.40001
1.40001
1.40001
1.40001
1.40001
1.40001
1.40001
1.40001
1.40001
1.40003
1.40006
1.40013
1.40032
1.40068
1.40183
1.40388
1.41036
1.4223
1.45639
1.5221
1.40001
1.40001
1.40001
1.40001
1.40001
1.40001
1.40001
1.40001
1.40001
1.40001
1.40001
1.40001
1.40001
1.40001
1.40002
1.40003
1.40008
1.40017
1.40044
1.40093
1.40251
1.40532
1.41412
1.43055
1.47565
1.40001
1.40001
1.40001
1.40001
1.40001
1.40001
1.40001
1.40001
1.40001
1.40001
1.40001
1.40001
1.40001
1.40001
1.40001
1.40002
1.40005
1.40011
1.40025
1.40062
1.40137
1.40359
1.4077
1.42024
1.44385
1.40001
1.40001
1.40001
1.40001
1.40001
1.40001
1.40001
1.40001
1.40001
1.40001
1.40001
1.40001
1.40001
1.40001
1.40001
1.40002
1.40003
1.40008
1.40017
1.40043
1.40098
1.40246
1.40578
1.41405
1.4335
1.40001
1.40001
1.40001
1.40001
1.40001
1.40001
1.40001
1.40001
1.40001
1.40001
1.40001
1.40001
1.40001
1.40001
1.40001
1.40001
1.40003
1.40006
1.40015
1.40035
1.40082
1.40209
1.40483
1.41243
1.42878
1.40001
1.40001
1.40001
1.40001
1.40001
1.40001
1.40001
1.40001
1.40001
1.40001
1.40001
1.40001
1.40001
1.40001
1.40001
1.40001
1.40003
1.40006
1.40013
1.40033
1.40076
1.40196
1.40468
1.41178
1.42854
1.40001
1.40001
1.40001
1.40001
1.40001
1.40001
1.40001
1.40001
1.40001
1.40001
1.40001
1.40001
1.40001
1.40001
1.40001
1.40001
1.40003
1.40005
1.40014
1.40029
1.40082
1.40175
1.40497
1.41088
1.4295
1.40001
1.40001
1.40001
1.40001
1.40001
1.40001
1.40001
1.40001
1.40001
1.40001
1.40001
1.40001
1.40001
1.40001
1.40001
1.40001
1.40003
1.40005
1.40013
1.40029
1.4008
1.40175
1.40492
1.41083
1.42933
1.40001
1.40001
1.40001
1.40001
1.40001
1.40001
1.40001
1.40001
1.40001
1.40001
1.40001
1.40001
1.40001
1.40001
1.40001
1.40001
1.40003
1.40005
1.40013
1.40029
1.40078
1.40178
1.40475
1.41108
1.42865
1.40001
1.40001
1.40001
1.40001
1.40001
1.40001
1.40001
1.40001
1.40001
1.40001
1.40001
1.40001
1.40001
1.40001
1.40001
1.40001
1.40003
1.40005
1.40013
1.40029
1.40076
1.40181
1.4046
1.41126
1.42807
1.40001
1.40001
1.40001
1.40001
1.40001
1.40001
1.40001
1.40001
1.40001
1.40001
1.40001
1.40001
1.40001
1.40001
1.40001
1.40001
1.40003
1.40005
1.40013
1.40029
1.40075
1.40182
1.40455
1.41131
1.42782
2.06209
1.41528
1.42593
1.91369
1.7757
1.71813
1.68239
1.67034
1.66192
1.63936
1.61032
1.58496
1.56423
1.54602
1.52339
1.50047
1.47665
1.45628
1.43788
1.42254
1.40375
1.38438
1.37418
1.37151
1.37161
1.37859
1.40284
1.44162
1.4952
1.55717
1.62293
1.68977
1.75419
1.81633
1.87302
1.92584
1.97146
2.01501
2.05261
2.08891
2.12037
2.14956
2.17527
2.19853
2.22085
2.23884
2.25443
2.26773
2.27968
2.28937
2.29782
2.30525
2.31114
2.31586
2.32003
2.32317
2.32561
2.32729
2.32813
2.32733
2.32608
2.32347
2.32062
2.31572
2.31106
2.30372
2.29723
2.28782
2.27913
2.26821
2.25727
2.24487
2.23234
2.21827
2.20436
2.18928
2.17406
2.15791
2.14183
2.12501
2.10811
2.0906
2.07321
2.05524
2.0374
2.01904
2.00097
1.98248
1.96431
1.9458
1.92784
1.90968
1.89219
1.87461
1.85799
1.84169
1.82682
1.81309
1.80165
1.79385
2.55251
1.9749
1.88355
1.97769
1.87064
1.73146
1.65823
1.63315
1.62556
1.60277
1.56252
1.53083
1.50701
1.49057
1.47018
1.44606
1.42341
1.40091
1.38232
1.36677
1.34978
1.33331
1.32142
1.31721
1.31645
1.32242
1.34262
1.38002
1.43292
1.4973
1.56654
1.63743
1.70731
1.775
1.83891
1.8973
1.95216
2.00136
2.05041
2.09463
2.13618
2.17107
2.20445
2.2342
2.26087
2.28397
2.30369
2.32131
2.33698
2.34976
2.3617
2.37173
2.38039
2.38699
2.39329
2.39793
2.40262
2.40572
2.409
2.40928
2.40984
2.4083
2.40676
2.40338
2.39935
2.39387
2.38758
2.37992
2.37146
2.36177
2.35128
2.33971
2.32747
2.31421
2.30049
2.28581
2.27084
2.25501
2.23901
2.22222
2.20539
2.18783
2.17037
2.15216
2.13416
2.11551
2.09717
2.07823
2.0597
2.04074
2.0223
2.0036
1.98553
1.96742
1.95015
1.93332
1.91783
1.90365
1.89148
1.88331
3.07347
2.48446
2.21211
2.11174
2.03229
1.91275
1.79926
1.72561
1.65455
1.60716
1.55061
1.50094
1.46851
1.45734
1.43677
1.41064
1.38435
1.35748
1.33861
1.3222
1.30545
1.29111
1.27775
1.26947
1.26634
1.26896
1.2852
1.32052
1.37444
1.44373
1.52045
1.59897
1.67582
1.7544
1.82802
1.89781
1.96235
2.02025
2.07564
2.12539
2.17058
2.21102
2.24939
2.28254
2.3147
2.34155
2.36669
2.38738
2.40693
2.42301
2.43782
2.44929
2.46068
2.46909
2.47695
2.48183
2.48695
2.49027
2.49379
2.49457
2.49432
2.49234
2.49008
2.4858
2.48112
2.47448
2.46737
2.4585
2.44918
2.43824
2.42689
2.41416
2.40102
2.38673
2.37203
2.35648
2.34049
2.32389
2.30685
2.28941
2.27153
2.25341
2.23482
2.21616
2.19703
2.17797
2.15848
2.13919
2.11956
2.10025
2.08074
2.06163
2.0425
2.02397
2.0058
1.98861
1.97215
1.9574
1.94424
1.93536
3.35038
2.8109
2.46533
2.28881
2.18431
2.07372
1.95955
1.87956
1.79976
1.71154
1.63355
1.56144
1.50703
1.47205
1.44121
1.4084
1.37137
1.33974
1.31624
1.29983
1.28391
1.26698
1.25165
1.23865
1.23193
1.23374
1.25242
1.28706
1.34573
1.4204
1.50477
1.59079
1.67684
1.75954
1.83979
1.91073
1.97946
2.03997
2.10015
2.15301
2.20391
2.24883
2.29185
2.3297
2.36633
2.39742
2.42696
2.45199
2.47568
2.49522
2.51413
2.52974
2.544
2.55584
2.5668
2.57551
2.58272
2.58861
2.59382
2.59736
2.59855
2.59814
2.59633
2.59315
2.58836
2.58225
2.57446
2.56558
2.55508
2.5437
2.53085
2.51732
2.50249
2.48714
2.47072
2.45386
2.43617
2.41811
2.39943
2.38041
2.36098
2.34119
2.32119
2.30077
2.28039
2.25949
2.23894
2.21778
2.19725
2.17607
2.15574
2.13487
2.11513
2.09499
2.07605
2.0571
2.03972
2.02316
2.00889
1.99802
3.50321
3.03924
2.68863
2.46096
2.3276
2.2225
2.11357
2.02192
1.94051
1.8617
1.77391
1.69904
1.62678
1.56337
1.50084
1.451
1.40779
1.3704
1.34036
1.31692
1.29516
1.27448
1.25706
1.24316
1.23817
1.24166
1.25972
1.29928
1.36064
1.43705
1.52084
1.61072
1.70108
1.7899
1.87378
1.95249
2.02603
2.09428
2.15861
2.21656
2.27103
2.3188
2.36385
2.403
2.43998
2.47165
2.50146
2.52637
2.54983
2.56956
2.58758
2.60271
2.61692
2.62838
2.63877
2.6471
2.65458
2.66067
2.66602
2.66983
2.67206
2.67211
2.67117
2.66842
2.6647
2.65897
2.65232
2.64358
2.6341
2.62256
2.6105
2.59645
2.58215
2.56598
2.54979
2.5319
2.51422
2.49498
2.47609
2.4558
2.436
2.41486
2.39431
2.37253
2.35141
2.32924
2.30784
2.2855
2.26412
2.24209
2.221
2.1993
2.17856
2.15748
2.13749
2.11755
2.09905
2.08136
2.06584
2.05355
3.60025
3.20673
2.87633
2.63497
2.4741
2.35712
2.24983
2.15609
2.07036
1.99043
1.9115
1.83277
1.76361
1.69585
1.63289
1.56754
1.50729
1.45312
1.4073
1.36748
1.33636
1.31151
1.29265
1.28033
1.27823
1.28266
1.30378
1.34931
1.4127
1.48742
1.57361
1.66079
1.75554
1.84895
1.94116
2.02635
2.1065
2.17848
2.24545
2.30522
2.36076
2.40938
2.45465
2.49346
2.5299
2.56062
2.5895
2.6136
2.63629
2.65483
2.67268
2.6868
2.70019
2.71068
2.72071
2.72761
2.73372
2.73831
2.74302
2.74534
2.74672
2.74528
2.74325
2.73923
2.73455
2.72783
2.72034
2.71088
2.7007
2.6887
2.67606
2.66178
2.64694
2.63066
2.61392
2.59591
2.57759
2.5581
2.53857
2.51786
2.4974
2.47573
2.45451
2.43215
2.4104
2.38771
2.36594
2.3433
2.32149
2.29882
2.27704
2.25464
2.23309
2.21122
2.19031
2.16947
2.14994
2.13116
2.11449
2.10065
3.6632
3.32883
3.02663
2.7847
2.60637
2.47473
2.36664
2.27111
2.18667
2.10679
2.03115
1.95632
1.88601
1.81933
1.75585
1.69414
1.63322
1.57666
1.52381
1.47848
1.43746
1.40553
1.37996
1.36999
1.36566
1.37762
1.41292
1.4637
1.52292
1.59041
1.66615
1.74596
1.82453
1.91128
2.00296
2.09311
2.17702
2.25116
2.31829
2.37717
2.43088
2.47813
2.52169
2.55955
2.59445
2.62447
2.65217
2.67533
2.69688
2.7148
2.73121
2.74504
2.75788
2.76818
2.77758
2.78511
2.79108
2.79565
2.80019
2.80317
2.80506
2.80403
2.80222
2.79829
2.79384
2.78713
2.77983
2.77026
2.76015
2.74785
2.7352
2.72042
2.70554
2.68863
2.67186
2.65315
2.63478
2.61461
2.59486
2.57348
2.55251
2.53013
2.50806
2.48506
2.46279
2.43955
2.41696
2.39367
2.37102
2.3478
2.32521
2.30228
2.27997
2.25759
2.23595
2.21458
2.19423
2.17478
2.15712
2.14222
3.70876
3.41949
3.14553
2.91163
2.72479
2.58217
2.4673
2.37056
2.28547
2.20745
2.13336
2.06222
1.9936
1.92904
1.86719
1.80803
1.74968
1.69401
1.64311
1.59708
1.55998
1.53079
1.51166
1.50051
1.50272
1.53652
1.58896
1.63705
1.6834
1.73307
1.78456
1.84216
1.89833
1.95285
2.02685
2.11599
2.2035
2.28402
2.35617
2.41806
2.47281
2.52089
2.56399
2.60197
2.63718
2.66775
2.69639
2.7205
2.74281
2.76113
2.77833
2.79185
2.80459
2.81447
2.82349
2.82979
2.83526
2.83875
2.84256
2.84457
2.84615
2.84487
2.84305
2.83912
2.83473
2.82821
2.82102
2.81167
2.80162
2.78957
2.77695
2.76252
2.74764
2.73114
2.7143
2.69599
2.67741
2.65759
2.63754
2.61641
2.5951
2.57296
2.55103
2.52827
2.50572
2.48253
2.45958
2.43608
2.4129
2.38931
2.36611
2.34266
2.31971
2.29663
2.27428
2.25196
2.23081
2.21013
2.19159
2.17496
3.74167
3.488
3.23978
3.01824
2.83051
2.68009
2.55873
2.45773
2.37071
2.29349
2.22069
2.15227
2.0864
2.02347
1.96466
1.90619
1.85297
1.79803
1.75216
1.70944
1.68152
1.66041
1.6455
1.64573
1.67205
1.74313
1.80167
1.83789
1.86551
1.89462
1.91289
1.93966
1.9669
2.00311
2.048
2.10963
2.1898
2.27656
2.3599
2.43434
2.4979
2.55214
2.59823
2.63815
2.67357
2.70493
2.73332
2.75806
2.78057
2.79977
2.81711
2.83139
2.84421
2.85387
2.86258
2.86863
2.87336
2.87588
2.87883
2.87988
2.88052
2.87811
2.87529
2.87037
2.86525
2.85819
2.85073
2.84132
2.83135
2.81947
2.80711
2.79291
2.77841
2.76208
2.74565
2.72739
2.70918
2.68919
2.66927
2.64769
2.62651
2.60398
2.58201
2.55886
2.53628
2.5127
2.48971
2.4659
2.44268
2.41885
2.39563
2.37198
2.34901
2.32575
2.30334
2.28082
2.25945
2.23842
2.2194
2.20203
3.7703
3.54222
3.31618
3.10736
2.92411
2.76958
2.6428
2.53676
2.4469
2.36784
2.2961
2.22854
2.16633
2.10361
2.04859
1.99097
1.94151
1.89083
1.84824
1.81733
1.79687
1.78317
1.77994
1.80289
1.88491
1.98306
2.03299
2.05176
2.06932
2.07252
2.05013
2.037
2.04599
2.06724
2.09497
2.13621
2.18675
2.25202
2.33571
2.41873
2.49486
2.56086
2.61533
2.66026
2.69815
2.72979
2.75864
2.78284
2.80478
2.82425
2.84104
2.85522
2.86757
2.87726
2.88617
2.8921
2.89718
2.89967
2.9027
2.90389
2.90437
2.90196
2.89866
2.89349
2.8877
2.88027
2.87239
2.86277
2.8528
2.84094
2.82884
2.81482
2.80064
2.7847
2.7686
2.75095
2.73312
2.71386
2.69428
2.67363
2.6527
2.63083
2.60883
2.58604
2.56322
2.53977
2.51644
2.49266
2.46907
2.44519
2.42158
2.39782
2.37442
2.35099
2.32809
2.30533
2.28342
2.26202
2.24243
2.22434
3.79575
3.58794
3.37936
3.18323
3.00533
2.85108
2.71992
2.60989
2.51595
2.43485
2.36223
2.2958
2.23359
2.17447
2.11999
2.06617
2.01764
1.97318
1.93755
1.92018
1.90524
1.9023
1.92116
1.98789
2.13917
2.24341
2.2662
2.27811
2.27847
2.242
2.191
2.153
2.13438
2.13569
2.14989
2.1705
2.20232
2.24055
2.28968
2.35888
2.43858
2.5156
2.58479
2.6425
2.69013
2.72883
2.76086
2.78781
2.811
2.83164
2.84889
2.86454
2.87781
2.88857
2.89783
2.90414
2.90933
2.91157
2.91431
2.9154
2.91591
2.91352
2.91038
2.90528
2.89969
2.8923
2.88462
2.87515
2.8655
2.85404
2.84246
2.82905
2.81547
2.80015
2.78461
2.76749
2.75008
2.73114
2.71203
2.69162
2.67114
2.64946
2.62791
2.60524
2.58284
2.55944
2.5364
2.51257
2.48917
2.46521
2.44173
2.41788
2.39459
2.37101
2.34815
2.32509
2.30308
2.28113
2.26126
2.24225
3.82087
3.62712
3.43383
3.24809
3.07713
2.92415
2.79167
2.67754
2.58026
2.49604
2.42163
2.35507
2.29315
2.23585
2.1818
2.1317
2.08669
2.04681
2.02878
2.01538
2.01108
2.02648
2.08076
2.23727
2.41735
2.4928
2.50117
2.50072
2.47094
2.39798
2.32951
2.27696
2.24038
2.21958
2.2127
2.22332
2.23749
2.26081
2.28849
2.32857
2.38135
2.45433
2.5295
2.60133
2.66389
2.71558
2.75644
2.78936
2.8158
2.83812
2.85708
2.87361
2.88731
2.89913
2.90857
2.91541
2.92077
2.92221
2.92432
2.92461
2.92469
2.92149
2.91778
2.91204
2.90611
2.89831
2.89053
2.88092
2.87141
2.86006
2.84877
2.83566
2.82248
2.80759
2.79254
2.77595
2.75912
2.74082
2.72238
2.70251
2.68261
2.66137
2.64021
2.61791
2.59577
2.57277
2.54995
2.52652
2.5033
2.47967
2.45629
2.43266
2.40942
2.38603
2.36322
2.34035
2.31838
2.29657
2.27663
2.25748
3.85017
3.66562
3.48269
3.30637
3.14123
2.99116
2.85775
2.74214
2.64038
2.5541
2.47647
2.40893
2.34672
2.28995
2.23779
2.19012
2.14857
2.12463
2.11331
2.10882
2.1218
2.16966
2.29491
2.54427
2.69749
2.71719
2.71904
2.70092
2.63204
2.54304
2.46488
2.40288
2.35445
2.31908
2.29536
2.2819
2.28195
2.29063
2.30399
2.32578
2.35294
2.39216
2.45158
2.52252
2.59582
2.66195
2.71883
2.76386
2.79985
2.82724
2.84985
2.86745
2.88294
2.89504
2.90548
2.91337
2.91972
2.92197
2.92434
2.9251
2.92582
2.9234
2.92005
2.91447
2.90881
2.90112
2.89355
2.88407
2.87476
2.8637
2.85272
2.84007
2.82731
2.81298
2.79852
2.78255
2.76639
2.74876
2.73106
2.71194
2.69276
2.67224
2.65167
2.62996
2.60824
2.58565
2.56313
2.53999
2.51701
2.4936
2.47044
2.44695
2.42383
2.40039
2.37756
2.35445
2.33232
2.31014
2.29
2.27027
3.87717
3.70207
3.5279
3.35948
3.20016
3.0536
2.9199
2.80319
2.69925
2.60861
2.53
2.45865
2.39699
2.33913
2.28944
2.24436
2.21302
2.20372
2.19866
2.20918
2.2496
2.35099
2.61366
2.8446
2.92336
2.92549
2.91201
2.86215
2.76661
2.67442
2.59419
2.52776
2.47171
2.42622
2.38913
2.36065
2.34216
2.33015
2.33509
2.34331
2.35571
2.37634
2.405
2.45082
2.51421
2.58456
2.65282
2.71479
2.76512
2.80568
2.83579
2.85938
2.87685
2.89131
2.90215
2.91088
2.91782
2.92111
2.92337
2.92404
2.92502
2.92301
2.91973
2.91376
2.90786
2.89982
2.89205
2.88239
2.87306
2.86204
2.85121
2.83882
2.82643
2.81264
2.79871
2.78343
2.7679
2.75103
2.73393
2.71553
2.69696
2.67715
2.65724
2.63619
2.61515
2.59313
2.57123
2.54852
2.52605
2.50291
2.48015
2.45688
2.43412
2.41099
2.38847
2.36575
2.34381
2.32193
2.30184
2.28215
3.91059
3.73884
3.57309
3.41099
3.25635
3.11265
2.98085
2.8612
2.75726
2.66273
2.58181
2.50873
2.44469
2.38791
2.33931
2.29864
2.28916
2.28436
2.2918
2.32749
2.41896
2.64568
2.95064
3.10054
3.10551
3.09943
3.06972
2.98462
2.8859
2.79584
2.71752
2.64877
2.58814
2.5349
2.48844
2.44913
2.41705
2.39185
2.3758
2.36787
2.37384
2.38161
2.39436
2.41626
2.44783
2.50087
2.56523
2.63293
2.69819
2.75414
2.79966
2.83398
2.85985
2.87841
2.89249
2.90258
2.91039
2.91519
2.91753
2.9185
2.91989
2.91898
2.9165
2.9108
2.90498
2.89701
2.88925
2.87967
2.87039
2.85952
2.84887
2.83678
2.82481
2.81148
2.79823
2.78356
2.76885
2.75272
2.73647
2.71887
2.7011
2.68208
2.66288
2.64258
2.6222
2.60089
2.57964
2.55759
2.53571
2.51313
2.49083
2.46792
2.44547
2.42248
2.40017
2.37744
2.35568
2.33367
2.31372
2.29372
3.94787
3.7783
3.61588
3.46037
3.31003
3.16859
3.0389
2.91884
2.81213
2.7172
2.63194
2.55844
2.49225
2.4376
2.39011
2.37142
2.36624
2.37272
2.40357
2.48627
2.68194
3.0204
3.22729
3.27062
3.26761
3.24519
3.18019
3.08558
2.99345
2.90999
2.83431
2.76489
2.70118
2.64274
2.58943
2.54189
2.49979
2.46452
2.43565
2.41469
2.40053
2.39939
2.40473
2.41249
2.42653
2.45139
2.48792
2.54575
2.61037
2.6763
2.73654
2.78716
2.82656
2.85563
2.87633
2.89077
2.90076
2.9072
2.91097
2.91208
2.91388
2.91336
2.91211
2.90673
2.90115
2.8931
2.88527
2.87545
2.86599
2.85489
2.84418
2.83205
2.82022
2.80708
2.79417
2.77996
2.76589
2.75054
2.73521
2.71857
2.70189
2.68385
2.66573
2.64626
2.62677
2.60609
2.58555
2.56398
2.54273
2.52057
2.49889
2.47642
2.45453
2.43204
2.41018
2.38794
2.36651
2.34487
2.32514
2.30528
3.99614
3.82241
3.66267
3.50977
3.3645
3.22549
3.0962
2.978
2.86861
2.7721
2.685
2.60874
2.5433
2.48864
2.45787
2.45245
2.45522
2.4827
2.55548
2.72347
3.07727
3.33444
3.41383
3.41336
3.39783
3.35227
3.26412
3.17568
3.09344
3.01673
2.94425
2.8751
2.80986
2.74762
2.69016
2.63644
2.58816
2.54473
2.50696
2.47541
2.44964
2.43229
2.42137
2.42551
2.42958
2.43748
2.4525
2.4809
2.52621
2.5848
2.64881
2.71134
2.76669
2.81154
2.84547
2.86927
2.88543
2.89546
2.90184
2.90319
2.90526
2.90528
2.90509
2.90052
2.89552
2.88775
2.88014
2.87029
2.86088
2.84965
2.83899
2.82678
2.81514
2.80213
2.78959
2.77573
2.76216
2.74726
2.7325
2.71639
2.70037
2.68301
2.66574
2.64718
2.62871
2.60905
2.58953
2.56895
2.54859
2.52727
2.50629
2.48447
2.46311
2.4411
2.41971
2.39785
2.37692
2.35564
2.33638
2.31687
4.05809
3.87253
3.71081
3.5595
3.41646
3.28049
3.15212
3.03392
2.92545
2.82657
2.73921
2.66253
2.59908
2.55189
2.54499
2.54582
2.56776
2.62981
2.77725
3.12939
3.42638
3.54117
3.54259
3.53349
3.50119
3.42422
3.34095
3.26341
3.18946
3.11888
3.04922
2.98134
2.91439
2.85066
2.78934
2.73221
2.6785
2.62972
2.58479
2.54562
2.51109
2.4826
2.46097
2.44569
2.44173
2.44417
2.44873
2.45799
2.47617
2.51045
2.5605
2.61998
2.6817
2.74048
2.79028
2.82953
2.85743
2.87618
2.88766
2.89266
2.89501
2.89555
2.89623
2.89314
2.88892
2.88153
2.87437
2.86471
2.85545
2.84407
2.83323
2.82069
2.80877
2.79553
2.78277
2.76886
2.75535
2.74076
2.72649
2.71108
2.69595
2.67955
2.66336
2.64584
2.62844
2.60976
2.59124
2.57151
2.55206
2.53153
2.51133
2.4903
2.46967
2.44844
2.42774
2.40661
2.38635
2.36577
2.3471
2.32832
4.13434
3.93395
3.76596
3.61452
3.47263
3.3384
3.21126
3.09253
2.98353
2.88449
2.79588
2.72232
2.6608
2.64708
2.64495
2.66193
2.71787
2.85229
3.1818
3.50495
3.65527
3.66423
3.65896
3.63491
3.57022
3.4923
3.41892
3.35019
3.2832
3.21601
3.14845
3.0805
3.01423
2.94875
2.8864
2.82592
2.76937
2.71597
2.66659
2.62155
2.5804
2.54471
2.51342
2.48824
2.46933
2.4595
2.45749
2.45886
2.46416
2.47506
2.49693
2.53697
2.58895
2.64847
2.70813
2.76209
2.80607
2.83918
2.86118
2.87461
2.88108
2.88221
2.8837
2.88242
2.87974
2.87294
2.86628
2.85685
2.84785
2.83653
2.82567
2.81306
2.801
2.78761
2.7747
2.76065
2.74723
2.7327
2.71881
2.70373
2.68919
2.67341
2.65804
2.64143
2.62514
2.60761
2.59032
2.57183
2.5535
2.5341
2.51488
2.49479
2.47499
2.45455
2.43464
2.41427
2.39482
2.37511
2.35719
2.33957
4.21044
4.00438
3.82498
3.67031
3.52874
3.39523
3.27027
3.15193
3.04336
2.9451
2.85984
2.78825
2.75808
2.75354
2.76722
2.81784
2.94381
3.25162
3.58717
3.76382
3.78469
3.78006
3.75778
3.69979
3.62755
3.56004
3.49709
3.43579
3.37295
3.3088
3.24295
3.17671
3.11033
3.04479
2.98072
2.91887
2.85967
2.80366
2.75052
2.70128
2.65494
2.61375
2.57523
2.54304
2.51424
2.49293
2.47627
2.47194
2.46703
2.47016
2.4763
2.48864
2.51454
2.55915
2.61244
2.66996
2.72633
2.77489
2.81339
2.84003
2.85669
2.8649
2.86679
2.8671
2.86701
2.86237
2.85659
2.84754
2.83887
2.82773
2.81717
2.80462
2.79258
2.77897
2.76582
2.75151
2.73777
2.72316
2.70916
2.69427
2.68001
2.66475
2.65006
2.63425
2.61888
2.60234
2.5861
2.56869
2.55152
2.53328
2.51523
2.49629
2.47765
2.45831
2.43951
2.42027
2.4019
2.3835
2.36657
2.35066
4.2378
4.10084
3.90207
3.73525
3.58982
3.45606
3.33059
3.21361
3.10546
3.01016
2.92976
2.88422
2.87691
2.88655
2.93188
3.0503
3.34144
3.68565
3.87514
3.90564
3.90158
3.88
3.82375
3.75353
3.69007
3.63297
3.57778
3.52119
3.46207
3.40001
3.33589
3.27018
3.20403
3.13824
3.07368
3.01069
2.95013
2.89131
2.83584
2.78273
2.73345
2.68705
2.64443
2.60568
2.57037
2.54062
2.51445
2.49552
2.48302
2.47781
2.4726
2.47706
2.48385
2.49839
2.52882
2.57503
2.62865
2.68508
2.73667
2.78024
2.81218
2.83298
2.84493
2.84731
2.8488
2.84777
2.84523
2.83695
2.82856
2.81714
2.80706
2.79414
2.78265
2.7684
2.75558
2.74056
2.72698
2.71173
2.69779
2.68263
2.66852
2.65343
2.6391
2.62388
2.60917
2.59358
2.57831
2.56213
2.54617
2.52927
2.51262
2.49509
2.47787
2.45998
2.4426
2.42488
2.40801
2.39136
2.37583
2.36235
4.24552
4.16431
3.98309
3.80505
3.6545
3.51895
3.39503
3.2789
3.17514
3.08478
3.02469
3.01461
3.02022
3.06063
3.17304
3.45396
3.80363
4.00176
4.03733
4.0322
4.00833
3.94699
3.87643
3.81491
3.76154
3.71175
3.66077
3.60741
3.54966
3.48923
3.42544
3.36076
3.29492
3.22953
3.16474
3.10102
3.03909
2.97872
2.92141
2.86563
2.81379
2.76348
2.7175
2.6733
2.63372
2.5965
2.56422
2.53556
2.51206
2.4953
2.48523
2.47707
2.47264
2.47741
2.48566
2.50274
2.53926
2.58561
2.63838
2.69192
2.73878
2.77683
2.80274
2.81862
2.82474
2.82587
2.82533
2.82292
2.81481
2.8054
2.79432
2.78255
2.76996
2.75664
2.74295
2.72847
2.71426
2.69914
2.68485
2.6695
2.6554
2.64005
2.62616
2.61086
2.59703
2.58173
2.56767
2.5523
2.53772
2.52217
2.50703
2.49115
2.47563
2.45956
2.44403
2.42836
2.41348
2.39927
2.38562
2.37563
4.22573
4.18528
4.08007
3.89018
3.7255
3.58462
3.45947
3.34695
3.25053
3.17886
3.16573
3.16779
3.20544
3.31474
3.59286
3.94596
4.14806
4.18178
4.17488
4.14757
4.07681
4.00173
3.93854
3.88753
3.84042
3.7943
3.74441
3.69205
3.63462
3.57555
3.51241
3.44928
3.38347
3.31912
3.25331
3.18998
3.12643
3.06579
3.00622
2.94925
2.89456
2.8419
2.79251
2.74472
2.70098
2.65861
2.62105
2.58507
2.55471
2.52715
2.50556
2.49124
2.47941
2.46944
2.46917
2.47416
2.48365
2.50362
2.54346
2.59002
2.64156
2.69121
2.73364
2.76592
2.78614
2.79789
2.79898
2.79898
2.79738
2.79081
2.78097
2.76843
2.75608
2.74223
2.72918
2.71454
2.7006
2.68527
2.67091
2.65538
2.64102
2.62569
2.61153
2.59664
2.58276
2.56823
2.55465
2.54026
2.52681
2.51243
2.49891
2.48452
2.47102
2.45679
2.44377
2.43032
2.41823
2.40706
2.39591
2.39048
4.20136
4.18502
4.12798
3.98897
3.81243
3.66038
3.53392
3.42662
3.34451
3.32833
3.32787
3.36345
3.47396
3.7597
4.11743
4.31759
4.34309
4.33397
4.30049
4.21618
4.13262
4.06682
4.01452
3.96932
3.92479
3.87879
3.82889
3.77606
3.71926
3.6603
3.59833
3.53556
3.47075
3.40659
3.34112
3.27771
3.21342
3.15244
3.09073
3.0332
2.97522
2.92155
2.86805
2.81842
2.76987
2.72456
2.68152
2.64113
2.60444
2.56988
2.54101
2.51386
2.49628
2.47932
2.46824
2.45714
2.46097
2.46593
2.47714
2.50103
2.54135
2.58811
2.63803
2.68338
2.72114
2.7472
2.76318
2.76819
2.76859
2.76699
2.76253
2.75207
2.73905
2.72616
2.71213
2.69839
2.68394
2.66957
2.65486
2.64
2.62516
2.61033
2.59566
2.58131
2.56706
2.55327
2.53964
2.52626
2.51334
2.50022
2.48791
2.47527
2.46346
2.45192
2.44096
2.43116
2.42172
2.41467
2.40661
2.4065
4.07035
4.16882
4.13996
4.06536
3.89775
3.74268
3.61792
3.52198
3.50191
3.50009
3.53516
3.65141
3.95643
4.32128
4.51688
4.52559
4.51221
4.46839
4.36471
4.2726
4.20341
4.14798
4.10231
4.05723
4.0128
3.96427
3.91412
3.85948
3.80328
3.7436
3.6828
3.61976
3.55623
3.4916
3.42716
3.36278
3.29891
3.23642
3.17431
3.11494
3.05545
2.99991
2.94359
2.89228
2.83966
2.79282
2.74449
2.70218
2.65877
2.62124
2.58387
2.55193
2.52239
2.49824
2.48038
2.46233
2.44971
2.44197