/*--------------------------------*- C++ -*----------------------------------*\
  =========                 |
  \\      /  F ield         | OpenFOAM: The Open Source CFD Toolbox
   \\    /   O peration     | Website:  https://openfoam.org
    \\  /    A nd           | Version:  13
     \\/     M anipulation  |
\*---------------------------------------------------------------------------*/
FoamFile
{
    format      ascii;
    class       volScalarField;
    location    "6";
    object      T;
}
// * * * * * * * * * * * * * * * * * * * * * * * * * * * * * * * * * * * * * //

dimensions      [0 0 0 1 0 0 0];

internalField   nonuniform List<scalar> 
5250
(
1.00001
1.00002
1.00004
1.00012
1.00026
1.00074
1.00163
1.00438
1.01029
1.02659
1.06651
1.1769
1.47535
2.16774
2.67207
2.75996
2.74565
2.74191
2.75328
2.76926
2.78107
2.78836
2.79359
2.79754
2.79923
1
1.00002
1.00004
1.00012
1.00026
1.00073
1.0016
1.00433
1.0101
1.02625
1.06539
1.1742
1.46802
2.15474
2.66767
2.75981
2.74501
2.74095
2.75232
2.76822
2.77995
2.78721
2.79242
2.79633
2.79794
1.00001
1.00002
1.00004
1.00011
1.00027
1.00066
1.00166
1.00395
1.01029
1.02461
1.06424
1.16738
1.45284
2.12498
2.65722
2.7588
2.74292
2.73802
2.74923
2.76518
2.77651
2.78365
2.78896
2.79297
2.79456
1
1.00002
1.00004
1.0001
1.00025
1.00065
1.0015
1.00402
1.00917
1.02446
1.05959
1.15987
1.42787
2.07834
2.6403
2.75684
2.73916
2.73295
2.7442
2.7597
2.77178
2.77907
2.78362
2.7872
2.78916
1
1.00001
1.00004
1.00009
1.00026
1.00055
1.00153
1.00345
1.00914
1.02179
1.05673
1.14692
1.39708
2.01264
2.6161
2.75323
2.73367
2.72575
2.73674
2.7524
2.76343
2.77086
2.77617
2.77999
2.78147
1
1.00001
1.00003
1.00009
1.00022
1.00054
1.00135
1.0032
1.00838
1.01977
1.05185
1.13279
1.35957
1.92834
2.58311
2.74609
2.7246
2.71468
2.72569
2.74105
2.75334
2.75983
2.76505
2.76821
2.76986
1
1.00001
1.00003
1.00007
1.00021
1.00046
1.00124
1.0029
1.00737
1.01807
1.04579
1.11836
1.31688
1.82755
2.53868
2.73317
2.71128
2.7006
2.71205
2.72708
2.73935
2.74641
2.7504
2.75313
2.7532
1
1.00001
1.00003
1.00007
1.00019
1.00042
1.00111
1.00262
1.00658
1.01621
1.04075
1.10499
1.27968
1.73768
2.48859
2.71799
2.69567
2.68538
2.6951
2.70973
2.72096
2.727
2.73001
2.73037
2.72729
1
1.00001
1.00003
1.00006
1.00016
1.00039
1.00099
1.00232
1.00608
1.01421
1.03717
1.09328
1.25066
1.66598
2.42836
2.69786
2.68497
2.67569
2.67976
2.69074
2.70044
2.70393
2.70348
2.69806
2.68352
1
1.00001
1.00002
1.00006
1.00013
1.00038
1.0008
1.00225
1.00504
1.0134
1.03211
1.08419
1.2215
1.59342
2.3435
2.66508
2.676
2.66824
2.66571
2.67172
2.6762
2.67588
2.66835
2.6472
2.5896
1
1.00001
1.00002
1.00005
1.00014
1.00028
1.00083
1.00172
1.00498
1.0109
1.02959
1.07224
1.19466
1.51927
2.23451
2.62226
2.66755
2.65884
2.65149
2.65208
2.65149
2.6445
2.624
2.57555
2.46484
1
1.00001
1.00002
1.00005
1.0001
1.00029
1.0006
1.00176
1.00371
1.01045
1.02386
1.06378
1.164
1.44366
2.09738
2.56596
2.6575
2.6478
2.63773
2.63261
2.62631
2.61129
2.57852
2.51139
2.38822
1
1.00001
1.00002
1.00003
1.0001
1.00021
1.00059
1.00125
1.00361
1.00778
1.02142
1.05095
1.13672
1.36289
1.93215
2.49252
2.63876
2.63026
2.61753
2.61008
2.59949
2.57757
2.53756
2.46897
2.36068
1
1
1.00001
1.00003
1.00007
1.00018
1.00044
1.00113
1.00262
1.00691
1.01607
1.04207
1.10566
1.2827
1.73398
2.39904
2.60667
2.60349
2.59349
2.58255
2.57116
2.54803
2.50581
2.4417
2.35054
1
1
1.00001
1.00002
1.00006
1.00015
1.00035
1.00095
1.00206
1.00574
1.01273
1.0343
1.08395
1.22531
1.59239
2.29462
2.56774
2.57667
2.56777
2.55558
2.54022
2.51809
2.47897
2.42178
2.34339
1
1
1.00001
1.00002
1.00005
1.00012
1.00029
1.00072
1.00181
1.00427
1.0111
1.02644
1.06891
1.17884
1.47869
2.14011
2.50565
2.55683
2.54689
2.53554
2.51654
2.49134
2.45448
2.40338
2.33602
1
1
1.00001
1.00001
1.00004
1.00009
1.00024
1.00056
1.00142
1.00348
1.00851
1.02135
1.05343
1.13962
1.3718
1.94046
2.41975
2.53324
2.52749
2.51372
2.49498
2.46952
2.43426
2.38785
2.32899
1
1
1
1.00001
1.00003
1.00007
1.00019
1.00041
1.00115
1.00245
1.00693
1.01528
1.04115
1.1016
1.27172
1.70369
2.30412
2.49571
2.50186
2.491
2.4701
2.44644
2.41431
2.37277
2.3213
1
1
1
1.00001
1.00002
1.00006
1.00012
1.00036
1.00076
1.00211
1.0047
1.01243
1.0295
1.07673
1.19832
1.52446
2.16377
2.44399
2.47425
2.46562
2.44793
2.42277
2.39508
2.35823
2.31344
1
1
1
1.00001
1.00002
1.00004
1.00011
1.00024
1.00063
1.0015
1.00367
1.00922
1.02233
1.05708
1.14702
1.39087
1.96189
2.35958
2.44548
2.44164
2.42611
2.4035
2.37563
2.34355
2.30387
1
1
1
1.00001
1.00001
1.00003
1.00007
1.0002
1.00043
1.00115
1.00262
1.00675
1.01618
1.04103
1.10412
1.27435
1.70929
2.2405
2.40488
2.41552
2.40524
2.38415
2.35917
2.32853
2.29399
1
1
1
1
1.00001
1.00002
1.00005
1.00013
1.00032
1.00081
1.00186
1.0049
1.01118
1.02938
1.07135
1.18822
1.49171
2.07984
2.34553
2.38673
2.38119
2.3642
2.33932
2.31394
2.28145
1
1
1
1
1.00001
1.00001
1.00004
1.00009
1.00025
1.00051
1.00149
1.00312
1.00867
1.01963
1.05178
1.12995
1.3449
1.85688
2.25
2.35309
2.35716
2.34612
2.32355
2.29769
2.26915
1
1
1
1
1
1.00001
1.00003
1.00006
1.00016
1.00037
1.00098
1.00216
1.00589
1.01306
1.03481
1.08403
1.22132
1.57086
2.11047
2.30341
2.32835
2.32273
2.30538
2.28138
2.25529
1
1
1
1
1
1.00001
1.00002
1.00005
1.0001
1.00028
1.00061
1.00165
1.00375
1.00964
1.0231
1.05869
1.14992
1.393
1.92724
2.23696
2.29994
2.29913
2.28584
2.26439
2.23982
1
1
1
1
1
1.00001
1.00001
1.00003
1.00007
1.00019
1.00041
1.00117
1.0024
1.00685
1.01496
1.04012
1.09783
1.25851
1.66039
2.116
2.25893
2.27429
2.26645
2.24803
2.22438
1
1
1
1
1
1
1.00001
1.00002
1.00005
1.00013
1.00029
1.00072
1.00174
1.0042
1.01047
1.02521
1.06384
1.16257
1.425
1.9371
2.19203
2.2434
2.24299
2.2299
2.20961
1
1
1
1
1
1
1.00001
1.00001
1.00003
1.00008
1.0002
1.00046
1.0012
1.00265
1.00713
1.016
1.04219
1.10324
1.27148
1.68131
2.08183
2.20499
2.21931
2.21248
2.19547
1
1
1
1
1
1
1
1.00001
1.00002
1.00006
1.00011
1.00032
1.00069
1.00187
1.00416
1.01081
1.02546
1.06497
1.16365
1.42746
1.90926
2.13986
2.18742
2.18951
2.17892
1
1
1
1
1
1
1
1.00001
1.00001
1.00004
1.00008
1.0002
1.00046
1.00114
1.00277
1.00664
1.0166
1.04013
1.10243
1.26273
1.65654
2.03191
2.15048
2.16654
2.16145
1
1
1
1
1
1
1
1
1.00001
1.00002
1.00005
1.00013
1.00027
1.00077
1.00157
1.00447
1.00951
1.02563
1.06018
1.15662
1.40284
1.85838
2.08442
2.13416
2.13881
1
1
1
1
1
1
1
1
1.00001
1.00001
1.00003
1.00007
1.00019
1.00041
1.00111
1.00248
1.00632
1.01504
1.03733
1.09316
1.23897
1.59698
1.97028
2.09576
2.1162
1
1
1
1
1
1
1
1
1
1.00001
1.00002
1.00005
1.0001
1.00028
1.00061
1.00163
1.00364
1.00932
1.02201
1.05544
1.13849
1.35939
1.78588
2.02399
2.08394
1
1
1
1
1
1
1
1
1
1
1.00001
1.00003
1.00007
1.00015
1.00041
1.00087
1.00233
1.00523
1.01336
1.03158
1.07991
1.2009
1.5078
1.89404
2.0414
1
1
1
1
1
1
1
1
1
1
1.00001
1.00002
1.00004
1.00009
1.00024
1.00054
1.00135
1.00323
1.00772
1.01924
1.04622
1.11758
1.29997
1.69274
1.96244
1
1
1
1
1
1
1
1
1
1
1
1.00001
1.00002
1.00006
1.00012
1.00034
1.00073
1.00195
1.00434
1.01109
1.02597
1.06539
1.16239
1.41534
1.80812
1
1
1
1
1
1
1
1
1
1
1
1.00001
1.00001
1.00003
1.00008
1.00019
1.00045
1.0011
1.00257
1.00652
1.01491
1.03832
1.09207
1.23837
1.57314
1
1
1
1
1
1
1
1
1
1
1
1
1.00001
1.00002
1.00004
1.00011
1.00026
1.00061
1.00156
1.00344
1.00911
1.02034
1.05283
1.128
1.33184
1
1
1
1
1
1
1
1
1
1
1
1
1
1.00001
1.00002
1.00006
1.00014
1.00037
1.00078
1.00216
1.00447
1.01221
1.02689
1.06987
1.16985
1
1
1
1
1
1
1
1
1
1
1
1
1
1.00001
1.00002
1.00003
1.00009
1.00019
1.00051
1.0011
1.00282
1.00654
1.01602
1.03889
1.09602
1
1
1
1
1
1
1
1
1
1
1
1
1
1
1.00001
1.00002
1.00004
1.00012
1.00026
1.00067
1.00156
1.00376
1.00917
1.02172
1.05392
1
1
1
1
1
1
1
1
1
1
1
1
1
1
1.00001
1.00001
1.00003
1.00006
1.00018
1.00036
1.00101
1.00214
1.00565
1.0127
1.03224
1
1
1
1
1
1
1
1
1
1
1
1
1
1
1
1.00001
1.00002
1.00005
1.00011
1.00029
1.00063
1.00172
1.00368
1.01004
1.02238
1
1
1
1
1
1
1
1
1
1
1
1
1
1
1
1.00001
1.00002
1.00004
1.0001
1.00021
1.00061
1.00126
1.00365
1.00779
1.02139
1
1
1
1
1
1
1
1
1
1
1
1
1
1
1
1.00001
1.00001
1.00004
1.00008
1.00023
1.0005
1.0014
1.00301
1.00856
1.01932
1
1
1
1
1
1
1
1
1
1
1
1
1
1
1
1.00001
1.00001
1.00004
1.00008
1.00022
1.00049
1.00134
1.00309
1.00812
1.01974
1
1
1
1
1
1
1
1
1
1
1
1
1
1
1
1.00001
1.00001
1.00004
1.00008
1.00022
1.00047
1.00136
1.003
1.00821
1.01943
1
1
1
1
1
1
1
1
1
1
1
1
1
1
1
1.00001
1.00001
1.00003
1.00008
1.0002
1.00053
1.0012
1.00331
1.00752
1.02043
1
1
1
1
1
1
1
1
1
1
1
1
1
1
1
1.00001
1.00001
1.00003
1.00009
1.00019
1.00054
1.00117
1.00335
1.00736
1.02047
1
1
1
1
1
1
1
1
1
1
1
1
1
1
1
1.00001
1.00001
1.00003
1.00009
1.00019
1.00054
1.00116
1.00335
1.00733
1.0204
2.29206
2.3021
2.60536
2.71358
2.89382
2.861
2.83028
2.80777
2.79815
2.786
2.76925
2.74893
2.73305
2.71757
2.70404
2.68678
2.67081
2.65326
2.63952
2.62493
2.6134
2.59727
2.58644
2.57912
2.57591
2.57807
2.58593
2.60629
2.63367
2.66669
2.70099
2.73277
2.76303
2.78895
2.81193
2.82915
2.84657
2.85798
2.87161
2.87931
2.88641
2.89056
2.89365
2.89672
2.89735
2.89777
2.89766
2.89717
2.8955
2.89426
2.89234
2.88971
2.8873
2.88476
2.88145
2.87811
2.87478
2.87157
2.86788
2.86423
2.85986
2.85578
2.85045
2.84606
2.83969
2.83501
2.82759
2.82221
2.81432
2.80771
2.79965
2.79208
2.78339
2.77549
2.76632
2.75765
2.74831
2.73936
2.72964
2.72026
2.71043
2.70091
2.69081
2.68109
2.6709
2.66115
2.65085
2.64104
2.63082
2.62119
2.61109
2.60165
2.59187
2.58303
2.57398
2.56608
2.55837
2.55224
2.54728
2.54403
2.29585
2.3246
2.51324
2.63265
2.72041
2.80904
2.85572
2.90051
2.90154
2.86654
2.85153
2.83134
2.8211
2.81152
2.80019
2.78773
2.77063
2.75697
2.74291
2.72879
2.71747
2.70216
2.69005
2.68242
2.67981
2.68078
2.69038
2.70764
2.73257
2.75901
2.78536
2.80845
2.82732
2.84285
2.85355
2.86117
2.86443
2.86603
2.86601
2.86357
2.85739
2.85459
2.84886
2.84483
2.84024
2.8352
2.83059
2.82548
2.81999
2.81562
2.81007
2.80494
2.79973
2.79544
2.79005
2.78531
2.77966
2.77522
2.76928
2.76462
2.75827
2.75311
2.74649
2.74043
2.7335
2.72663
2.71908
2.71154
2.70336
2.69513
2.68642
2.67764
2.66841
2.65923
2.64954
2.64005
2.63005
2.6203
2.61008
2.60019
2.58981
2.57983
2.56932
2.55932
2.54879
2.53878
2.52824
2.51834
2.50797
2.49822
2.48808
2.47862
2.4689
2.45997
2.451
2.44291
2.43524
2.42885
2.42396
2.42047
2.29136
2.27978
2.33639
2.45164
2.5127
2.57524
2.64714
2.73217
2.81085
2.83616
2.86447
2.8877
2.90435
2.89044
2.86921
2.85512
2.84126
2.83488
2.82159
2.81153
2.80501
2.79411
2.78381
2.77854
2.77765
2.78102
2.79111
2.80433
2.82288
2.83801
2.84798
2.85496
2.85796
2.85899
2.85514
2.84671
2.83733
2.82968
2.82099
2.81249
2.80323
2.79484
2.78434
2.77674
2.76634
2.75823
2.74844
2.74085
2.73189
2.72464
2.71672
2.71076
2.70325
2.6976
2.69114
2.6866
2.68092
2.67667
2.67116
2.66665
2.66138
2.65684
2.65129
2.64643
2.64041
2.63493
2.6284
2.62222
2.61503
2.60814
2.60035
2.59277
2.58444
2.57626
2.56753
2.55883
2.54978
2.54068
2.5314
2.522
2.51256
2.50293
2.49342
2.48363
2.47406
2.46419
2.45465
2.44481
2.43537
2.42566
2.41641
2.40703
2.39813
2.3892
2.38084
2.3727
2.36556
2.35909
2.35447
2.35091
2.27785
2.24067
2.24636
2.29501
2.35382
2.40059
2.45853
2.51476
2.58508
2.66086
2.7164
2.77285
2.82062
2.84142
2.84862
2.85253
2.86431
2.87071
2.869
2.85999
2.85002
2.84306
2.83855
2.83659
2.83684
2.84238
2.84564
2.85108
2.85352
2.8532
2.8485
2.84285
2.83355
2.82705
2.81451
2.80638
2.79297
2.78412
2.76995
2.75943
2.74513
2.73319
2.71895
2.70721
2.69312
2.68177
2.66867
2.65769
2.6456
2.63584
2.62475
2.61546
2.60602
2.59771
2.58897
2.58118
2.57388
2.56756
2.56113
2.5548
2.54855
2.54265
2.53694
2.53122
2.5256
2.51977
2.51407
2.50798
2.50204
2.49559
2.48928
2.48242
2.47569
2.46843
2.46129
2.45371
2.44618
2.43832
2.43046
2.4224
2.41425
2.40603
2.39762
2.38929
2.38065
2.37233
2.3635
2.35526
2.34641
2.3383
2.32948
2.32157
2.31293
2.30531
2.29721
2.29032
2.28337
2.27796
2.27341
2.2709
2.27143
2.22124
2.20096
2.21194
2.24462
2.27684
2.31727
2.35792
2.40656
2.45247
2.50823
2.55506
2.61628
2.67511
2.73166
2.76374
2.78518
2.80203
2.81289
2.81707
2.81933
2.82229
2.82505
2.82949
2.82949
2.8287
2.82518
2.82189
2.8138
2.80277
2.78898
2.77538
2.7613
2.74675
2.73254
2.71774
2.7024
2.68765
2.67208
2.65896
2.64424
2.63232
2.61884
2.60808
2.59591
2.58601
2.57471
2.56565
2.5555
2.54696
2.53815
2.53052
2.52224
2.51526
2.50798
2.50137
2.49426
2.48821
2.48225
2.47655
2.47012
2.46408
2.45779
2.45195
2.44564
2.43973
2.43323
2.42721
2.42049
2.41432
2.40736
2.40103
2.39383
2.38733
2.3799
2.37321
2.36556
2.35868
2.35085
2.34379
2.33578
2.32859
2.32043
2.31311
2.30488
2.29748
2.28921
2.2818
2.2735
2.26598
2.25769
2.25023
2.24218
2.235
2.22745
2.22088
2.21431
2.20907
2.20466
2.20227
2.2679
2.21363
2.17942
2.16876
2.17656
2.19297
2.21725
2.24381
2.27606
2.3096
2.34423
2.38449
2.42325
2.47028
2.51358
2.56218
2.6063
2.64778
2.68397
2.7171
2.73822
2.75229
2.762
2.76924
2.77221
2.77349
2.76756
2.75474
2.73212
2.70679
2.67748
2.65249
2.62915
2.61169
2.59396
2.57996
2.56467
2.55221
2.53924
2.52894
2.51782
2.50917
2.49935
2.49211
2.48341
2.47693
2.46897
2.46274
2.45526
2.44947
2.44234
2.43692
2.43061
2.42552
2.4195
2.415
2.40963
2.40536
2.40047
2.39669
2.39186
2.38755
2.38251
2.37805
2.37291
2.3682
2.36278
2.35769
2.3519
2.34639
2.3402
2.33428
2.32775
2.32147
2.31466
2.30813
2.30111
2.29443
2.28717
2.2804
2.27289
2.266
2.25826
2.25125
2.24335
2.23623
2.22819
2.22095
2.21291
2.20573
2.19785
2.19075
2.18313
2.17629
2.16915
2.16285
2.15657
2.15147
2.1471
2.14484
2.26694
2.21215
2.17116
2.14697
2.13833
2.14033
2.14936
2.16451
2.18273
2.20548
2.22844
2.25483
2.2833
2.31411
2.34694
2.38077
2.41653
2.4517
2.48969
2.52498
2.56296
2.59509
2.62654
2.64587
2.66264
2.66846
2.66323
2.64058
2.60358
2.56381
2.5257
2.49285
2.46823
2.45337
2.44439
2.43861
2.43255
2.42813
2.4226
2.41859
2.41358
2.40985
2.40506
2.40156
2.397
2.39347
2.38879
2.3853
2.38058
2.37679
2.37226
2.36822
2.36342
2.35934
2.35464
2.35021
2.34543
2.34141
2.33697
2.33299
2.3283
2.32405
2.31913
2.31482
2.30977
2.30534
2.30012
2.29548
2.28999
2.28507
2.27925
2.27406
2.26788
2.26239
2.25588
2.25013
2.24334
2.23736
2.23038
2.2242
2.21711
2.21074
2.2036
2.19706
2.18977
2.18309
2.17575
2.16896
2.16158
2.1547
2.14737
2.1405
2.13332
2.12659
2.11973
2.11341
2.10726
2.10194
2.09752
2.09492
2.26497
2.21252
2.16908
2.13702
2.11804
2.10827
2.10711
2.11098
2.11937
2.13129
2.14563
2.16157
2.18036
2.20079
2.22369
2.24706
2.27255
2.29937
2.3277
2.35982
2.39265
2.42754
2.46008
2.48971
2.51952
2.53633
2.53319
2.5064
2.4665
2.42389
2.38469
2.35364
2.32973
2.3178
2.31673
2.32088
2.32596
2.33074
2.3331
2.33515
2.3349
2.33433
2.33299
2.33178
2.32927
2.32743
2.32411
2.32177
2.31824
2.31566
2.31186
2.30924
2.30554
2.30264
2.29894
2.29606
2.29211
2.28913
2.28548
2.28249
2.27837
2.27463
2.26999
2.2659
2.26106
2.25677
2.25181
2.24737
2.24227
2.23759
2.23222
2.22719
2.22147
2.21606
2.21002
2.20429
2.19801
2.192
2.18551
2.17923
2.1725
2.16596
2.159
2.15233
2.14531
2.13863
2.13159
2.12491
2.11792
2.11126
2.10434
2.09777
2.09098
2.08465
2.07814
2.07227
2.06634
2.06147
2.05703
2.05487
2.26329
2.21338
2.16984
2.13377
2.10821
2.09075
2.08086
2.07697
2.07725
2.0807
2.08762
2.09575
2.10646
2.11925
2.13289
2.15007
2.16524
2.1872
2.20665
2.23515
2.26375
2.29537
2.32953
2.36641
2.41149
2.4369
2.43281
2.40596
2.36902
2.32609
2.28833
2.2571
2.23535
2.22104
2.21729
2.22162
2.23135
2.24189
2.25096
2.25714
2.2613
2.26349
2.26477
2.26532
2.26507
2.26466
2.2637
2.26287
2.26114
2.2596
2.25731
2.2554
2.25278
2.2509
2.24817
2.24599
2.243
2.24088
2.23804
2.23592
2.23272
2.23004
2.22638
2.22323
2.21917
2.21555
2.21114
2.20714
2.20245
2.19813
2.19309
2.18843
2.18299
2.178
2.17219
2.16693
2.16084
2.15539
2.14913
2.14346
2.13696
2.13107
2.12439
2.11831
2.11149
2.10526
2.09835
2.09198
2.08505
2.0786
2.07169
2.06525
2.05842
2.05212
2.04548
2.03952
2.03341
2.02828
2.0236
2.02112
2.25961
2.21376
2.1713
2.13402
2.10406
2.0818
2.06558
2.05548
2.04943
2.04721
2.04752
2.05017
2.05382
2.06172
2.06766
2.0799
2.08864
2.10451
2.12151
2.14487
2.17181
2.20073
2.23946
2.28974
2.345
2.37012
2.3626
2.33778
2.30199
2.259
2.21756
2.18568
2.16408
2.14747
2.13848
2.1352
2.13965
2.15013
2.16352
2.17625
2.18713
2.19501
2.20089
2.20495
2.20752
2.20999
2.21082
2.21242
2.21279
2.21285
2.21273
2.21236
2.21144
2.21048
2.20842
2.20685
2.20398
2.20194
2.19913
2.19696
2.19397
2.19133
2.18814
2.18528
2.18186
2.1787
2.17489
2.17138
2.16714
2.16331
2.15867
2.15448
2.14945
2.14482
2.13941
2.13432
2.12855
2.12304
2.11697
2.11108
2.10484
2.09885
2.09253
2.08645
2.08007
2.0739
2.06744
2.06118
2.05467
2.04835
2.04184
2.03554
2.02909
2.0229
2.01662
2.0107
2.00481
1.9996
1.99492
1.99228
2.2548
2.21257
2.17252
2.13528
2.10373
2.07771
2.0577
2.04249
2.03191
2.02454
2.02023
2.0179
2.01797
2.01918
2.02203
2.028
2.03487
2.04529
2.06246
2.08235
2.10779
2.13966
2.18734
2.25594
2.3137
2.32966
2.31786
2.29379
2.25673
2.21362
2.17167
2.13889
2.11432
2.09837
2.08765
2.08162
2.0811
2.085
2.09518
2.11114
2.12664
2.14123
2.15219
2.16069
2.16636
2.17034
2.173
2.17499
2.17644
2.1772
2.17827
2.17818
2.17792
2.17734
2.176
2.17481
2.17241
2.17063
2.16811
2.16609
2.16318
2.16052
2.15721
2.15431
2.15081
2.14771
2.14394
2.1406
2.13651
2.13285
2.12839
2.12438
2.11959
2.11521
2.11012
2.10536
2.09997
2.09485
2.08909
2.08366
2.07767
2.07205
2.06583
2.06005
2.05368
2.04779
2.04137
2.03539
2.02896
2.0229
2.01645
2.01035
2.00392
1.99792
1.99162
1.98591
1.97999
1.97498
1.97021
1.96777
2.248
2.21001
2.17215
2.13662
2.10432
2.07686
2.05376
2.03563
2.02116
2.01021
2.00223
1.99604
1.99249
1.99002
1.99011
1.9915
1.99595
2.0062
2.02182
2.04111
2.06735
2.10778
2.17383
2.25245
2.30031
2.30509
2.29076
2.26372
2.22572
2.18226
2.14355
2.1108
2.08521
2.06601
2.05268
2.04377
2.03815
2.03617
2.03876
2.04644
2.06016
2.07638
2.09256
2.10636
2.11736
2.12531
2.13119
2.135
2.13789
2.13979
2.14121
2.14198
2.14262
2.14244
2.14201
2.1413
2.13971
2.13861
2.1367
2.13543
2.13308
2.13103
2.1281
2.12562
2.12235
2.11956
2.11595
2.1129
2.10901
2.10567
2.10151
2.09787
2.09348
2.08951
2.08485
2.08049
2.07543
2.07062
2.06516
2.06006
2.05433
2.049
2.04307
2.03752
2.03144
2.02566
2.01948
2.01353
2.00728
2.00126
1.99499
1.98895
1.98268
1.97669
1.97047
1.96465
1.95869
1.95344
1.94854
1.94575
2.23717
2.20411
2.16985
2.13621
2.10492
2.07678
2.05257
2.03162
2.01547
2.00095
1.99079
1.98154
1.97518
1.97024
1.96734
1.96744
1.97141
1.9819
1.99656
2.01758
2.05053
2.10681
2.19374
2.2687
2.29352
2.28821
2.27183
2.24229
2.20375
2.16303
2.1278
2.09683
2.07103
2.04939
2.0323
2.02002
2.01188
2.0067
2.00491
2.00611
2.0116
2.02292
2.03831
2.05565
2.07098
2.08451
2.09427
2.10186
2.10666
2.1105
2.11257
2.11456
2.11522
2.11604
2.11579
2.11525
2.11396
2.11281
2.11085
2.10946
2.10698
2.10475
2.10154
2.09884
2.09528
2.09234
2.08858
2.08551
2.08164
2.07838
2.0744
2.07093
2.06683
2.06314
2.05881
2.05477
2.05004
2.04557
2.04042
2.03558
2.0301
2.02496
2.01928
2.01391
2.0081
2.00255
1.99664
1.99093
1.98492
1.97909
1.97302
1.96717
1.96109
1.95537
1.94939
1.94392
1.93819
1.93326
1.92847
1.92589
2.22743
2.19667
2.16562
2.1343
2.10433
2.07644
2.05218
2.02981
2.01166
1.9962
1.98269
1.97283
1.96327
1.95755
1.9526
1.9527
1.95868
1.96904
1.98561
2.0118
2.05904
2.14019
2.23218
2.28105
2.28789
2.27799
2.25786
2.22602
2.18829
2.15267
2.12091
2.09172
2.06632
2.04341
2.0243
2.00835
1.99562
1.98709
1.98175
1.97856
1.97838
1.98147
1.98965
2.00243
2.01904
2.0352
2.05021
2.06166
2.0711
2.07702
2.08162
2.08412
2.08617
2.08689
2.08758
2.08729
2.08645
2.0856
2.08385
2.08276
2.08054
2.07876
2.07566
2.0732
2.06971
2.06692
2.06324
2.06026
2.05647
2.05332
2.0495
2.04621
2.04234
2.03885
2.03481
2.03102
2.02664
2.0225
2.01781
2.01332
2.00827
2.00345
1.9981
1.99301
1.98744
1.98213
1.97639
1.97094
1.96509
1.95956
1.95363
1.94804
1.94206
1.93644
1.93051
1.92499
1.91933
1.91427
1.90952
1.90676
2.21426
2.18756
2.15866
2.13011
2.10219
2.07531
2.0508
2.02931
2.00879
1.99295
1.97776
1.9661
1.95614
1.9486
1.94485
1.94661
1.95494
1.96703
1.98868
2.0281
2.09954
2.19828
2.2678
2.28714
2.28252
2.27066
2.24673
2.21377
2.17976
2.14864
2.11949
2.09255
2.06763
2.04464
2.02389
2.00532
1.98952
1.97693
1.96722
1.96131
1.95739
1.95592
1.95693
1.9619
1.97205
1.98681
2.00255
2.0187
2.03193
2.04273
2.05017
2.05545
2.0584
2.06033
2.06106
2.06129
2.06072
2.05994
2.05831
2.05732
2.05532
2.05362
2.05058
2.04802
2.04448
2.04158
2.03779
2.03466
2.0308
2.02756
2.02371
2.02042
2.01657
2.01317
2.00919
2.00561
2.00138
1.99751
1.99306
1.98891
1.98419
1.97973
1.97476
1.97001
1.9648
1.95978
1.95431
1.94906
1.94342
1.93806
1.93234
1.92698
1.92124
1.91594
1.91026
1.90512
1.89965
1.89495
1.89031
1.88782
2.20106
2.17686
2.15169
2.12482
2.09889
2.07363
2.04931
2.02806
2.00808
1.99032
1.97569
1.96201
1.9522
1.94413
1.94331
1.94812
1.95834
1.97572
2.0095
2.07138
2.16917
2.25194
2.28637
2.28836
2.27992
2.26243
2.23578
2.20497
2.17596
2.14829
2.12185
2.0966
2.07234
2.04932
2.02788
2.00794
1.99021
1.97416
1.96082
1.95
1.94245
1.93799
1.93517
1.93464
1.93694
1.94344
1.95545
1.9702
1.98596
2.00031
2.01236
2.02134
2.02753
2.03135
2.03343
2.03425
2.03415
2.03342
2.03183
2.03085
2.02885
2.02743
2.02458
2.02226
2.01879
2.01603
2.01229
2.00925
2.00541
2.00225
1.99841
1.99518
1.99138
1.98809
1.98423
1.98076
1.97671
1.973
1.9687
1.96473
1.96017
1.95596
1.95121
1.94685
1.94195
1.93741
1.93233
1.92757
1.92226
1.91733
1.91183
1.90677
1.9012
1.89607
1.89057
1.88553
1.88027
1.87569
1.87124
1.86883
2.18694
2.16456
2.14153
2.11782
2.09308
2.06965
2.04681
2.02499
2.00624
1.98811
1.97302
1.96002
1.95014
1.94516
1.94757
1.95574
1.97132
1.999
2.05339
2.14688
2.23937
2.28357
2.29123
2.28596
2.27424
2.25289
2.22637
2.20015
2.175
2.15034
2.12592
2.10198
2.07818
2.05557
2.03341
2.01292
1.99335
1.97561
1.95953
1.94551
1.93414
1.92503
1.91956
1.91578
1.91378
1.91387
1.91755
1.92617
1.93885
1.95351
1.96817
1.98101
1.99119
1.99853
2.00312
2.00573
2.00658
2.00644
2.00521
2.00423
2.00236
2.00109
1.9985
1.99639
1.99301
1.99035
1.98664
1.98366
1.97975
1.97657
1.97258
1.9693
1.96532
1.96201
1.95805
1.9546
1.95061
1.94711
1.94309
1.93952
1.93539
1.93166
1.92733
1.92338
1.91882
1.91458
1.90977
1.90528
1.90024
1.89556
1.89037
1.88559
1.88035
1.87555
1.87036
1.86566
1.86065
1.85638
1.8521
1.84985
2.17342
2.15215
2.13102
2.10984
2.08757
2.06538
2.04409
2.02324
2.00397
1.98694
1.97146
1.95919
1.95123
1.95166
1.95856
1.97104
1.9952
2.04428
2.12925
2.22596
2.28106
2.29412
2.2911
2.28279
2.26726
2.24364
2.22034
2.19721
2.17497
2.15199
2.12912
2.10589
2.08333
2.06061
2.03895
2.01764
1.99773
1.97853
1.96123
1.94485
1.93086
1.91846
1.90827
1.90114
1.89656
1.89326
1.89158
1.89256
1.89769
1.90722
1.92015
1.93386
1.94743
1.9586
1.96742
1.97304
1.97646
1.97768
1.97763
1.97675
1.975
1.97389
1.97156
1.96976
1.96645
1.96395
1.96027
1.9574
1.9535
1.95039
1.94642
1.9432
1.93927
1.93601
1.93217
1.92883
1.92499
1.92162
1.91775
1.91432
1.91034
1.90682
1.90273
1.89909
1.89487
1.89107
1.88667
1.88266
1.87804
1.87381
1.86903
1.86461
1.85973
1.85521
1.85033
1.8459
1.84118
1.8372
1.83321
1.83111
2.16
2.13916
2.11866
2.09909
2.07905
2.05855
2.03859
2.01943
2.00113
1.98465
1.97094
1.96034
1.95823
1.96348
1.97465
1.9965
2.04046
2.1191
2.21477
2.27634
2.29589
2.29488
2.28844
2.27521
2.25618
2.23525
2.21506
2.19495
2.17444
2.15352
2.13196
2.11017
2.08767
2.06578
2.04367
2.02272
2.00204
1.98252
1.96388
1.94629
1.93033
1.91537
1.90266
1.89166
1.88303
1.87709
1.87245
1.8697
1.86813
1.87013
1.87631
1.88676
1.89941
1.91264
1.92475
1.93455
1.9418
1.9461
1.94844
1.94858
1.94761
1.94665
1.94468
1.94319
1.94016
1.93789
1.93429
1.93158
1.92775
1.92471
1.92075
1.91749
1.91353
1.91019
1.90627
1.90292
1.89901
1.89573
1.89188
1.88866
1.88486
1.88166
1.87786
1.87457
1.87065
1.86717
1.86309
1.85939
1.85516
1.85128
1.84695
1.84295
1.83856
1.8345
1.83008
1.82613
1.82186
1.81831
1.81474
1.81287
2.14649
2.12738
2.10812
2.08938
2.07076
2.05212
2.03291
2.01507
1.99791
1.98267
1.97107
1.96653
1.97027
1.98111
2.00104
2.0414
2.11417
2.20789
2.27325
2.29658
2.29808
2.29281
2.28159
2.26466
2.24644
2.22868
2.21118
2.19296
2.17419
2.15417
2.13346
2.11196
2.09029
2.06864
2.04722
2.02615
2.00554
1.98548
1.96641
1.94795
1.93093
1.91432
1.89997
1.88585
1.87453
1.86425
1.857
1.8512
1.84656
1.84413
1.84316
1.84631
1.85369
1.86479
1.87719
1.88989
1.9007
1.90945
1.91501
1.91827
1.91913
1.9187
1.91735
1.91624
1.91389
1.91192
1.90841
1.90572
1.90185
1.89884
1.89484
1.89162
1.88761
1.88425
1.88026
1.87688
1.87305
1.86977
1.86608
1.86295
1.85935
1.85632
1.85275
1.84974
1.84616
1.84307
1.83941
1.83619
1.83243
1.82903
1.82517
1.82165
1.81771
1.81414
1.81022
1.80675
1.80302
1.79995
1.79693
1.79537
2.13124
2.11524
2.09602
2.07786
2.06064
2.04354
2.02655
2.00989
1.99498
1.98241
1.97555
1.97807
1.98852
2.00715
2.04475
2.11302
2.20407
2.27152
2.29699
2.30009
2.29548
2.28533
2.26972
2.25315
2.23745
2.22213
2.2063
2.18943
2.17122
2.15201
2.13189
2.11137
2.0905
2.06953
2.04851
2.02774
2.00714
1.98743
1.96786
1.9493
1.93106
1.91399
1.89768
1.88234
1.86865
1.85563
1.84534
1.83577
1.82955
1.82333
1.81988
1.81736
1.81792
1.82213
1.83077
1.84166
1.8543
1.8656
1.87561
1.88256
1.8871
1.8891
1.88905
1.88826
1.88664
1.8852
1.88224
1.87977
1.87588
1.8732
1.86908
1.86626
1.86197
1.85899
1.85465
1.85156
1.84745
1.84445
1.84064
1.83772
1.83418
1.83133
1.82799
1.8252
1.82195
1.81914
1.8159
1.81303
1.80972
1.80676
1.80335
1.80031
1.79687
1.79382
1.79045
1.78756
1.78444
1.78199
1.77959
1.77845
2.11439
2.10264
2.08508
2.06748
2.05042
2.03461
2.01848
2.00407
1.99134
1.98451
1.98628
1.99654
2.01444
2.05036
2.1156
2.20361
2.27149
2.29846
2.30235
2.29775
2.28738
2.27186
2.25607
2.24177
2.22835
2.21443
2.19967
2.18327
2.1661
2.14756
2.12873
2.10889
2.08888
2.06841
2.04791
2.02758
2.00735
1.98771
1.968
1.94939
1.93055
1.91319
1.89567
1.87987
1.8641
1.85021
1.83682
1.82539
1.81553
1.80747
1.8012
1.79548
1.79263
1.79087
1.79247
1.79791
1.80728
1.81832
1.83033
1.84069
1.84955
1.8551
1.85869
1.85942
1.85909
1.85795
1.85658
1.85407
1.85118
1.84774
1.84438
1.84083
1.83728
1.83372
1.82999
1.82652
1.82274
1.8195
1.81579
1.81289
1.80933
1.80674
1.80333
1.80097
1.7977
1.79544
1.79229
1.78996
1.78695
1.78444
1.78149
1.77891
1.77599
1.77347
1.77072
1.76844
1.76604
1.76429
1.76265
1.76193
2.09248
2.08767
2.07454
2.05716
2.04106
2.02624
2.01229
2.00036
1.99204
1.9936
2.00417
2.02197
2.05671
2.12053
2.20669
2.27363
2.30006
2.30383
2.2991
2.28794
2.27224
2.25628
2.24319
2.23071
2.21878
2.20547
2.19159
2.17578
2.15961
2.14158
2.12369
2.10421
2.08528
2.06506
2.04575
2.02544
2.00609
1.98616
1.967
1.94792
1.92925
1.91135
1.89353
1.87704
1.86042
1.84563
1.83064
1.81793
1.80519
1.79511
1.78578
1.77872
1.77204
1.76748
1.76514
1.76426
1.76687
1.77337
1.78295
1.79425
1.80533
1.81513
1.82263
1.82727
1.82975
1.82975
1.82901
1.82794
1.82581
1.82329
1.81965
1.81648
1.81256
1.80931
1.80534
1.80212
1.79822
1.7951
1.79135
1.78844
1.78492
1.78225
1.77906
1.77659
1.77369
1.77142
1.76868
1.76659
1.76394
1.76197
1.75943
1.75753
1.75511
1.75342
1.75121
1.74992
1.74822
1.74741
1.74671
1.74648
2.06868
2.06996
2.06142
2.04734
2.02972
2.01628
2.00463
1.99785
1.99975
2.01101
2.02906
2.06444
2.12818
2.21317
2.27845
2.30331
2.30637
2.30116
2.28882
2.2715
2.25568
2.24257
2.23119
2.2199
2.20829
2.19539
2.18169
2.16654
2.15074
2.13366
2.11626
2.09776
2.07934
2.05994
2.04109
2.02125
2.00245
1.98255
1.96418
1.94462
1.92684
1.9081
1.89103
1.87349
1.8573
1.84126
1.82609
1.81181
1.79794
1.78594
1.77396
1.765
1.75581
1.74945
1.7426
1.73965
1.7374
1.73802
1.74158
1.74892
1.75869
1.77009
1.78032
1.7895
1.79561
1.7997
1.80091
1.80083
1.79997
1.79868
1.79621
1.79287
1.78954
1.7857
1.78232
1.77855
1.7751
1.77149
1.76802
1.76464
1.76134
1.75823
1.7553
1.7525
1.75
1.74755
1.74536
1.74333
1.74129
1.73968
1.73781
1.73648
1.735
1.73386
1.73296
1.73218
1.73196
1.73206
1.73276
1.73286
2.03879
2.05151
2.04864
2.03756
2.02253
2.00863
2.00099
2.00335
2.01598
2.03464
2.07206
2.1375
2.2224
2.2851
2.30789
2.30959
2.30355
2.28946
2.26988
2.25417
2.2408
2.23037
2.21942
2.20894
2.19672
2.18434
2.17022
2.15596
2.14019
2.12424
2.10711
2.08978
2.07164
2.0534
2.03468
2.01591
1.99714
1.97815
1.95977
1.94082
1.92316
1.9045
1.8878
1.86964
1.85398
1.83654
1.82194
1.8056
1.7922
1.7775
1.76551
1.75317
1.74314
1.73403
1.72612
1.71952
1.71406
1.71187
1.71053
1.71216
1.71683
1.72509
1.73529
1.74632
1.75613
1.76428
1.76953
1.77264
1.77321
1.77281
1.77194
1.77009
1.76701
1.76371
1.75981
1.75654
1.75273
1.74953
1.74593
1.74271
1.73942
1.73626
1.73333
1.7304
1.72787
1.72535
1.72319
1.72119
1.71933
1.71793
1.71643
1.71562
1.71474
1.71446
1.71458
1.71482
1.71563
1.71731
1.71883
1.71984
1.98468
2.02265
2.02933
2.02505
2.01593
2.00585
2.00629
2.01871
2.039
2.07937
2.14796
2.23482
2.29435
2.3149
2.3138
2.30628
2.29017
2.27003
2.25288
2.23979
2.22853
2.2183
2.20767
2.19668
2.1846
2.17197
2.15816
2.14395
2.12861
2.11311
2.09653
2.08001
2.06245
2.04509
2.02678
2.00899
1.99023
1.97246
1.95364
1.93617
1.91769
1.90057
1.88273
1.86598
1.84898
1.83265
1.81681
1.80107
1.78662
1.77168
1.75876
1.74503
1.73392
1.72213
1.71355
1.70427
1.6976
1.69067
1.68756
1.6854
1.68578
1.68825
1.69401
1.70301
1.71345
1.72399
1.73318
1.74023
1.74457
1.74662
1.74663
1.74614
1.74489
1.74232
1.73907
1.73532
1.73203
1.72823
1.72511
1.72154
1.71854
1.7153
1.71242
1.70961
1.70695
1.70466
1.70237
1.70064
1.69891
1.69778
1.69681
1.69641
1.69656
1.69692
1.6978
1.69952
1.70112
1.70432
1.70814
1.71034
1.88831
1.9906
2.01071
2.01299
2.00952
2.00974
2.02049
2.04367
2.0865
2.15984
2.24788
2.30423
2.32287
2.32033
2.31006
2.29039
2.26913
2.25183
2.23832
2.22708
2.21686
2.20657
2.19588
2.1844
2.17224
2.15927
2.14571
2.13149
2.11678
2.1015
2.08578
2.06956
2.05296
2.036
2.01879
2.00133
1.98379
1.96609
1.9484
1.93081
1.91309
1.89588
1.87829
1.86168
1.84445
1.82864
1.81198
1.79702
1.78118
1.76705
1.75229
1.7392
1.72582
1.71428
1.70281
1.6934
1.68441
1.67687
1.66985
1.66512
1.66236
1.66192
1.66309
1.66651
1.67344
1.68296
1.6936
1.70361
1.71215
1.71806
1.72167
1.7227
1.72251
1.72177
1.71998
1.71712
1.71345
1.70998
1.70616
1.70299
1.69942
1.69649
1.69333
1.69058
1.68798
1.68554
1.68358
1.68166
1.68048
1.67935
1.67916
1.67942
1.68003
1.68145
1.68288
1.68582
1.68948
1.69468
1.70063
1.70422
1.70475
1.92009
1.98266
2.00002
2.00849
2.02099
2.04694
2.09776
2.17906
2.26776
2.31796
2.33216
2.32798
2.31371
2.29156
2.26925
2.25153