/*--------------------------------*- C++ -*----------------------------------*\
  =========                 |
  \\      /  F ield         | OpenFOAM: The Open Source CFD Toolbox
   \\    /   O peration     | Website:  https://openfoam.org
    \\  /    A nd           | Version:  13
     \\/     M anipulation  |
\*---------------------------------------------------------------------------*/
FoamFile
{
    format      ascii;
    class       volVectorField;
    location    "6";
    object      U;
}
// * * * * * * * * * * * * * * * * * * * * * * * * * * * * * * * * * * * * * //

dimensions      [0 1 -1 0 0 0 0];

internalField   nonuniform List<vector> 
5250
(
(3 1.1963e-08 0)
(2.99999 6.17877e-08 0)
(2.99996 2.75e-07 0)
(2.9999 6.17255e-07 0)
(2.99977 1.95524e-06 0)
(2.99942 4.59266e-06 0)
(2.99858 1.24711e-05 0)
(2.99644 3.12879e-05 0)
(2.99125 7.51725e-05 0)
(2.97802 0.000193698 0)
(2.94376 0.000472587 0)
(2.84919 0.00124829 0)
(2.5738 0.00340893 0)
(1.77492 0.00980001 0)
(0.817181 0.0258761 0)
(0.468493 0.0242239 0)
(0.538154 0.0244187 0)
(0.554433 0.0262492 0)
(0.500284 0.0280745 0)
(0.411005 0.0298877 0)
(0.327469 0.032078 0)
(0.259402 0.034629 0)
(0.191073 0.0372557 0)
(0.113962 0.0402474 0)
(0.0491256 0.0443177 0)
(3 3.6318e-08 0)
(2.99999 2.25894e-07 0)
(2.99996 7.60463e-07 0)
(2.99991 2.25797e-06 0)
(2.99977 5.66867e-06 0)
(2.99942 1.49573e-05 0)
(2.9986 3.75494e-05 0)
(2.99649 9.18497e-05 0)
(2.99139 0.00023633 0)
(2.97835 0.000572024 0)
(2.94464 0.00147257 0)
(2.85163 0.00381625 0)
(2.58083 0.0106024 0)
(1.79291 0.030415 0)
(0.827311 0.078857 0)
(0.464703 0.0698606 0)
(0.537485 0.0672684 0)
(0.554965 0.0702334 0)
(0.500553 0.07318 0)
(0.411361 0.0761736 0)
(0.327932 0.0796668 0)
(0.259381 0.0834733 0)
(0.19012 0.0868838 0)
(0.111782 0.0900775 0)
(0.0463996 0.0929036 0)
(3 8.26911e-08 0)
(2.99999 3.296e-07 0)
(2.99996 1.6115e-06 0)
(2.99991 3.19722e-06 0)
(2.99978 1.1737e-05 0)
(2.99944 2.13179e-05 0)
(2.99864 7.35863e-05 0)
(2.9966 0.0001338 0)
(2.99165 0.000439663 0)
(2.97905 0.000896806 0)
(2.94648 0.00257973 0)
(2.85675 0.00637112 0)
(2.59609 0.0180525 0)
(1.83294 0.0518601 0)
(0.851545 0.136068 0)
(0.460357 0.118494 0)
(0.539757 0.112822 0)
(0.560138 0.117956 0)
(0.505693 0.12353 0)
(0.416976 0.129805 0)
(0.33383 0.136473 0)
(0.264681 0.143456 0)
(0.194195 0.150003 0)
(0.11413 0.155751 0)
(0.0465463 0.1593 0)
(3 1.05431e-07 0)
(2.99999 4.96138e-07 0)
(2.99997 2.11242e-06 0)
(2.99991 4.75365e-06 0)
(2.99979 1.56449e-05 0)
(2.99948 3.10533e-05 0)
(2.99869 9.95698e-05 0)
(2.99679 0.000193884 0)
(2.99202 0.000598302 0)
(2.98014 0.00126762 0)
(2.9492 0.00354888 0)
(2.86455 0.00884951 0)
(2.61891 0.0249733 0)
(1.8953 0.0718534 0)
(0.889794 0.19212 0)
(0.456172 0.166942 0)
(0.545606 0.157983 0)
(0.570695 0.165209 0)
(0.51657 0.173526 0)
(0.428606 0.183557 0)
(0.345537 0.193788 0)
(0.275624 0.204424 0)
(0.20351 0.214822 0)
(0.120537 0.223926 0)
(0.04886 0.22873 0)
(3 8.74171e-08 0)
(2.99999 7.3488e-07 0)
(2.99997 2.03456e-06 0)
(2.99992 7.23838e-06 0)
(2.9998 1.54896e-05 0)
(2.99951 4.75783e-05 0)
(2.99878 0.000100466 0)
(2.99702 0.000290773 0)
(2.99255 0.000637876 0)
(2.98151 0.00174201 0)
(2.9528 0.00415891 0)
(2.87463 0.0111998 0)
(2.64897 0.0306556 0)
(1.97876 0.088966 0)
(0.943809 0.243712 0)
(0.456287 0.21518 0)
(0.556757 0.20309 0)
(0.58761 0.211746 0)
(0.533983 0.222506 0)
(0.446924 0.23657 0)
(0.363586 0.250828 0)
(0.29251 0.265756 0)
(0.218175 0.280856 0)
(0.131003 0.29445 0)
(0.053287 0.301522 0)
(3 1.18913e-07 0)
(2.99999 7.33192e-07 0)
(2.99997 2.59961e-06 0)
(2.99993 7.24959e-06 0)
(2.99982 1.93109e-05 0)
(2.99955 4.90428e-05 0)
(2.9989 0.000121681 0)
(2.99724 0.000307063 0)
(2.99323 0.000755331 0)
(2.98307 0.00190122 0)
(2.9571 0.00480209 0)
(2.88663 0.012561 0)
(2.68439 0.0347278 0)
(2.08161 0.10092 0)
(1.0162 0.286535 0)
(0.468743 0.265693 0)
(0.576371 0.252255 0)
(0.612767 0.260405 0)
(0.559943 0.272324 0)
(0.473972 0.290329 0)
(0.389763 0.309113 0)
(0.317012 0.329299 0)
(0.239837 0.350612 0)
(0.146963 0.370895 0)
(0.0605798 0.38263 0)
(3 1.34697e-07 0)
(2.99999 6.91023e-07 0)
(2.99997 2.78322e-06 0)
(2.99993 6.74548e-06 0)
(2.99983 2.06426e-05 0)
(2.9996 4.5145e-05 0)
(2.99899 0.000130724 0)
(2.99755 0.000283863 0)
(2.99388 0.000799487 0)
(2.98488 0.0018175 0)
(2.96169 0.00489181 0)
(2.89967 0.0123263 0)
(2.7233 0.034303 0)
(2.19998 0.0990726 0)
(1.11748 0.290867 0)
(0.51398 0.306253 0)
(0.612917 0.303165 0)
(0.650102 0.310556 0)
(0.597946 0.323301 0)
(0.513137 0.345525 0)
(0.427168 0.369733 0)
(0.351844 0.39643 0)
(0.271189 0.425892 0)
(0.171283 0.456271 0)
(0.0727366 0.477695 0)
(3 9.46594e-08 0)
(2.99999 7.35134e-07 0)
(2.99998 2.18301e-06 0)
(2.99994 7.19858e-06 0)
(2.99985 1.63535e-05 0)
(2.99964 4.75929e-05 0)
(2.9991 0.000103716 0)
(2.9978 0.000292729 0)
(2.99451 0.000646054 0)
(2.98648 0.00176005 0)
(2.96586 0.00413971 0)
(2.91123 0.0110191 0)
(2.75714 0.0293228 0)
(2.30249 0.083893 0)
(1.22753 0.249566 0)
(0.561449 0.3374 0)
(0.641853 0.35976 0)
(0.679889 0.361941 0)
(0.635308 0.375258 0)
(0.556994 0.401661 0)
(0.472409 0.432653 0)
(0.396574 0.467669 0)
(0.314172 0.507899 0)
(0.208221 0.553576 0)
(0.0935914 0.59567 0)
(3 9.1436e-08 0)
(2.99999 6.65254e-07 0)
(2.99998 2.10418e-06 0)
(2.99995 6.48959e-06 0)
(2.99987 1.55888e-05 0)
(2.99967 4.32257e-05 0)
(2.9992 9.64152e-05 0)
(2.998 0.000268008 0)
(2.9951 0.000587044 0)
(2.98779 0.00160502 0)
(2.9694 0.00370696 0)
(2.92065 0.00984245 0)
(2.78385 0.0256809 0)
(2.38086 0.072439 0)
(1.34729 0.214003 0)
(0.62111 0.381863 0)
(0.654617 0.41583 0)
(0.687375 0.412597 0)
(0.662372 0.427964 0)
(0.598309 0.456448 0)
(0.521381 0.495817 0)
(0.449806 0.541082 0)
(0.370969 0.594944 0)
(0.266016 0.665408 0)
(0.131604 0.751594 0)
(3 1.03469e-07 0)
(2.99999 6.00024e-07 0)
(2.99998 2.19142e-06 0)
(2.99995 5.80553e-06 0)
(2.99988 1.62657e-05 0)
(2.99971 3.8255e-05 0)
(2.99928 0.000102914 0)
(2.99821 0.000235297 0)
(2.99563 0.000627024 0)
(2.98908 0.00144944 0)
(2.97272 0.00377909 0)
(2.92953 0.00933217 0)
(2.80895 0.0250033 0)
(2.45579 0.0695653 0)
(1.49695 0.204578 0)
(0.711773 0.431714 0)
(0.660742 0.455582 0)
(0.690179 0.455028 0)
(0.683448 0.475453 0)
(0.636482 0.506973 0)
(0.573753 0.554834 0)
(0.511634 0.611284 0)
(0.446889 0.685312 0)
(0.361205 0.799209 0)
(0.203334 1.00561 0)
(3 1.01892e-07 0)
(2.99999 6.01647e-07 0)
(2.99998 2.17509e-06 0)
(2.99996 5.88077e-06 0)
(2.9999 1.61558e-05 0)
(2.99974 3.90975e-05 0)
(2.99936 0.000102236 0)
(2.99843 0.000241218 0)
(2.99611 0.000623314 0)
(2.99042 0.001488 0)
(2.97597 0.00378738 0)
(2.93831 0.00947306 0)
(2.83398 0.0250752 0)
(2.52935 0.0697898 0)
(1.66892 0.203288 0)
(0.823873 0.478972 0)
(0.666999 0.487817 0)
(0.698187 0.490016 0)
(0.706208 0.513352 0)
(0.675181 0.550749 0)
(0.62954 0.60436 0)
(0.585911 0.671849 0)
(0.554955 0.765073 0)
(0.552279 0.908609 0)
(0.589747 1.15197 0)
(3 9.86083e-08 0)
(2.99999 6.27505e-07 0)
(2.99999 2.1593e-06 0)
(2.99996 6.17108e-06 0)
(2.99991 1.60371e-05 0)
(2.99978 4.12647e-05 0)
(2.99945 0.000100869 0)
(2.99864 0.000255543 0)
(2.99666 0.000617783 0)
(2.99172 0.00155998 0)
(2.97937 0.0038242 0)
(2.94728 0.00974093 0)
(2.85918 0.0254436 0)
(2.60421 0.0706327 0)
(1.86147 0.204675 0)
(0.958207 0.522687 0)
(0.679631 0.520635 0)
(0.713191 0.52171 0)
(0.734364 0.543649 0)
(0.717419 0.586258 0)
(0.688939 0.643492 0)
(0.66822 0.718569 0)
(0.672712 0.820009 0)
(0.73024 0.959762 0)
(0.871202 1.14218 0)
(3 1.00089e-07 0)
(3 6.16816e-07 0)
(2.99999 2.14712e-06 0)
(2.99997 6.04244e-06 0)
(2.99992 1.60434e-05 0)
(2.99981 4.00372e-05 0)
(2.99954 0.000102513 0)
(2.99887 0.000247126 0)
(2.9972 0.000634223 0)
(2.99309 0.00152335 0)
(2.98279 0.00390358 0)
(2.95633 0.0097055 0)
(2.88476 0.0255745 0)
(2.67921 0.0704418 0)
(2.07147 0.20459 0)
(1.11739 0.559476 0)
(0.713006 0.562272 0)
(0.742183 0.561415 0)
(0.772061 0.573928 0)
(0.766904 0.615685 0)
(0.752049 0.674238 0)
(0.751812 0.749717 0)
(0.7815 0.846041 0)
(0.86356 0.962189 0)
(1.02258 1.07537 0)
(3 9.11504e-08 0)
(3 5.40771e-07 0)
(2.99999 1.97593e-06 0)
(2.99998 5.2792e-06 0)
(2.99994 1.46519e-05 0)
(2.99985 3.54577e-05 0)
(2.99962 9.19742e-05 0)
(2.99909 0.000222409 0)
(2.99773 0.000559661 0)
(2.99445 0.00137971 0)
(2.98619 0.00343274 0)
(2.96535 0.00863809 0)
(2.90994 0.0223361 0)
(2.75458 0.0608178 0)
(2.29893 0.175206 0)
(1.33052 0.51047 0)
(0.802841 0.588503 0)
(0.799425 0.605375 0)
(0.823931 0.610948 0)
(0.827815 0.644708 0)
(0.820546 0.69893 0)
(0.831415 0.768022 0)
(0.874083 0.850443 0)
(0.961255 0.940612 0)
(1.11079 1.01355 0)
(3 6.80751e-08 0)
(3 4.85108e-07 0)
(2.99999 1.51965e-06 0)
(2.99998 4.72302e-06 0)
(2.99995 1.13086e-05 0)
(2.99988 3.10546e-05 0)
(2.9997 7.13995e-05 0)
(2.99926 0.00019024 0)
(2.99816 0.000438204 0)
(2.99549 0.00114602 0)
(2.98884 0.00269495 0)
(2.97211 0.00692352 0)
(2.92822 0.0172597 0)
(2.80664 0.046119 0)
(2.45341 0.129156 0)
(1.54416 0.387187 0)
(0.895033 0.616049 0)
(0.846127 0.648907 0)
(0.866754 0.657348 0)
(0.884108 0.677145 0)
(0.886679 0.720968 0)
(0.904026 0.779427 0)
(0.951303 0.846351 0)
(1.03578 0.914858 0)
(1.1692 0.966362 0)
(3 6.27046e-08 0)
(3 3.97763e-07 0)
(2.99999 1.34906e-06 0)
(2.99998 3.88856e-06 0)
(2.99996 1.00093e-05 0)
(2.9999 2.55557e-05 0)
(2.99976 6.31713e-05 0)
(2.99939 0.000155767 0)
(2.99852 0.000386324 0)
(2.99632 0.000937711 0)
(2.991 0.00234729 0)
(2.97746 0.00573144 0)
(2.94253 0.0145747 0)
(2.84642 0.0379103 0)
(2.56907 0.10497 0)
(1.78988 0.308565 0)
(1.02768 0.65876 0)
(0.875992 0.686222 0)
(0.893869 0.697507 0)
(0.923449 0.706523 0)
(0.94252 0.739831 0)
(0.967058 0.787641 0)
(1.01565 0.841075 0)
(1.09492 0.893089 0)
(1.21188 0.931163 0)
(3 5.61358e-08 0)
(3 3.4267e-07 0)
(2.99999 1.20841e-06 0)
(2.99999 3.34491e-06 0)
(2.99997 8.9824e-06 0)
(2.99992 2.21644e-05 0)
(2.9998 5.67508e-05 0)
(2.99952 0.000136423 0)
(2.99881 0.000346761 0)
(2.99712 0.000829545 0)
(2.99283 0.00211123 0)
(2.98229 0.0051176 0)
(2.955 0.0130819 0)
(2.88136 0.0337882 0)
(2.67079 0.0931246 0)
(2.05366 0.270279 0)
(1.2065 0.684757 0)
(0.915021 0.717577 0)
(0.922398 0.727667 0)
(0.95688 0.730598 0)
(0.990262 0.753554 0)
(1.02163 0.792621 0)
(1.07005 0.83598 0)
(1.14331 0.87616 0)
(1.24555 0.90478 0)
(3 4.43897e-08 0)
(3 2.97328e-07 0)
(3 9.88523e-07 0)
(2.99999 2.89595e-06 0)
(2.99998 7.36229e-06 0)
(2.99994 1.92264e-05 0)
(2.99985 4.62383e-05 0)
(2.99963 0.000119344 0)
(2.9991 0.000281456 0)
(2.9978 0.000729866 0)
(2.99458 0.00172191 0)
(2.98661 0.00443947 0)
(2.96641 0.0108344 0)
(2.91305 0.0283475 0)
(2.7644 0.076306 0)
(2.32871 0.219933 0)
(1.45385 0.620712 0)
(1.0074 0.730415 0)
(0.973998 0.750245 0)
(0.99676 0.755857 0)
(1.03653 0.767976 0)
(1.07291 0.797456 0)
(1.11901 0.832069 0)
(1.18515 0.863356 0)
(1.27431 0.884994 0)
(3 3.83284e-08 0)
(3 2.26292e-07 0)
(3 8.17862e-07 0)
(2.99999 2.20711e-06 0)
(2.99998 6.04529e-06 0)
(2.99995 1.46116e-05 0)
(2.99989 3.78707e-05 0)
(2.99972 8.98136e-05 0)
(2.99932 0.00022906 0)
(2.99832 0.000546173 0)
(2.99592 0.00137685 0)
(2.98988 0.00332899 0)
(2.97491 0.00836719 0)
(2.93588 0.0210067 0)
(2.82899 0.0556576 0)
(2.5219 0.155432 0)
(1.72289 0.463176 0)
(1.12088 0.738553 0)
(1.02737 0.771973 0)
(1.03779 0.785655 0)
(1.07721 0.788701 0)
(1.11874 0.806478 0)
(1.16315 0.831606 0)
(1.22252 0.85506 0)
(1.30042 0.870949 0)
(3 2.92377e-08 0)
(3 1.84824e-07 0)
(3 6.3198e-07 0)
(2.99999 1.803e-06 0)
(2.99999 4.68215e-06 0)
(2.99997 1.18721e-05 0)
(2.99991 2.93825e-05 0)
(2.99979 7.25193e-05 0)
(2.99948 0.000178944 0)
(2.99875 0.000436254 0)
(2.99689 0.00108163 0)
(2.99243 0.00263963 0)
(2.98112 0.00655201 0)
(2.95232 0.0164092 0)
(2.87435 0.0425343 0)
(2.65248 0.116478 0)
(2.01704 0.342766 0)
(1.28442 0.755858 0)
(1.0723 0.801515 0)
(1.07077 0.81543 0)
(1.10728 0.813347 0)
(1.15564 0.817047 0)
(1.20125 0.832994 0)
(1.25576 0.850039 0)
(1.32452 0.861417 0)
(3 2.2955e-08 0)
(3 1.46505e-07 0)
(3 5.01988e-07 0)
(3 1.42993e-06 0)
(2.99999 3.71488e-06 0)
(2.99997 9.47592e-06 0)
(2.99994 2.32441e-05 0)
(2.99985 5.83131e-05 0)
(2.99963 0.000141029 0)
(2.99907 0.000353899 0)
(2.99776 0.000853028 0)
(2.99444 0.002143 0)
(2.98638 0.00522369 0)
(2.96579 0.0131696 0)
(2.91161 0.0337219 0)
(2.76087 0.0911233 0)
(2.31883 0.262663 0)
(1.52619 0.697029 0)
(1.15547 0.814286 0)
(1.11758 0.833605 0)
(1.13833 0.836022 0)
(1.18647 0.830339 0)
(1.23609 0.83668 0)
(1.28713 0.847663 0)
(1.34806 0.855362 0)
(3 1.79192e-08 0)
(3 1.1267e-07 0)
(3 3.84787e-07 0)
(3 1.09722e-06 0)
(2.99999 2.84706e-06 0)
(2.99998 7.19754e-06 0)
(2.99995 1.7943e-05 0)
(2.99989 4.36412e-05 0)
(2.99973 0.000109348 0)
(2.99935 0.000261314 0)
(2.99839 0.000660511 0)
(2.99607 0.00157138 0)
(2.99031 0.00398281 0)
(2.97605 0.00964278 0)
(2.93907 0.024726 0)
(2.83895 0.0646821 0)
(2.55172 0.181638 0)
(1.82282 0.529219 0)
(1.27899 0.810059 0)
(1.17269 0.84386 0)
(1.17546 0.856043 0)
(1.21538 0.849059 0)
(1.26682 0.844863 0)
(1.31655 0.848673 0)
(1.37148 0.852618 0)
(3 1.27453e-08 0)
(3 8.56176e-08 0)
(3 2.81943e-07 0)
(3 8.33639e-07 0)
(2.99999 2.08971e-06 0)
(2.99999 5.49083e-06 0)
(2.99997 1.30666e-05 0)
(2.99992 3.35428e-05 0)
(2.99981 7.91798e-05 0)
(2.99953 0.000201069 0)
(2.99885 0.000478182 0)
(2.99721 0.00120269 0)
(2.99311 0.00289671 0)
(2.98304 0.00724772 0)
(2.95728 0.017941 0)
(2.88857 0.0465265 0)
(2.69532 0.126156 0)
(2.13912 0.370788 0)
(1.45271 0.808318 0)
(1.22574 0.867021 0)
(1.21175 0.876561 0)
(1.23927 0.870069 0)
(1.29048 0.857701 0)
(1.34243 0.854148 0)
(1.39428 0.853778 0)
(3 9.8488e-09 0)
(3 6.05598e-08 0)
(3 2.14312e-07 0)
(3 5.88598e-07 0)
(3 1.58275e-06 0)
(2.99999 3.89426e-06 0)
(2.99998 9.83806e-06 0)
(2.99995 2.39643e-05 0)
(2.99987 5.89454e-05 0)
(2.99968 0.000145128 0)
(2.99922 0.000351328 0)
(2.99809 0.000876878 0)
(2.99535 0.00210549 0)
(2.98857 0.00529803 0)
(2.97171 0.0129307 0)
(2.92794 0.0332677 0)
(2.80936 0.0881769 0)
(2.46456 0.253438 0)
(1.7341 0.677774 0)
(1.32974 0.856044 0)
(1.26587 0.881542 0)
(1.27409 0.886235 0)
(1.3165 0.873466 0)
(1.36817 0.863755 0)
(1.41745 0.859026 0)
(3 7.1877e-09 0)
(3 4.27013e-08 0)
(3 1.53418e-07 0)
(3 4.15094e-07 0)
(3 1.12774e-06 0)
(2.99999 2.72757e-06 0)
(2.99998 6.99688e-06 0)
(2.99996 1.65806e-05 0)
(2.99991 4.17975e-05 0)
(2.99978 9.94345e-05 0)
(2.99946 0.000247183 0)
(2.99867 0.00059439 0)
(2.99679 0.00146187 0)
(2.99206 0.00356145 0)
(2.98053 0.00874299 0)
(2.95087 0.0218052 0)
(2.87173 0.0562321 0)
(2.64831 0.153644 0)
(2.04157 0.447023 0)
(1.46408 0.829134 0)
(1.31561 0.887578 0)
(1.3079 0.901485 0)
(1.33906 0.892982 0)
(1.39003 0.876286 0)
(1.43926 0.867213 0)
(3 4.89063e-09 0)
(3 3.12263e-08 0)
(3 1.05829e-07 0)
(3 3.0339e-07 0)
(3 7.81847e-07 0)
(3 1.98306e-06 0)
(2.99999 4.87364e-06 0)
(2.99997 1.20176e-05 0)
(2.99994 2.93663e-05 0)
(2.99985 7.16074e-05 0)
(2.99963 0.000175858 0)
(2.9991 0.000425747 0)
(2.99782 0.0010515 0)
(2.99464 0.00255044 0)
(2.98688 0.00631405 0)
(2.96728 0.0155917 0)
(2.91608 0.039806 0)
(2.77545 0.106174 0)
(2.36621 0.305941 0)
(1.69512 0.749849 0)
(1.39177 0.888051 0)
(1.34882 0.9115 0)
(1.36247 0.912892 0)
(1.40768 0.894984 0)
(1.45931 0.879203 0)
(3 3.32137e-09 0)
(3 2.2066e-08 0)
(3 7.28211e-08 0)
(3 2.1432e-07 0)
(3 5.38462e-07 0)
(3 1.40148e-06 0)
(2.99999 3.35779e-06 0)
(2.99998 8.48205e-06 0)
(2.99996 2.02239e-05 0)
(2.9999 5.04276e-05 0)
(2.99976 0.000121273 0)
(2.9994 0.000298476 0)
(2.99856 0.000726638 0)
(2.99645 0.00177393 0)
(2.9914 0.00436874 0)
(2.97869 0.0107255 0)
(2.9465 0.026997 0)
(2.86045 0.0703438 0)
(2.61545 0.195658 0)
(2.00305 0.552909 0)
(1.51972 0.86456 0)
(1.40166 0.915861 0)
(1.39451 0.927995 0)
(1.42505 0.916849 0)
(1.47472 0.894011 0)
(3 2.40957e-09 0)
(3 1.48709e-08 0)
(3 5.17825e-08 0)
(3 1.4444e-07 0)
(3 3.80724e-07 0)
(3 9.4525e-07 0)
(3 2.36962e-06 0)
(2.99999 5.70707e-06 0)
(2.99997 1.42283e-05 0)
(2.99993 3.39286e-05 0)
(2.99984 8.45535e-05 0)
(2.99961 0.000201576 0)
(2.99905 0.000500973 0)
(2.99767 0.00120002 0)
(2.99434 0.00297316 0)
(2.98609 0.00721948 0)
(2.96546 0.0179555 0)
(2.91143 0.0456786 0)
(2.76305 0.122048 0)
(2.33722 0.353374 0)
(1.72743 0.789119 0)
(1.47123 0.912576 0)
(1.43286 0.935044 0)
(1.44466 0.935184 0)
(1.48687 0.914156 0)
(3 1.64882e-09 0)
(3 9.99899e-09 0)
(3 3.53835e-08 0)
(3 9.70949e-08 0)
(3 2.59389e-07 0)
(3 6.36539e-07 0)
(3 1.60772e-06 0)
(2.99999 3.85532e-06 0)
(2.99998 9.60331e-06 0)
(2.99996 2.29915e-05 0)
(2.9999 5.67576e-05 0)
(2.99975 0.000136818 0)
(2.99939 0.000335266 0)
(2.99851 0.000813619 0)
(2.99641 0.00198605 0)
(2.99116 0.00486411 0)
(2.9784 0.0119364 0)
(2.9457 0.0299871 0)
(2.85896 0.0780296 0)
(2.61163 0.218181 0)
(2.02576 0.593818 0)
(1.59353 0.883228 0)
(1.48678 0.934665 0)
(1.47656 0.946078 0)
(1.5017 0.935042 0)
(3 1.06793e-09 0)
(3 6.74913e-09 0)
(3 2.29983e-08 0)
(3 6.54973e-08 0)
(3 1.6876e-07 0)
(3 4.26775e-07 0)
(3 1.04805e-06 0)
(3 2.56695e-06 0)
(2.99999 6.2759e-06 0)
(2.99997 1.51676e-05 0)
(2.99993 3.72317e-05 0)
(2.99984 8.9316e-05 0)
(2.99961 0.00022053 0)
(2.99905 0.000526301 0)
(2.99771 0.00130399 0)
(2.99437 0.00312491 0)
(2.98634 0.00773984 0)
(2.96603 0.0189605 0)
(2.91347 0.0482879 0)
(2.76942 0.12863 0)
(2.36182 0.368721 0)
(1.79528 0.796535 0)
(1.55453 0.924075 0)
(1.51432 0.948368 0)
(1.52158 0.950389 0)
(3 6.93631e-10 0)
(3 4.4757e-09 0)
(3 1.50197e-08 0)
(3 4.33544e-08 0)
(3 1.10688e-07 0)
(3 2.80864e-07 0)
(3 6.88328e-07 0)
(3 1.68223e-06 0)
(2.99999 4.1241e-06 0)
(2.99998 9.893e-06 0)
(2.99996 2.45051e-05 0)
(2.9999 5.80662e-05 0)
(2.99976 0.000144933 0)
(2.99941 0.000341515 0)
(2.99857 0.000855881 0)
(2.99652 0.00201964 0)
(2.99158 0.00506063 0)
(2.97932 0.012151 0)
(2.94834 0.0307629 0)
(2.8666 0.0791456 0)
(2.63398 0.220662 0)
(2.08906 0.590461 0)
(1.67553 0.888459 0)
(1.56756 0.945796 0)
(1.55306 0.958378 0)
(3 4.42565e-10 0)
(3 2.86449e-09 0)
(3 9.66235e-09 0)
(3 2.77369e-08 0)
(3 7.09331e-08 0)
(3 1.80682e-07 0)
(3 4.37091e-07 0)
(3 1.08597e-06 0)
(3 2.59798e-06 0)
(2.99999 6.40476e-06 0)
(2.99997 1.53175e-05 0)
(2.99994 3.75851e-05 0)
(2.99985 9.02173e-05 0)
(2.99964 0.000220108 0)
(2.99911 0.000531319 0)
(2.99788 0.0012911 0)
(2.99478 0.0031366 0)
(2.98739 0.00764674 0)
(2.96877 0.018798 0)
(2.92101 0.0475284 0)
(2.79133 0.125769 0)
(2.42559 0.357464 0)
(1.8868 0.779129 0)
(1.63867 0.927004 0)
(1.59135 0.95594 0)
(3 2.89845e-10 0)
(3 1.79235e-09 0)
(3 6.24285e-09 0)
(3 1.73779e-08 0)
(3 4.56778e-08 0)
(3 1.13419e-07 0)
(3 2.80538e-07 0)
(3 6.82505e-07 0)
(3 1.65824e-06 0)
(2.99999 4.03732e-06 0)
(2.99998 9.72196e-06 0)
(2.99996 2.37541e-05 0)
(2.99991 5.68547e-05 0)
(2.99978 0.000139812 0)
(2.99947 0.000332856 0)
(2.99869 0.00082115 0)
(2.99688 0.00196 0)
(2.99234 0.00483599 0)
(2.98141 0.0117185 0)
(2.95365 0.0292137 0)
(2.88109 0.0750449 0)
(2.677 0.206001 0)
(2.18341 0.553486 0)
(1.76637 0.883276 0)
(1.64287 0.951467 0)
(3 1.74467e-10 0)
(3 1.14462e-09 0)
(3 3.79361e-09 0)
(3 1.10726e-08 0)
(3 2.78557e-08 0)
(3 7.16071e-08 0)
(3 1.7195e-07 0)
(3 4.27312e-07 0)
(3 1.02356e-06 0)
(3 2.4989e-06 0)
(2.99999 6.03809e-06 0)
(2.99998 1.45551e-05 0)
(2.99994 3.55404e-05 0)
(2.99987 8.46216e-05 0)
(2.99968 0.000209009 0)
(2.99923 0.000493277 0)
(2.99813 0.0012262 0)
(2.99552 0.00289787 0)
(2.98903 0.00720835 0)
(2.97327 0.0173835 0)
(2.93288 0.0440263 0)
(2.82512 0.115115 0)
(2.52073 0.324795 0)
(2.00122 0.736759 0)
(1.72443 0.919085 0)
(3 1.12915e-10 0)
(3 6.80277e-10 0)
(3 2.41988e-09 0)
(3 6.57618e-09 0)
(3 1.76514e-08 0)
(3 4.28206e-08 0)
(3 1.08027e-07 0)
(3 2.56877e-07 0)
(3 6.35331e-07 0)
(3 1.51218e-06 0)
(2.99999 3.69792e-06 0)
(2.99999 8.87552e-06 0)
(2.99997 2.14534e-05 0)
(2.99992 5.19958e-05 0)
(2.99981 0.000124327 0)
(2.99954 0.000304681 0)
(2.99888 0.000721352 0)
(2.99733 0.00178254 0)
(2.99346 0.00422485 0)
(2.98419 0.0104769 0)
(2.96077 0.0254466 0)
(2.90035 0.065107 0)
(2.73288 0.174941 0)
(2.30481 0.475792 0)
(1.8677 0.848541 0)
(3 6.79509e-11 0)
(3 4.18308e-10 0)
(3 1.46043e-09 0)
(3 4.04635e-09 0)
(3 1.06539e-08 0)
(3 2.63069e-08 0)
(3 6.51738e-08 0)
(3 1.57327e-07 0)
(3 3.83144e-07 0)
(3 9.2446e-07 0)
(3 2.2318e-06 0)
(2.99999 5.40371e-06 0)
(2.99998 1.29596e-05 0)
(2.99995 3.15861e-05 0)
(2.99989 7.52583e-05 0)
(2.99973 0.000184135 0)
(2.99936 0.000438135 0)
(2.99844 0.00107369 0)
(2.99627 0.00256112 0)
(2.99092 0.00628683 0)
(2.97799 0.0152303 0)
(2.94526 0.0380754 0)
(2.8595 0.098538 0)
(2.61759 0.273866 0)
(2.12728 0.664319 0)
(3 3.94208e-11 0)
(3 2.56062e-10 0)
(3 8.57981e-10 0)
(3 2.46955e-09 0)
(3 6.26976e-09 0)
(3 1.59554e-08 0)
(3 3.83878e-08 0)
(3 9.49941e-08 0)
(3 2.26045e-07 0)
(3 5.54329e-07 0)
(3 1.3175e-06 0)
(3 3.21399e-06 0)
(2.99999 7.67181e-06 0)
(2.99997 1.85858e-05 0)
(2.99993 4.46163e-05 0)
(2.99984 0.000107262 0)
(2.99962 0.000259683 0)
(2.9991 0.000619018 0)
(2.9978 0.00150865 0)
(2.99473 0.00359591 0)
(2.98716 0.00879546 0)
(2.9686 0.021331 0)
(2.92093 0.0536502 0)
(2.79212 0.141244 0)
(2.44441 0.388466 0)
(3 2.42945e-11 0)
(3 1.4956e-10 0)
(3 5.22339e-10 0)
(3 1.44274e-09 0)
(3 3.80889e-09 0)
(3 9.33703e-09 0)
(3 2.32359e-08 0)
(3 5.57307e-08 0)
(3 1.36072e-07 0)
(3 3.26321e-07 0)
(3 7.88854e-07 0)
(3 1.90285e-06 0)
(2.99999 4.56136e-06 0)
(2.99998 1.10824e-05 0)
(2.99996 2.63729e-05 0)
(2.99991 6.44566e-05 0)
(2.99978 0.000152873 0)
(2.99948 0.000374192 0)
(2.99875 0.000889165 0)
(2.99698 0.00217573 0)
(2.99275 0.00520725 0)
(2.98235 0.01279 0)
(2.95652 0.0313564 0)
(2.88947 0.0803509 0)
(2.70244 0.218109 0)
(3 1.38582e-11 0)
(3 8.92491e-11 0)
(3 2.99923e-10 0)
(3 8.60762e-10 0)
(3 2.18938e-09 0)
(3 5.54026e-09 0)
(3 1.34088e-08 0)
(3 3.27874e-08 0)
(3 7.88745e-08 0)
(3 1.90115e-07 0)
(3 4.60075e-07 0)
(3 1.09669e-06 0)
(3 2.67191e-06 0)
(2.99999 6.32865e-06 0)
(2.99998 1.54902e-05 0)
(2.99995 3.65474e-05 0)
(2.99988 8.95773e-05 0)
(2.99971 0.000211475 0)
(2.9993 0.00051762 0)
(2.99833 0.00122582 0)
(2.996 0.00299796 0)
(2.99033 0.00716312 0)
(2.97661 0.017611 0)
(2.94217 0.0435016 0)
(2.85175 0.113398 0)
(3 8.05287e-12 0)
(3 5.07284e-11 0)
(3 1.74657e-10 0)
(3 4.88291e-10 0)
(3 1.27075e-09 0)
(3 3.14929e-09 0)
(3 7.7177e-09 0)
(3 1.87235e-08 0)
(3 4.48932e-08 0)
(3 1.09091e-07 0)
(3 2.58556e-07 0)
(3 6.31009e-07 0)
(3 1.48741e-06 0)
(2.99999 3.63326e-06 0)
(2.99999 8.56265e-06 0)
(2.99997 2.08681e-05 0)
(2.99993 4.92603e-05 0)
(2.99983 0.000119566 0)
(2.9996 0.000283503 0)
(2.99905 0.000683963 0)
(2.99769 0.00163147 0)
(2.99451 0.00392507 0)
(2.98663 0.00944411 0)
(2.96746 0.0229815 0)
(2.91837 0.0572499 0)
(3 4.63144e-12 0)
(3 2.83596e-11 0)
(3 9.91727e-11 0)
(3 2.73388e-10 0)
(3 7.19866e-10 0)
(3 1.761e-09 0)
(3 4.37316e-09 0)
(3 1.04137e-08 0)
(3 2.54691e-08 0)
(3 6.03581e-08 0)
(3 1.46506e-07 0)
(3 3.48397e-07 0)
(3 8.40211e-07 0)
(3 2.00799e-06 0)
(2.99999 4.8091e-06 0)
(2.99998 1.15703e-05 0)
(2.99996 2.75118e-05 0)
(2.9999 6.66233e-05 0)
(2.99977 0.000157565 0)
(2.99945 0.000383142 0)
(2.9987 0.000905791 0)
(2.99684 0.0022037 0)
(2.99246 0.00525212 0)
(2.98163 0.0128062 0)
(2.95497 0.0313539 0)
(3 2.40468e-12 0)
(3 1.58518e-11 0)
(3 5.25825e-11 0)
(3 1.52283e-10 0)
(3 3.82248e-10 0)
(3 9.74316e-10 0)
(3 2.31507e-09 0)
(3 5.71242e-09 0)
(3 1.34512e-08 0)
(3 3.27154e-08 0)
(3 7.7391e-08 0)
(3 1.8591e-07 0)
(3 4.43955e-07 0)
(3 1.05365e-06 0)
(3 2.5404e-06 0)
(2.99999 5.96147e-06 0)
(2.99998 1.45082e-05 0)
(2.99994 3.37448e-05 0)
(2.99986 8.24968e-05 0)
(2.99967 0.000191195 0)
(2.99921 0.000468143 0)
(2.99813 0.00108527 0)
(2.99545 0.00265292 0)
(2.98914 0.00622824 0)
(2.9735 0.0152213 0)
(3 1.31101e-12 0)
(3 8.03551e-12 0)
(3 2.78601e-11 0)
(3 7.70755e-11 0)
(3 2.00459e-10 0)
(3 4.90573e-10 0)
(3 1.20403e-09 0)
(3 2.8457e-09 0)
(3 6.89942e-09 0)
(3 1.61372e-08 0)
(3 3.88946e-08 0)
(3 9.08944e-08 0)
(3 2.17377e-07 0)
(3 5.09839e-07 0)
(3 1.2088e-06 0)
(2.99999 2.8448e-06 0)
(2.99998 6.68158e-06 0)
(2.99996 1.57858e-05 0)
(2.9999 3.66867e-05 0)
(2.99977 8.68534e-05 0)
(2.99944 0.000199912 0)
(2.99866 0.000474233 0)
(2.99674 0.00108119 0)
(2.99208 0.00256238 0)
(2.98064 0.0058697 0)
(3 6.41307e-13 0)
(3 3.96657e-12 0)
(3 1.36626e-11 0)
(3 3.77974e-11 0)
(3 9.74411e-11 0)
(3 2.39002e-10 0)
(3 5.7509e-10 0)
(3 1.37317e-09 0)
(3 3.23183e-09 0)
(3 7.65246e-09 0)
(3 1.78373e-08 0)
(3 4.21502e-08 0)
(3 9.74789e-08 0)
(3 2.29491e-07 0)
(3 5.28489e-07 0)
(2.99999 1.23752e-06 0)
(2.99999 2.83074e-06 0)
(2.99997 6.58084e-06 0)
(2.99992 1.49672e-05 0)
(2.99981 3.44221e-05 0)
(2.99953 7.7582e-05 0)
(2.99886 0.000175445 0)
(2.99719 0.000392002 0)
(2.99312 0.000863498 0)
(2.98291 0.00189833 0)
(3 2.88246e-13 0)
(3 1.84176e-12 0)
(3 6.36128e-12 0)
(3 1.74959e-11 0)
(3 4.57545e-11 0)
(3 1.08044e-10 0)
(3 2.7073e-10 0)
(3 6.00873e-10 0)
(3 1.51421e-09 0)
(3 3.22689e-09 0)
(3 8.26953e-09 0)
(3 1.71365e-08 0)
(3 4.41297e-08 0)
(3 9.07703e-08 0)
(3 2.29744e-07 0)
(3 4.79242e-07 0)
(2.99999 1.15941e-06 0)
(2.99997 2.51579e-06 0)
(2.99993 5.63814e-06 0)
(2.99982 1.29796e-05 0)
(2.99956 2.58659e-05 0)
(2.99892 6.44686e-05 0)
(2.99731 0.000110271 0)
(2.99334 0.000287948 0)
(2.9833 0.00043861 0)
(3 1.53288e-13 0)
(3 7.66862e-13 0)
(3 3.07492e-12 0)
(3 7.43128e-12 0)
(3 2.19221e-11 0)
(3 4.66865e-11 0)
(3 1.27025e-10 0)
(3 2.63323e-10 0)
(3 6.86242e-10 0)
(3 1.43962e-09 0)
(3 3.5725e-09 0)
(3 7.88873e-09 0)
(3 1.80494e-08 0)
(3 4.27509e-08 0)
(3 8.97939e-08 0)
(3 2.28489e-07 0)
(2.99999 4.36846e-07 0)
(2.99997 1.19281e-06 0)
(2.99993 2.06466e-06 0)
(2.99983 6.05915e-06 0)
(2.99958 9.02143e-06 0)
(2.99893 2.99956e-05 0)
(2.99738 3.65893e-05 0)
(2.99339 0.000132316 0)
(2.9835 0.000160302 0)
(3 7.82071e-14 0)
(3 3.62418e-13 0)
(3 1.27757e-12 0)
(3 3.64887e-12 0)
(3 8.69226e-12 0)
(3 2.31473e-11 0)
(3 4.7942e-11 0)
(3 1.35387e-10 0)
(3 2.45311e-10 0)
(3 7.57508e-10 0)
(3 1.25423e-09 0)
(3 4.15515e-09 0)
(3 6.27327e-09 0)
(3 2.23469e-08 0)
(3 3.27717e-08 0)
(3 1.15124e-07 0)
(2.99999 1.76505e-07 0)
(2.99997 5.61674e-07 0)
(2.99993 1.00048e-06 0)
(2.99983 2.51784e-06 0)
(2.99958 5.73729e-06 0)
(2.99894 1.05953e-05 0)
(2.9974 3.09429e-05 0)
(2.99344 4.70602e-05 0)
(2.98358 0.000147494 0)
(3 2.45757e-14 0)
(3 2.02423e-13 0)
(3 5.53892e-13 0)
(3 1.67444e-12 0)
(3 3.71529e-12 0)
(3 1.09321e-11 0)
(3 1.7003e-11 0)
(3 6.79457e-11 0)
(3 6.76031e-11 0)
(3 4.17432e-10 0)
(3 2.16652e-10 0)
(3 2.40916e-09 0)
(3 7.74115e-10 0)
(3 1.32606e-08 0)
(3 3.65971e-09 0)
(3 6.9709e-08 0)
(2.99999 3.63693e-08 0)
(2.99997 3.35641e-07 0)
(2.99993 3.84976e-07 0)
(2.99983 1.50823e-06 0)
(2.99958 3.50239e-06 0)
(2.99895 6.05755e-06 0)
(2.99741 2.68383e-05 0)
(2.99349 2.80771e-05 0)
(2.98366 0.000147418 0)
(3 1.12417e-15 0)
(3 1.32642e-13 0)
(3 2.18076e-13 0)
(3 1.13715e-12 0)
(3 1.56512e-12 0)
(3 6.78145e-12 0)
(3 9.81152e-12 0)
(3 3.61816e-11 0)
(3 5.2757e-11 0)
(3 2.03556e-10 0)
(3 2.58571e-10 0)
(3 1.08083e-09 0)
(3 1.64696e-09 0)
(3 5.28177e-09 0)
(3 1.04717e-08 0)
(3 2.59929e-08 0)
(2.99999 7.20856e-08 0)
(2.99997 1.28295e-07 0)
(2.99993 4.81197e-07 0)
(2.99983 7.27474e-07 0)
(2.99958 3.07364e-06 0)
(2.99896 4.01957e-06 0)
(2.99742 1.97887e-05 0)
(2.99354 2.3688e-05 0)
(2.98375 0.000108588 0)
(3 1.84824e-16 0)
(3 3.02425e-14 0)
(3 3.12374e-14 0)
(3 4.68663e-13 0)
(3 3.31031e-13 0)
(3 2.44937e-12 0)
(3 3.71398e-12 0)
(3 1.20537e-11 0)
(3 2.1492e-11 0)
(3 6.68552e-11 0)
(3 1.25777e-10 0)
(3 3.70735e-10 0)
(3 7.72147e-10 0)
(3 1.87284e-09 0)
(3 4.81437e-09 0)
(3 9.55515e-09 0)
(2.99999 2.89072e-08 0)
(2.99997 5.09588e-08 0)
(2.99993 1.54907e-07 0)
(2.99983 3.06229e-07 0)
(2.99958 8.89187e-07 0)
(2.99897 1.43598e-06 0)
(2.99742 5.82295e-06 0)
(2.99356 9.18136e-06 0)
(2.9838 3.64372e-05 0)
(1.20742 1.04013 0)
(1.36846 0.785918 0)
(0.81518 0.436839 0)
(0.005087 0.355396 0)
(-0.229562 0.0463889 0)
(-0.40885 0.0066607 0)
(-0.565969 -0.0199538 0)
(-0.639622 -0.0304068 0)
(-0.670141 -0.0113107 0)
(-0.703786 0.014611 0)
(-0.757195 0.0248722 0)
(-0.813729 0.0236208 0)
(-0.860812 0.0162248 0)
(-0.899173 0.00880238 0)
(-0.937197 0.00562944 0)
(-0.978441 0.00504067 0)
(-1.02065 0.00514449 0)
(-1.06065 0.00526072 0)
(-1.09602 0.0049291 0)
(-1.12698 0.00399947 0)
(-1.15718 0.00285036 0)
(-1.19002 0.00269417 0)
(-1.21777 0.00456448 0)
(-1.23335 0.00469666 0)
(-1.24085 0.00369732 0)
(-1.2403 0.00237766 0)
(-1.22337 0.000147265 0)
(-1.18338 -0.00373047 0)
(-1.1226 -0.0089132 0)
(-1.04622 -0.0142274 0)
(-0.960712 -0.0186789 0)
(-0.87117 -0.0220005 0)
(-0.78082 -0.0242374 0)
(-0.691325 -0.0259807 0)
(-0.605464 -0.0268092 0)
(-0.524117 -0.0273441 0)
(-0.447572 -0.0280687 0)
(-0.374871 -0.0289693 0)
(-0.303664 -0.0314941 0)
(-0.236363 -0.0318614 0)
(-0.172297 -0.0318107 0)
(-0.110717 -0.0328929 0)
(-0.0529199 -0.0361196 0)
(0.0105003 -0.0319264 0)
(0.0622674 -0.0278104 0)
(0.113567 -0.0264927 0)
(0.160557 -0.0252484 0)
(0.204917 -0.0241086 0)
(0.247043 -0.0231186 0)
(0.28703 -0.0221354 0)
(0.325096 -0.0211716 0)
(0.361306 -0.0202957 0)
(0.395816 -0.019475 0)
(0.428844 -0.0187482 0)
(0.460454 -0.0180615 0)
(0.490544 -0.0173652 0)
(0.519021 -0.0165892 0)
(0.5464 -0.0158717 0)
(0.573346 -0.0153191 0)
(0.599653 -0.0147985 0)
(0.62499 -0.0141938 0)
(0.649595 -0.0136222 0)
(0.673667 -0.013112 0)
(0.697342 -0.012643 0)
(0.720719 -0.0122059 0)
(0.743874 -0.0117817 0)
(0.76687 -0.0113855 0)
(0.789738 -0.0109935 0)
(0.812526 -0.0106227 0)
(0.835231 -0.0102545 0)
(0.857878 -0.00989795 0)
(0.880455 -0.00954481 0)
(0.902961 -0.00919839 0)
(0.925384 -0.00885352 0)
(0.947712 -0.00851495 0)
(0.969924 -0.00817766 0)
(0.992009 -0.0078448 0)
(1.01395 -0.00751454 0)
(1.03573 -0.00718869 0)
(1.05735 -0.00686544 0)
(1.07878 -0.0065463 0)
(1.10003 -0.00622965 0)
(1.12108 -0.00591567 0)
(1.14192 -0.00560204 0)
(1.16255 -0.00528908 0)
(1.18294 -0.00497514 0)
(1.20307 -0.00466105 0)
(1.22291 -0.00434534 0)
(1.24242 -0.00402838 0)
(1.26156 -0.00370829 0)
(1.28027 -0.00338285 0)
(1.29849 -0.00304653 0)
(1.31613 -0.00269156 0)
(1.33305 -0.00230866 0)
(1.34907 -0.00188343 0)
(1.36393 -0.00139415 0)
(1.37724 -0.000842927 0)
(1.38855 -0.000217493 0)
(1.39695 0.00052813 0)
(1.40308 0.00139056 0)
(1.27578 0.946771 0)
(1.39801 0.652744 0)
(1.20395 0.391232 0)
(0.761828 0.382572 0)
(0.622587 0.320752 0)
(0.486391 0.246028 0)
(0.303698 0.186258 0)
(0.140208 0.12097 0)
(-0.115964 0.0432217 0)
(-0.255606 0.0464877 0)
(-0.384873 0.0445476 0)
(-0.478581 0.0368691 0)
(-0.537937 0.0268723 0)
(-0.574698 0.023673 0)
(-0.611433 0.0309667 0)