/*--------------------------------*- C++ -*----------------------------------*\
  =========                 |
  \\      /  F ield         | OpenFOAM: The Open Source CFD Toolbox
   \\    /   O peration     | Website:  https://openfoam.org
    \\  /    A nd           | Version:  13
     \\/     M anipulation  |
\*---------------------------------------------------------------------------*/
FoamFile
{
    format      ascii;
    class       surfaceScalarField;
    location    "19";
    object      phi;
}
// * * * * * * * * * * * * * * * * * * * * * * * * * * * * * * * * * * * * * //

dimensions      [0 3 -1 0 0 0 0];

internalField   nonuniform List<scalar> 
1300
(
3.75095
5.62643
-6.01717
3.75095
-5.88627
5.62643
-4.55509
4.55509
-1.28489
1.28489
1.87671
1.87425
-2.71584
2.71584
-4.07189
4.07189
-2.68195
2.68195
-5.24648
5.24648
-5.06821
5.06821
4.68516
-4.68516
-4.78678
4.78678
-1.76465
1.76465
-3.81916
3.81916
3.17038
-3.17038
-4.6421
4.6421
-0.449275
0.449275
-0.553316
4.30427
3.19764
3.19764
-2.38997
2.38997
-4.85382
4.85382
6.21838
-6.21838
9.11491
-9.11491
-3.09774
-3.42631
1.32121
-8.21127
-4.56506
-4.56506
-8.44042
8.44042
-2.81399
2.81244
2.93812
-2.93812
-1.75314
1.75314
-4.50277
-0.0523228
-4.50277
4.54053
0.014564
4.54053
-1.39643
0.111543
-1.39643
4.02327
-4.02327
1.13703
0.147863
1.13703
3.064
-3.064
-1.87701
3.75372
1.87394
-1.87159
6.17586
-1.87936
3.75361
-5.64134
5.64134
-3.00211
0.286271
-3.00211
2.66816
0.0476808
2.66816
-5.26809
5.26809
-3.75412
-0.317773
-3.75412
4.30068
-0.228794
4.30068
2.90744
-2.90744
-2.71531
0.0333629
-2.71531
2.62971
0.052236
2.62971
0.353579
5.27285
-5.98001
8.79245
-5.27285
0.0263726
5.20855
0.0379262
5.20855
-5.10603
0.0378227
-5.10603
5.00948
0.0587286
5.00948
4.77943
-0.0942675
4.77943
-4.79783
0.112669
-4.79783
-3.33498
-3.46828
-4.87838
0.0915976
-4.87838
-1.74633
-0.0183236
-1.74633
1.71757
0.0470786
1.71757
-3.49952
3.49952
-4.26711
0.447957
-4.26711
3.12585
0.0445267
3.12585
1.86868
1.88228
5.61963
-5.61963
2.44925
-4.5779
-0.0641969
-4.5779
-4.74084
-4.37406
4.74084
-0.0987398
-0.755793
0.306519
-0.755793
3.15947
0.0381644
3.15947
2.55197
0.0777388
-2.55197
0.162003
3.35711
-3.35711
1.75778
0.632187
1.75778
-5.57047
5.57047
4.94935
0.060128
-4.94935
0.0955256
6.15724
0.0611446
6.15724
-6.19956
-0.0188204
-6.19956
3.34548
-6.77179
-3.45087
4.6815
0.105278
-4.6815
0.116439
2.90086
0.0372617
2.90086
-2.91984
2.91984
-2.98269
0.0445716
-2.98269
-2.1697
0.416561
-2.1697
1.43566
0.317475
1.43566
-4.36891
-0.133863
-4.36891
-4.44019
0.173078
4.44019
0.100336
0.919348
-0.919348
-1.52933
0.132895
-1.52933
-4.18067
-0.188234
4.18067
-0.157403
-3.9081
-0.115168
-3.9081
-3.0227
0.0400003
3.0227
0.0413046
3.11216
0.0473176
-3.11216
0.0481558
-1.87089
3.75316
-1.88007
3.75401
-5.43217
-0.209164
-5.43217
5.70927
-0.067931
5.70927
3.43228
0.386882
-3.43228
0.430162
2.9221
-0.253941
2.9221
-5.24759
-0.0204978
-5.24759
5.22663
0.0414574
5.22663
3.32902
-0.406918
-3.32902
-0.425096
4.43602
-0.135332
4.43602
2.9645
-0.0570647
2.9645
-2.86979
-0.0376487
-2.86979
2.79075
-2.79075
2.73852
0.0522301
-2.73852
0.0232078
-11.1328
11.1139
-0.035155
-11.0976
5.1734
5.1734
4.20491
0.574516
4.20491
-5.00779
0.209963
-5.00779
3.31128
-6.76215
3.45572
-6.79069
3.4605
-11.6718
3.36868
-6.83697
5.08421
-5.08421
4.97234
0.11187
-4.97234
0.0939632
-1.76237
0.0160379
-1.76237
-2.84572
-0.653797
-2.84572
4.20838
-0.708864
4.20838
-3.03324
3.03324
-3.08088
0.0476383
3.08088
0.0449749
4.51545
-0.0794313
-4.51545
-0.0624573
0.958514
0.178511
-0.958514
0.20272
3.56247
-0.205361
3.56247
-3.16456
-0.192551
-3.16456
-1.76692
0.00455789
1.76692
-0.00914319
-5.81829
0.247817
-5.81829
-11.1906
0.0930268
-11.1527
-6.10653
-6.10653
2.33389
11.1263
-2.86698
-0.00280494
2.86698
0.03388
2.97843
0.054807
-2.97843
0.0585888
-2.85795
0.0672019
2.85795
0.0618935
-2.5588
0.389105
-2.5588
-1.02257
1.02257
-1.2071
0.184531
1.2071
0.228559
1.17694
-0.257589
1.17694
1.63168
0.0858971
-1.63168
0.10235
-3.81341
-0.0946913
-3.81341
5.55101
0.158263
5.55101
-3.043
-0.121562
3.043
-0.0784979
-0.0332802
11.1472
-5.14012
0.0340895
5.14012
-11.2084
11.2425
-3.24245
0.683646
3.24245
0.962462
5.29435
0.276124
-5.29435
0.286556
5.1872
0.0394371
-5.1872
0.102985
-2.34962
-0.496097
-2.34962
-4.95028
-0.481898
4.95028
-0.741897
-11.4762
-0.20173
11.678
-11.4175
6.02002
0.137217
-6.02002
11.3797
-0.890657
-0.0286909
0.890657
0.131914
1.49068
-0.313739
1.49068
3.72623
-0.163756
-3.72623
-0.0871837
-5.35369
0.106093
5.35369
0.197319
-1.90706
-0.442558
1.90706
-0.416388
-4.26633
4.3045
1.90952
-3.29146
-3.48033
-7.66552
1.85201
1.90115
4.30126
-7.2215
-4.45028
-7.10506
7.27359
-6.98703
-9.30477
9.21051
7.4914
-7.60657
-5.78361
5.82858
6.48202
-6.44072
1.87821
1.87551
6.65571
-6.36944
-16.0473
15.8381
8.38184
-8.69961
13.4741
-13.4946
-13.8073
13.8468
-5.76539
5.79875
-6.64546
6.60781
-6.81941
6.74091
-3.25328
-3.53742
9.39289
-9.30129
11.637
-11.7012
-8.37811
8.82607
3.38251
0.921987
3.42983
-1.88218
3.76039
-1.87143
3.78096
3.46946
-6.72274
3.29269
-6.77302
6.05962
5.5774
-5.96088
-1.70464
-5.8787
5.91596
-5.82123
5.88312
8.96491
-9.01723
-1.88649
3.762
-1.86752
3.76867
-3.42455
-2.35906
3.38002
0.921241
5.72867
3.66422
-5.83395
-1.27111
-7.69807
7.53432
-7.9896
7.79705
-0.45496
5.82548
-5.37052
4.39886
-1.55229
7.37776
5.7213
5.93127
5.86825
-5.59213
1.11878
-6.4893
-6.39377
-2.5878
2.72069
2.61644
-2.46857
5.90033
1.59107
5.74292
-5.48903
-2.11754
-5.58372
3.81836
2.01023
3.86599
4.07633
2.40569
4.11633
3.02978
-3.0365
0.00671278
-3.05636
6.08614
0.725502
-5.41541
-4.49417
3.69165
2.96407
3.73933
-4.95285
-1.41659
-4.52269
-9.66471
-6.3826
-10.1466
10.3145
5.52363
10.2466
-11.5158
11.7131
6.06603
2.31581
5.83724
-4.8799
-3.81971
-5.305
11.1611
-0.950523
-10.2106
-8.24599
-5.56136
8.20453
5.26954
8.18051
5.66628
8.28349
3.18576
7.97535
-8.4553
2.89394
-3.85261
-1.91278
-3.8294
3.74307
2.05568
3.79531
-4.14194
-2.50352
-4.14474
-4.19448
-2.62494
4.25154
2.35626
-4.29666
-3.69294
4.41822
2.32269
3.17815
-7.62843
3.65882
-7.19623
-6.62517
-2.67612
-6.5312
4.25797
2.56154
-6.81951
-2.46476
10.9424
-5.36503
9.23779
-7.12477
-4.57645
-7.18723
-6.76109
-1.61702
-6.58801
-8.74991
8.25381
-9.07972
8.37085
12.6617
-5.66402
-6.99763
-3.96903
-2.47169
3.92088
-0.491048
-3.71121
3.71792
0.0491792
3.83014
4.75212
4.26108
-3.88817
-1.93306
-3.82958
3.82721
2.05592
3.89441
6.76776
2.19715
6.78232
-6.4033
-2.61393
-6.53716
9.08219
-8.66563
2.96538
-2.96082
5.21548
2.58157
-5.01012
-2.68796
6.02546
-3.03377
-2.99169
-12.2237
10.5962
1.62747
-4.8459
-0.447042
0.00223299
-5.51492
-3.78986
5.40225
0.52902
11.1252
7.33536
-5.51354
5.76135
6.16442
6.22455
-0.169224
5.85176
-5.16811
5.23688
-2.24496
-2.99192
5.24911
-5.43735
-1.28805
-5.23216
3.94411
0.305578
1.89563
-1.58911
-2.065
-0.522795
-1.96265
1.6086
1.00784
1.78711
0.96619
1.7545
-2.97914
0.602528
2.37661
-2.01295
-1.86605
-3.53505
-0.976758
4.51181
5.48073
2.05358
-5.39355
-0.190172
2.74034
-2.69327
-0.689924
-2.84512
2.15895
-2.84887
-3.50925
-1.88294
5.39219
-3.36874
-0.460839
3.31393
0.552064
-3.81808
-2.06062
3.77351
0.34282
-3.1316
6.21687
-3.08526
-5.06467
2.52882
3.55732
4.53905
-4.78963
2.44357
2.34605
-1.2323
3.55426
0.185063
3.30032
-6.29485
4.87826
5.49537
3.3307
-5.88225
1.35956
-4.93529
8.91
-8.1774
-0.732604
3.88679
5.02321
7.23519
5.42647
-5.72071
12.9559
-2.18282
-5.99458
7.11811
-3.78741
5.11912
-8.90653
-10.5456
4.55101
-11.1975
11.5741
-0.37657
-2.92474
-8.59108
14.1222
-1.81376
-12.3085
8.43282
-6.38296
-3.77339
10.1563
-7.33348
7.5931
-3.67747
-3.91563
-9.21851
-4.27605
9.11242
2.60072
-9.36448
12.2584
-1.38913
5.49955
0.33769
5.36422
5.31649
-5.62835
0.311861
2.01699
-5.69446
4.2039
-9.83226
-5.17648
9.87002
-4.69354
-7.8526
-7.27225
-0.580353
1.7562
10.5022
-7.42249
5.40809
2.01439
3.31859
0.575814
-3.37082
-0.458579
0.349539
4.48085
-4.83039
4.14485
4.22259
3.39887
1.08198
3.79098
2.12498
-3.82486
-0.319886
-4.09263
1.4677
-1.73637
-3.61175
5.07945
-4.03572
0.423967
-2.69235
-3.54725
6.2396
-4.60512
3.06075
3.15611
5.11667
-4.93678
1.38953
-2.4347
-2.50208
2.64619
-4.38256
1.93774
3.14171
4.26043
0.567492
5.07647
4.79354
-7.63801
0.441777
8.45776
-7.18665
2.01275
6.27074
-7.42084
0.148591
-6.38261
1.01581
-6.38084
-5.8037
5.20186
-6.81888
-3.70467
6.13383
0.648489
-6.23417
-0.353846
-5.93507
-2.81484
-6.37763
-3.08634
-5.99338
-8.80705
-1.60664
-7.20041
6.64717
-6.5878
-3.5588
7.3297
1.04116
-7.35786
7.32917
-7.42085
7.10711
0.0949478
3.62297
4.35602
1.88434
-2.39067
4.275
-5.01787
7.21502
-8.45596
3.4381
3.9263
-6.54024
-4.52966
5.01643
4.06577
5.3339
9.01186
-10.5538
1.54197
-10.9092
12.2462
-1.33697
-16.6949
5.78568
-7.68305
2.69762
0.267765
2.71365
0.668475
2.41191
-3.08038
-2.29235
-2.30149
-2.25205
-3.30466
5.55672
1.09414
-3.32288
2.22874
-3.43481
4.52896
-0.0801881
-3.24269
5.21993
-2.80802
5.48769
-3.515
1.97269
3.21744
5.49475
-2.27731
4.23559
-1.65402
1.75703
-4.03433
-1.54764
-3.00249
5.05816
-3.23711
3.66108
-0.227774
3.88886
-4.01141
0.97764
-0.612545
3.61004
3.77205
4.15045
-3.06847
2.87557
-4.5296
-1.15876
-3.9621
-0.820389
-0.370336
-3.68165
4.05198
6.04738
-6.41772
-5.30622
9.60269
-4.29647
7.73099
-5.43449
-2.2965
-4.27925
-4.38638
3.89014
1.96161
9.6926
0.197824
-5.63231
-4.97029
-4.00782
3.2059
2.03098
-2.07557
3.70304
2.07334
-0.177704
0.5949
1.19221
1.93028
-1.33538
0.19418
1.7361
-1.39493
1.98161
0.758736
-2.0675
0.104851
-1.29355
3.4525
1.08306
-2.09089
0.755514
1.12079
-3.36575
4.66375
-2.35662
-2.30713
5.78454
1.17434
-3.53096
4.05782
-3.75225
2.27727
-3.25403
-1.25369
-5.00593
-3.41486
-2.44759
4.67633
-3.10913
5.16271
1.16708
-4.97254
6.13961
-3.53465
1.65171
-2.96906
3.72779
-0.994303
-1.97476
2.75213
2.64006
-2.85187
0.00674471
-0.0997402
2.32121
-2.42095
-0.527664
-2.54061
-4.56665
4.90947
-2.11405
4.55762
2.16096
-1.91166
6.46927
1.8153
-3.72696
-3.24937
-3.71021
-1.3809
3.15814
-1.73041
-3.57459
-5.64604
3.98151
-0.681184
-6.35866
7.63271
-1.27405
-3.39459
-1.48367
5.37046
-7.4551
1.76064
-3.2512
4.38151
4.56658
3.88539
-12.4347
0.12625
-6.91109
0.962963
-7.87405
5.98617
-3.39146
7.94247
-10.6056
7.04679
-9.56443
7.20986
-0.66419
5.9734
-5.66154
4.23718
-8.51324
-5.91252
6.48994
-4.17414
6.82763
-4.59308
11.4207
-5.98221
7.04682
4.37389
-1.55499
-5.63224
-6.69937
5.14438
0.347456
5.71167
4.95096
-2.82598
4.63107
2.255
-4.6897
-2.12756
-6.563
1.8733
-3.40689
-1.91844
3.79174
3.19823
3.77405
1.28966
-3.31547
7.05364
-7.63399
-2.3601
-3.4436
6.72983
-1.58545
4.22746
-7.67105
-2.15338
5.00094
-0.982822
-4.01811
0.663084
-4.36776
1.65107
-6.01883
5.16781
-5.52165
2.18082
-9.86386
-5.17704
-5.04513
-2.24878
-5.17207
-7.68519
5.43641
-1.89951
5.42966
-8.72558
7.74275
-3.52062
8.95703
-5.34953
-1.0281
5.76592
1.34119
10.2982
0.0838109
-4.61347
-1.78084
3.88569
-2.10485
1.42506
-3.59784
0.287849
2.46488
3.31966
-6.40899
-0.131247
-4.74472
-3.90417
7.96994
5.69851
11.7459
1.19206
9.18571
-1.21577
10.3778
4.11813
4.34669
-3.01589
4.55786
1.0361
4.47419
-0.83292
2.80561
1.88073
1.86241
0.830854
2.30311
1.46894
3.28075
0.200366
-2.10113
4.66562
-8.67344
-0.966693
-8.09893
1.11158
5.75272
-4.64114
3.1305
-1.09952
1.02565
0.205742
-1.81917
1.61342
-2.78618
-1.99687
-0.26077
-1.60824
2.36375
1.84426
-2.10298
-0.683193
0.313284
-3.72814
2.94074
-2.934
-0.293932
5.84568
-2.71296
0.292012
-1.06125
-2.2486
-2.7714
2.66654
6.19627
0.273008
3.111
5.18248
3.12186
0.295887
6.21177
-6.58835
-3.62048
-6.46209
-0.475923
4.89453
2.57689
7.92533
6.95077
5.36532
-2.30573
-9.93972
6.58571
-2.02785
5.24874
-1.23062
-4.78821
4.91677
2.29825
-5.56526
0.0436091
-4.7446
-6.77244
-0.611571
8.35432
-9.68665
8.65856
5.84371
1.35669
-4.36012
-0.685003
4.17559
0.171101
10.5489
-1.1383
-6.91116
8.04946
-4.61442
3.64772
0.901134
2.8019
2.51456
1.41504
-5.49613
-10.1373
-1.77867
-1.58708
-4.0858
0.426006
-2.27027
6.27844
-2.63071
3.98194
5.41875
6.4444
-2.21166
-4.20606
6.50813
-2.52619
3.91821
)
;

boundaryField
{
    wall-4
    {
        type            calculated;
        value           uniform 0;
    }
    velocity-inlet-5
    {
        type            calculated;
        value           uniform -3.75095;
    }
    velocity-inlet-6
    {
        type            calculated;
        value           uniform -5.62643;
    }
    pressure-outlet-7
    {
        type            calculated;
        value           nonuniform List<scalar> 8(6.01717 5.88627 6.52404 6.89007 6.80326 6.79635 6.767 6.82919);
    }
    wall-8
    {
        type            calculated;
        value           uniform 0;
    }
    frontAndBackPlanes
    {
        type            empty;
    }
}


// ************************************************************************* //
