/*--------------------------------*- C++ -*----------------------------------*\
  =========                 |
  \\      /  F ield         | OpenFOAM: The Open Source CFD Toolbox
   \\    /   O peration     | Website:  https://openfoam.org
    \\  /    A nd           | Version:  13
     \\/     M anipulation  |
\*---------------------------------------------------------------------------*/
FoamFile
{
    format      ascii;
    class       volVectorField;
    location    "19";
    object      U;
}
// * * * * * * * * * * * * * * * * * * * * * * * * * * * * * * * * * * * * * //

dimensions      [0 1 -1 0 0 0 0];

internalField   nonuniform List<vector> 
918
(
(0.985144 -0.000534584 0)
(0.00500362 2.96626 0)
(-0.00810848 1.60335 0)
(0.979694 0.00215573 0)
(-0.00395983 1.56917 2.90922e-21)
(-0.00703125 2.94878 -1.89474e-18)
(0.856792 1.20366 7.27433e-19)
(0.436639 0.199228 -9.22002e-21)
(0.999908 -0.000323666 0)
(0.0434963 0.79443 0)
(-0.0256236 1.18005 0)
(0.779187 -0.00960004 0)
(0.0110854 2.93037 0)
(0.00163256 2.79463 0)
(-0.0179162 3.16893 1.0767e-18)
(-0.00413467 1.46954 -9.64423e-21)
(0.559857 0.0926262 5.80151e-19)
(0.194207 1.18154 6.3831e-19)
(0.96293 0.00507479 0)
(-0.00137266 1.3415 0)
(0.145346 0.255607 -4.9251e-19)
(1.00203 -0.00500456 0)
(1.00025 -0.00972621 0)
(0.975796 -0.00645712 0)
(0.693301 -0.0345644 0)
(0.0176398 2.63172 0)
(-0.0151302 2.91018 6.57038e-19)
(-0.0232605 1.61584 0)
(-0.024821 1.73958 0)
(-0.0223487 1.60963 0)
(-0.00639675 1.83682 0)
(-0.00156447 1.59274 -2.30137e-21)
(-0.00447409 1.47813 0)
(-0.0206308 2.98758 -6.63666e-23)
(-0.0167059 3.00531 1.47287e-18)
(0.00210551 3.00022 0)
(0.869263 -0.00881715 0)
(0.391643 0.927371 -2.31004e-20)
(0.840995 1.21883 -1.01257e-18)
(0.989091 1.05898 9.53407e-19)
(0.707261 1.31364 -1.68937e-19)
(0.702843 1.29727 9.4642e-19)
(0.465641 0.278026 8.99573e-21)
(0.45717 0.181469 0)
(1.16957 0.565605 0)
(0.43793 0.297551 4.22914e-20)
(0.398717 0.201592 -4.38846e-20)
(0.919514 -0.00756784 0)
(1.00034 7.12116e-05 0)
(0.999913 0.00031038 0)
(1.00344 -0.00776689 0)
(1.00094 -0.00106863 0)
(1.00018 -1.532e-05 0)
(0.0124775 1.73559 -3.42936e-19)
(0.053501 0.915034 0)
(0.0755081 0.868641 0)
(-0.00685538 0.86192 0)
(-0.00251658 0.77618 0)
(0.0321988 1.55131 0)
(-0.0375805 1.27723 0)
(-0.0454342 1.08976 0)
(-0.0217558 1.36986 0)
(-0.0140533 1.23968 0)
(0.856751 -0.00127192 0)
(0.872373 0.00952647 0)
(0.790515 -0.00432401 0)
(0.865875 0.0152924 0)
(0.763811 -0.010472 0)
(0.0147045 3.00039 6.94099e-19)
(0.0115328 3.00784 0)
(0.0061454 3.00286 0)
(0.0135383 2.99731 7.74625e-24)
(0.0080049 2.95847 -1.0316e-18)
(0.0144848 2.98211 0)
(0.0107639 2.90366 0)
(0.0250951 2.9305 1.39717e-24)
(0.0041461 2.8249 0)
(0.0313369 2.91554 0)
(-0.00659741 2.74382 0)
(0.31104 3.56883 0)
(-0.132513 3.65114 0)
(0.140925 3.25964 -1.00203e-18)
(-0.0108249 2.9917 0)
(-0.0174596 1.81382 0)
(0.000296422 1.62253 9.51372e-21)
(-0.00324558 1.47761 -1.29948e-20)
(0.6088 0.152132 -1.99517e-19)
(0.553612 0.0515594 -1.95713e-19)
(0.591185 0.190276 -6.03055e-19)
(0.53752 0.120757 -4.01637e-19)
(0.224607 0.905454 0)
(0.281232 1.33702 -6.57178e-19)
(0.39176 1.29687 1.08341e-18)
(0.987576 0.00844011 0)
(0.94287 0.0060087 0)
(1.0003 0.000542569 0)
(1.00289 0.00926518 0)
(1.00306 0.00842779 -1.13567e-18)
(0.991982 0.00972393 8.57532e-19)
(-0.0135471 1.49778 0)
(-0.00310138 1.32751 0)
(-0.0325223 1.61993 0)
(-0.0232572 1.53338 0)
(-0.00467199 1.37927 0)
(0.217159 0.270913 1.51882e-19)
(0.264964 0.248974 0)
(0.993588 -0.00824518 0)
(0.954423 -0.00648902 0)
(0.836398 0.0224101 0)
(0.80337 0.0347742 0)
(0.743287 -0.0248817 0)
(1.00048 -0.00491221 0)
(0.747132 0.0509319 0)
(0.606894 -0.0144923 7.78904e-19)
(-0.0356779 2.86596 3.43082e-19)
(0.0436159 2.90766 0)
(0.0567294 2.88308 0)
(-0.00549674 2.69639 0)
(-0.0131111 2.98533 6.04515e-19)
(-0.0182858 2.8956 0)
(-0.0153283 2.98816 -1.91111e-18)
(-0.0134654 2.92525 6.59704e-19)
(-0.02214 1.81487 0)
(-0.0173718 1.81192 0)
(-0.00121869 1.61821 -1.56249e-22)
(-0.00103727 1.59119 0)
(-0.00582608 1.47636 0)
(0.933981 -0.00566372 0)
(0.852774 -0.00892406 0)
(0.863043 0.00887377 0)
(0.948063 -0.00679443 0)
(0.884407 -0.00763294 0)
(0.505288 1.12308 1.83928e-20)
(0.557422 1.1788 0)
(0.351372 0.865125 5.53138e-21)
(0.294659 0.727649 0)
(0.949405 1.09432 -2.74998e-19)
(1.06212 0.894677 5.61607e-19)
(0.396738 1.39489 0)
(0.558333 1.3742 0)
(0.558888 1.32545 0)
(0.0937619 0.137421 -1.32017e-19)
(0.503718 0.262506 0)
(0.48875 0.164026 1.14883e-19)
(1.03057 0.945852 0)
(1.09545 0.787455 0)
(1.12169 0.730194 -4.86526e-19)
(1.14933 0.624295 0)
(1.20103 0.405917 5.87154e-20)
(0.956825 -0.00861972 0)
(0.962018 -0.0100049 0)
(0.900973 -0.00805359 0)
(0.984247 -0.00910761 0)
(0.974618 -0.00941423 0)
(0.936811 -0.00620198 0)
(1.00016 0.00227591 0)
(1.00088 0.00138684 0)
(0.999907 0.00085731 0)
(-0.032978 1.99475 1.97052e-19)
(0.103699 1.68995 0)
(-0.0258264 1.97226 2.40702e-19)
(0.0100803 1.74495 -1.19192e-19)
(0.117284 1.18294 -5.29351e-19)
(0.0693096 1.03267 0)
(0.129514 1.02141 0)
(-0.0391838 0.902325 0)
(-0.0423795 0.844243 0)
(0.0633371 1.72432 5.71364e-23)
(-0.00127555 1.54665 0)
(0.0362626 1.7224 2.02132e-20)
(-0.000307172 1.54819 -2.11932e-20)
(-0.0581096 1.01431 0)
(-0.0581078 1.15611 0)
(-0.0524341 0.967694 0)
(-0.0142576 1.43576 0)
(-0.00793015 1.27497 0)
(0.942841 0.0152463 0)
(0.879512 0.000674191 0)
(0.923995 0.00865043 0)
(0.845531 -0.00284542 0)
(0.809249 0.00424374 0)
(0.901449 0.0114747 0)
(0.886167 0.00665332 0)
(0.792528 -0.000371826 0)
(0.00597831 3.0649 -6.11955e-21)
(0.0164379 3.05801 0)
(0.0147414 2.96917 0)
(0.00857319 2.87636 0)
(0.928738 3.98847 0)
(1.24431 3.31723 1.01318e-18)
(0.0717415 3.08374 0)
(-0.0260861 2.91134 0)
(-0.0215502 1.8015 0)
(-0.0227439 1.80866 0)
(-0.0198046 1.80403 0)
(-0.0102815 1.8245 5.51483e-21)
(-0.0164844 1.82285 0)
(-0.014146 1.8207 0)
(-0.00418028 1.498 -4.97757e-21)
(0.00100737 1.66983 7.97112e-21)
(0.00129828 1.64105 1.33261e-20)
(-0.00528457 1.47989 0)
(0.633044 0.120841 2.9404e-19)
(0.568247 0.0243756 -2.86141e-19)
(0.255956 1.51655 0)
(0.268924 0.660932 -2.18215e-19)
(0.202054 1.62851 -7.49751e-19)
(0.220486 1.17432 7.52181e-19)
(0.90439 0.00733219 0)
(0.968053 0.0107493 0)
(0.974972 0.0104665 0)
(0.924937 0.00669746 0)
(-0.0133015 1.47258 0)
(-0.0136106 1.48786 0)
(-0.00591728 1.29946 0)
(0.396495 0.305594 3.91818e-19)
(0.336653 0.287356 -4.78195e-19)
(0.344191 0.223092 0)
(1.12267 0.0836774 -2.45097e-21)
(1.10818 0.0382283 0)
(1.03628 0.0374294 0)
(0.942539 0.00594287 0)
(0.656999 0.0919114 0)
(0.687593 0.0655918 -1.25391e-18)
(0.584274 0.00846303 4.79049e-19)
(0.00992737 2.98252 4.32052e-19)
(-0.0317861 2.86815 4.94332e-20)
(0.00378045 3.05017 -1.32079e-20)
(0.0199834 3.04354 4.7491e-19)
(-0.01503 2.99655 2.19213e-20)
(-0.0129657 2.94942 -8.87582e-23)
(-0.017273 3.01202 -4.15294e-19)
(0.0147439 3.02417 3.00115e-19)
(0.00725763 3.03668 -4.69147e-19)
(0.923686 0.00342155 0)
(0.930758 -0.00128441 0)
(0.840684 -0.00655019 0)
(0.957327 0.0122231 0)
(0.94375 0.0133503 0)
(0.883029 0.00802132 0)
(0.916674 0.0136655 0)
(0.926894 0.0145307 0)
(0.836693 0.00792907 0)
(0.71411 1.40927 3.17318e-19)
(0.750156 1.52119 0)
(0.222167 0.37099 2.82194e-20)
(0.176125 0.578128 2.26387e-19)
(0.263011 0.686531 -1.24767e-19)
(0.225142 0.572481 2.30766e-19)
(0.283878 0.685251 7.54213e-19)
(0.107078 0.174058 2.18872e-19)
(0.563756 0.22164 4.32407e-19)
(0.532912 0.243505 1.07153e-19)
(0.513025 0.14613 2.17913e-19)
(1.18975 0.462622 2.85724e-19)
(1.20614 0.256785 2.99207e-19)
(-0.017337 1.91996 2.96416e-20)
(-0.0245073 1.67058 0)
(0.987293 0.0273525 0)
(0.955646 0.0180442 0)
(0.903886 -0.00142837 0)
(0.0109722 3.0745 0)
(0.0199653 2.94419 8.17548e-19)
(0.0165413 2.95641 0)
(0.00615252 2.85072 -8.10828e-19)
(0.0061843 3.0919 1.93968e-19)
(0.00732383 3.08251 0)
(0.784043 1.82705 -2.36371e-19)
(1.2512 2.51258 6.49179e-19)
(0.766947 1.96908 -1.48589e-18)
(0.0210884 2.98431 -3.1837e-19)
(0.0373821 3.00751 0)
(-0.0322076 2.88211 0)
(0.0205693 1.69426 5.47675e-21)
(0.00594904 1.69767 -4.47954e-21)
(0.00613933 1.52496 -3.00426e-21)
(0.274997 1.32268 6.92291e-19)
(0.231936 0.441443 -4.75444e-19)
(0.00844394 1.9493 4.87489e-19)
(0.121478 1.85107 -6.19493e-19)
(0.17714 1.46896 9.70055e-20)
(0.00463979 3.11786 -1.09443e-18)
(0.0164925 3.11811 1.17225e-18)
(-0.00872096 2.98086 5.27113e-19)
(-0.00276119 2.9777 -4.68732e-19)
(-0.0216463 2.88234 -5.36848e-19)
(0.00881213 3.09861 -1.42133e-18)
(0.00206423 3.10668 1.38817e-18)
(0.219609 0.601576 0)
(0.160099 0.584319 -4.37758e-19)
(0.125923 0.198324 1.93456e-19)
(0.319229 0.810891 6.57466e-19)
(0.170998 0.219282 -1.00726e-18)
(1.20437 0.170495 -5.23009e-20)
(1.20619 0.308727 0)
(1.1924 0.118705 1.16647e-19)
(0.039481 1.76178 1.28795e-21)
(-0.00771668 1.81954 0)
(0.00309402 1.59651 0)
(0.323415 1.20285 -2.53311e-19)
(0.349158 1.02114 -5.34212e-19)
(0.193265 0.314548 9.20506e-19)
(1.00583 -0.0110917 0)
(1.00761 -0.00765697 2.07818e-19)
(-0.0227532 1.8009 0)
(-0.0322661 1.80818 0)
(1.00216 0.00339373 1.58813e-21)
(1.00381 0.0094364 4.26737e-19)
(-0.00987276 1.82939 -7.42525e-21)
(-0.00651416 1.82844 0)
(0.0400335 3.18432 1.23849e-19)
(0.400367 3.50416 0)
(1.11259 0.644651 5.83885e-20)
(1.01264 0.0126749 -2.17313e-21)
(1.02144 -0.0106021 0)
(1.0017 1.9417e-05 -5.2088e-23)
(0.117129 1.134 0)
(0.14307 2.65078 0)
(-0.174585 1.49533 0)
(-0.134933 2.21448 2.01888e-20)
(-0.0787646 1.98722 5.38338e-20)
(1.00538 0.00985624 2.70221e-21)
(1.04695 0.0143223 0)
(1.07163 0.0293106 0)
(-0.0243596 1.81137 0)
(-0.0144427 1.8538 0)
(-0.0276441 1.7828 0)
(0.302355 1.44045 -4.39049e-19)
(1.01111 -0.00957057 0)
(1.0095 -0.0154248 0)
(1.00233 0.00041399 2.62044e-19)
(1.00551 -0.00497153 -3.12709e-19)
(1.00122 -0.00108519 0)
(-0.0277308 1.80533 0)
(-0.0248632 1.79823 0)
(-0.0249657 1.80281 0)
(-0.0281028 1.78278 0)
(-0.0278781 1.78464 0)
(-0.0287388 1.7852 0)
(1.03011 -0.0155639 0)
(1.02076 0.0178229 -8.46063e-22)
(0.785849 1.26735 5.15313e-19)
(1.00287 0.000224972 -2.65198e-19)
(1.00322 0.0056567 3.16663e-19)
(1.0013 0.00219333 0)
(1.01295 0.0104065 2.57831e-19)
(1.00815 0.00830681 -3.19953e-19)
(1.00864 0.014251 0)
(-0.0132929 1.85296 0)
(-0.00966398 1.84061 9.7891e-21)
(-0.00711835 1.83982 -6.61485e-21)
(1.18677 0.252206 -4.32384e-20)
(1.12577 0.0887824 0)
(0.0542369 3.07825 -5.35502e-19)
(0.068765 2.85106 -4.27852e-20)
(0.148561 3.19811 8.33039e-19)
(0.142641 3.22701 -8.84729e-21)
(0.141041 3.24393 0)
(0.0215238 3.13856 1.17363e-19)
(0.0811658 3.16275 5.22699e-19)
(0.0740141 3.19001 -2.26537e-19)
(0.0253318 3.1288 0)
(0.671257 0.327871 0)
(0.620007 0.370907 0)
(1.08578 0.671701 -2.29103e-19)
(1.08236 0.812083 3.60036e-19)
(1.14509 0.561989 0)
(1.17589 0.506996 0)
(1.01573 0.0131284 -4.76219e-19)
(1.01406 0.013883 5.95359e-19)
(1.02506 -0.0101581 0)
(1.02285 -0.011958 0)
(1.00659 0.00290116 0)
(1.01032 0.00351284 0)
(1.00498 0.00166075 0)
(1.00961 0.00559679 0)
(1.00828 0.00603283 0)
(1.00477 0.00496121 0)
(0.134877 1.13059 0)
(0.0406957 0.957954 0)
(0.209775 1.19492 0)
(0.160283 1.22574 0)
(0.143984 2.6643 0)
(0.19534 2.67742 -2.11419e-19)
(0.0596919 2.75394 0)
(0.00158406 2.7207 -1.77858e-20)
(-0.164546 2.59621 1.27716e-19)
(-0.141037 1.52375 0)
(-0.111944 1.56731 0)
(-0.202647 1.43674 0)
(-0.171975 1.32334 0)
(-0.352605 2.04145 5.87356e-20)
(-0.111425 2.05465 2.95242e-20)
(-0.124993 2.2037 1.52531e-20)
(-0.0779264 2.12262 0)
(-0.074371 1.98524 -1.03686e-19)
(-0.0548246 1.95621 -2.73958e-20)
(-0.355089 2.02151 -6.04983e-20)
(-0.19153 2.00256 -3.86872e-20)
(-0.207728 2.11923 -1.99795e-20)
(1.01445 0.0205187 4.72322e-19)
(1.0129 0.0050629 -5.80843e-19)
(1.00714 0.0208376 -4.92059e-19)
(0.992309 0.013513 6.22282e-19)
(1.04702 0.0156709 0)
(1.0343 -0.00193265 0)
(1.06858 0.0388753 0)
(1.05388 0.0220782 0)
(1.05381 0.0148938 0)
(1.10905 0.0791317 0)
(1.08239 0.0476192 0)
(1.08682 0.0380602 0)
(-0.0152649 1.83234 -1.4669e-21)
(-0.0244744 1.82348 0)
(-0.0186032 1.82393 0)
(-0.0235142 1.8704 1.24271e-20)
(-0.0218521 1.87464 -3.99308e-22)
(-0.0357025 1.81448 1.13824e-20)
(-0.0317311 1.80851 -1.15106e-20)
(-0.0338139 1.79499 0)
(-0.0317732 1.79925 0)
(-0.0315023 1.79948 0)
(-0.033871 1.7732 0)
(-0.0230844 1.74667 0)
(0.378516 1.47085 8.34687e-19)
(0.399606 1.47501 3.29232e-19)
(0.582939 2.41411 -1.52461e-19)
(0.404614 2.51276 4.39084e-19)
(0.353755 2.07381 -1.96809e-20)
(1.02096 -0.00803558 0)
(1.01514 -0.00974233 0)
(1.01517 -0.0157882 0)
(1.00726 -0.000984003 0)
(1.00467 -0.00157652 0)
(1.00744 -0.00471925 0)
(1.00952 -0.00401467 0)
(1.01356 -0.00433977 0)
(1.02267 0.0176919 4.54714e-19)
(1.01706 0.0168388 -5.81669e-19)
(1.0232 0.0216708 -4.63892e-19)
(1.01732 0.021614 5.81821e-19)
(0.760909 1.31252 0)
(0.689664 1.37219 6.10186e-19)
(0.859231 1.20486 3.51459e-19)
(0.901346 1.16148 -4.67241e-19)
(1.14581 2.61299 -5.12268e-19)
(0.834846 0.112104 3.03253e-19)
(1.12521 0.0984115 0)
(1.17169 0.176877 3.97983e-20)
(1.15938 0.156589 1.80279e-21)
(0.977232 0.12283 0)
(0.150335 2.9678 1.39362e-19)
(0.127068 2.87398 -6.86019e-19)
(0.0397101 2.35338 4.97525e-19)
(0.105212 0.109152 -2.08866e-19)
(0.344744 3.43234 -4.36237e-19)
(0.199642 3.32309 0)
(0.240784 3.36841 5.68119e-19)
(0.257009 3.04166 -7.71366e-19)
(0.351132 3.20125 0)
(0.00662722 3.12078 2.72836e-20)
(0.0178319 3.12958 -3.46444e-19)
(0.0154598 3.12546 5.09914e-19)
(0.0377681 3.14018 0)
(0.0364153 3.15181 0)
(1.21103 2.61639 0)
(0.505121 0.850649 -2.40652e-19)
(1.01505 0.992401 -1.93094e-19)
(0.953354 1.05092 0)
(0.795795 0.951096 4.83701e-20)
(1.0357 0.862438 3.09493e-20)
(0.406485 0.471846 -5.60644e-19)
(0.7058 0.336577 -2.29891e-20)
(0.690937 0.280874 2.30926e-19)
(0.626325 0.408498 1.84435e-20)
(0.564801 0.400644 -7.59567e-19)
(0.683983 0.356033 0)
(0.71946 0.418822 3.71771e-19)
(0.71645 0.415656 0)
(0.659111 0.382804 0)
(0.640405 0.326801 0)
(0.751956 0.589232 1.42767e-19)
(1.18596 0.268881 1.97394e-20)
(1.18195 0.401877 0)
(1.19292 0.356794 0)
(0.76243 0.211474 3.48331e-19)
(0.809127 0.511007 -1.92692e-19)
(0.733022 0.490301 3.15255e-19)
(0.912317 0.411706 -2.99153e-19)
(1.01969 0.0144775 3.131e-19)
(1.0174 0.0139513 -3.2147e-19)
(1.01418 0.0160654 0)
(1.03162 -0.0135569 0)
(1.02827 -0.0108238 -2.90624e-19)
(1.02446 -0.0163869 2.87575e-19)
(1.02804 0.00696118 0)
(1.02546 0.0150075 0)
(1.01137 0.00451968 0)
(1.01435 0.00891333 0)
(1.01545 0.00410384 0)
(1.0136 0.00202057 0)
(-0.0540932 1.02564 0)
(-0.102801 1.02595 0)
(0.311792 1.21186 4.77562e-19)
(0.293431 1.44284 2.59008e-19)
(0.208718 1.35848 5.77426e-19)
(0.21416 1.36977 -9.15351e-19)
(0.341679 1.32696 0)
(0.365016 1.66866 3.56567e-19)
(0.341972 1.71038 0)
(0.362534 2.02657 2.85895e-20)
(0.358112 2.38797 2.19591e-19)
(0.42318 1.46637 -3.16131e-19)
(0.314212 1.41603 1.91639e-19)
(0.359472 1.32692 -1.58069e-19)
(0.329529 1.36377 3.10684e-19)
(0.287164 1.63261 0)
(0.334035 1.62825 -2.01695e-19)
(-0.282849 2.47442 1.97697e-19)
(-0.157997 2.65791 0)
(-0.0514695 2.58533 -3.25011e-19)
(-0.14369 2.60477 0)
(-0.10071 2.72898 1.57701e-20)
(-0.121884 2.69722 0)
(-0.329712 1.67795 1.14707e-19)
(-0.420248 1.7822 0)
(-0.319734 1.51229 0)
(-0.30024 1.53328 -1.29377e-19)
(-0.196127 2.3555 -9.29999e-20)
(-0.161714 2.55979 -1.65939e-19)
(-0.138854 2.4389 -9.77795e-22)
(-0.20767 1.89485 1.32601e-20)
(-0.271168 1.88218 -1.63851e-20)
(-0.092202 1.6187 0)
(-0.0603373 1.64326 0)
(-0.440938 1.89365 -3.58768e-19)
(-0.36467 1.53896 -3.51434e-19)
(-0.402382 1.75911 4.38437e-19)
(-0.320444 1.81844 0)
(-0.0420199 1.84824 -4.32962e-20)
(-0.0418929 1.86808 1.75005e-20)
(-0.0515328 1.87589 -5.81613e-21)
(-0.168396 1.85572 -1.60689e-20)
(-0.0850418 1.91714 -1.00354e-20)
(-0.0997547 1.94201 6.11886e-20)
(1.02112 0.0210757 -3.07077e-19)
(1.02082 0.0167637 3.08833e-19)
(1.01587 0.0151005 0)
(1.0021 0.0463132 4.47518e-19)
(0.993365 0.0335359 -5.1924e-19)
(0.966567 0.0219675 5.99598e-19)
(1.00182 0.0797757 -5.84941e-20)
(1.03249 -0.0146931 0)
(1.03595 -0.000533854 2.60133e-19)
(1.02716 -0.017656 -2.65222e-19)
(1.05133 0.0425754 -1.45279e-20)
(1.05232 0.0292387 1.29146e-19)
(1.04883 0.0492974 0)
(1.04021 0.0429747 -4.7973e-20)
(1.03505 0.0274377 0)
(1.03016 0.0196777 0)
(1.03298 0.00967202 0)
(1.03004 0.0143698 0)
(1.04239 0.0260375 9.9007e-20)
(1.04447 0.0193258 -2.24485e-19)
(1.04372 0.0309313 -1.01299e-19)
(1.04144 0.0301051 -1.16345e-19)
(1.04745 0.0555966 2.12191e-19)
(1.07319 0.050125 0)
(1.07354 0.0943468 0)
(-0.0361326 1.84769 -1.47523e-20)
(-0.0260853 1.82777 -1.54053e-21)
(-0.0294581 1.83113 0)
(-0.0219784 1.84614 1.48091e-20)
(-0.0174724 1.83564 2.88395e-21)
(-0.0173929 1.84167 -2.79971e-21)
(-0.0493039 1.94281 2.09546e-20)
(-0.0582876 1.89312 -2.14406e-21)
(-0.0699344 1.90391 1.06526e-20)
(-0.0359445 1.90516 -1.25808e-20)
(-0.0371501 1.91239 1.54659e-20)
(-0.0430035 1.80473 5.27992e-22)
(-0.0448688 1.81809 1.9596e-20)
(0.398693 1.41047 -4.10672e-19)
(0.357798 1.40189 -3.75398e-19)
(0.646766 1.41242 -5.88113e-19)
(0.519991 1.47225 -3.17293e-19)
(0.557461 1.44789 0)
(0.584321 2.38635 1.30962e-19)
(0.652696 2.37374 2.28945e-19)
(0.420982 2.47798 8.77592e-20)
(0.425804 2.54683 -1.56468e-19)
(0.531331 2.51206 2.92884e-19)
(0.537684 2.42546 0)
(0.510141 2.45851 -3.76322e-19)
(0.27677 2.56894 6.4338e-19)
(0.383494 2.51671 -7.20548e-20)
(0.301151 2.61985 -1.00522e-18)
(0.919166 2.37711 2.11965e-19)
(0.822004 2.36271 0)
(1.01082 0.000262906 1.04991e-20)
(1.01614 -0.0052045 -8.70211e-21)
(1.01681 -0.00420278 -1.54332e-19)
(1.01525 -0.000316755 1.55539e-19)
(1.01242 0.000928631 0)
(0.628087 1.25468 0)
(0.628959 1.16685 0)
(0.730934 1.08612 0)
(0.620042 1.12976 0)
(1.17586 2.62975 5.84412e-20)
(1.06093 2.36062 0)
(0.848833 2.22928 -1.38793e-21)
(0.833361 2.49088 0)
(0.927648 2.57069 7.375e-21)
(0.965464 2.51837 -4.9385e-21)
(0.840853 0.145033 0)
(0.813062 0.150332 8.67017e-20)
(0.925797 0.12777 4.46321e-19)
(0.86497 0.118691 -1.78837e-19)
(0.855934 0.0691981 -5.39287e-19)
(1.02841 0.209643 -2.71763e-19)
(0.95343 0.277153 -1.58208e-20)
(0.891582 0.273768 4.08423e-19)
(0.96412 0.19729 3.06131e-19)
(0.933041 0.158916 -5.63088e-19)
(0.909673 0.174043 7.27486e-20)
(0.932397 0.235009 -1.43834e-19)
(0.910073 0.192405 0)
(0.968839 0.159801 2.7008e-19)
(1.0043 0.161003 0)
(1.00347 0.186929 0)
(1.06795 0.10675 9.11229e-20)
(1.02771 0.150733 -1.33932e-20)
(1.0223 0.213393 -4.99982e-20)
(1.05771 0.185396 0)
(1.02008 0.0262601 2.36245e-19)
(1.03562 0.0456157 2.8178e-19)
(1.03243 0.031821 -2.34433e-19)
(1.03099 0.0492912 -1.89341e-19)
(1.01153 0.0517338 -3.1514e-19)
(0.976081 0.123472 0)
(0.982564 0.0755917 0)
(0.970392 0.0449934 -2.16152e-19)
(0.936257 0.0579284 9.06344e-20)
(1.01552 0.0801859 2.67696e-19)
(1.03252 0.108527 -2.76326e-19)
(1.03562 0.130865 2.51074e-19)
(0.998323 0.123608 0)
(1.04248 0.0963014 0)
(1.02941 0.0790184 -1.14963e-19)
(1.02767 0.0796612 -2.14995e-19)
(0.562973 1.07405 -8.16939e-20)
(0.607667 1.44033 1.81216e-19)
(1.15086 2.76122 8.85186e-20)
(1.21867 3.09832 -6.86941e-20)
(1.24114 2.73247 5.32216e-19)
(1.27405 2.71691 -3.26604e-19)
(1.1996 2.34871 -8.17118e-21)
(1.20428 3.00083 1.84122e-19)
(1.2223 2.96504 -1.98153e-19)
(1.21129 3.25202 -2.65091e-19)
(1.37457 2.98175 3.67152e-19)
(1.3678 2.89855 0)
(0.507679 0.856393 -1.38e-20)
(0.162203 1.29294 3.7668e-19)
(0.523661 0.543367 3.69571e-19)
(0.355909 0.313376 4.02728e-19)
(0.568853 0.431719 4.2499e-19)
(0.561793 0.497843 -6.77837e-19)
(0.556552 0.521475 5.56504e-19)
(0.525361 0.46898 -2.21999e-19)
(0.485762 0.409123 5.0965e-19)
(0.765331 0.269166 -1.95544e-19)
(0.733656 0.297076 0)
(0.72213 0.253111 1.01666e-20)
(0.727414 0.508213 1.97924e-19)
(0.704684 0.469014 -7.27781e-19)
(0.62933 0.49487 1.96484e-20)
(0.646253 0.464724 0)
(0.629068 0.73672 1.58744e-19)
(0.777292 0.75582 6.89336e-20)
(0.709991 0.84306 -8.88357e-20)
(0.825583 0.790449 -2.34606e-20)
(0.864579 0.831451 1.14347e-20)
(0.873246 0.834705 -1.17082e-20)
(0.792778 0.621307 -2.43048e-19)
(0.871063 0.684143 2.18157e-20)
(0.934415 0.696385 0)
(0.922043 0.669757 -2.43521e-20)
(0.980369 0.31324 6.85319e-20)
(1.0892 0.276389 1.83447e-20)
(1.01411 0.246437 1.10975e-19)
(0.96604 0.347874 -1.54902e-19)
(1.01283 0.404439 0)
(1.05174 0.394854 0)
(0.885441 0.351031 5.09796e-21)
(0.817642 0.289178 0)
(0.838125 0.277455 2.08718e-19)
(0.877711 0.283631 -6.93989e-21)
(0.905856 0.412622 8.18317e-19)
(0.862128 0.46383 2.08752e-19)
(0.872325 0.433091 -2.61456e-19)
(0.80868 0.418337 2.79594e-19)
(0.795829 0.414242 1.89492e-19)
(0.770661 0.403922 -1.86443e-19)
(1.02732 -0.00592907 2.44785e-19)
(1.01971 -0.00195552 0)
(1.01822 -0.00084063 1.65762e-19)
(1.02287 -0.00218207 -3.74431e-19)
(1.02206 0.00197787 1.80033e-19)
(1.02096 0.0102888 -3.78045e-19)
(1.02239 0.00974976 0)
(1.02133 0.010656 -7.95996e-20)
(1.01665 0.00688135 1.99903e-19)
(1.01687 0.0101085 -1.00586e-19)
(1.01741 0.00921555 7.34117e-20)
(-0.225993 1.28552 0)
(-0.32648 1.4595 0)
(-0.165774 1.14175 0)
(-0.152829 1.13878 0)
(-0.0126933 1.3579 -1.21136e-18)
(0.179955 1.18123 4.19327e-19)
(0.223537 1.683 2.95395e-19)
(0.251557 1.28294 -2.10088e-19)
(-0.332454 1.53015 5.24204e-19)
(-0.323838 1.52323 -4.02426e-19)
(-0.138512 1.25958 9.85781e-20)
(-0.159176 1.26986 6.17264e-19)
(-0.217354 1.28299 7.46993e-20)
(-0.308617 1.39995 5.94355e-20)
(0.00676691 2.59561 3.47542e-19)
(0.119665 2.61281 0)
(0.240361 2.25646 -3.967e-20)
(0.236323 1.8354 -1.69605e-19)
(0.340071 2.09229 2.57076e-20)
(0.258181 2.45693 0)
(0.277859 2.41549 -2.04977e-19)
(0.374003 2.39634 1.35433e-19)
(0.307114 2.07273 9.15083e-20)
(0.238489 2.2894 2.59046e-20)
(0.162638 2.44187 0)
(-0.403688 2.16733 3.73472e-19)
(-0.338603 2.27338 1.27568e-19)
(-0.397897 2.16542 0)
(-0.308614 2.43439 6.77296e-21)
(-0.357315 2.39317 -1.90053e-19)
(-0.232048 1.6573 -3.73212e-21)
(-0.158893 1.68118 6.60644e-20)
(-0.16141 1.72645 -2.18957e-20)
(-0.246035 1.72277 -1.92595e-20)
(-0.303355 1.69161 0)
(-0.135675 1.72958 0)
(-0.0434897 1.74115 1.34597e-20)
(-0.0750025 1.76143 -3.73146e-21)
(-0.0972055 1.74249 0)
(-0.0588053 1.69092 8.58646e-21)
(-0.0310226 1.7021 -1.92249e-20)
(1.03501 0.0030561 0)
(1.0428 0.00651612 -2.47572e-20)
(1.04674 0.017282 -1.78419e-19)
(1.04618 0.0180974 0)
(1.04634 0.0185511 0)
(1.04547 0.0058334 -6.33116e-21)
(1.03977 0.0043763 2.97148e-19)
(1.04153 0.0118414 3.5686e-19)
(1.03151 0.0165343 0)
(1.03032 0.0149728 0)
(1.04231 0.0190824 1.80103e-19)
(1.03261 0.0147568 0)
(1.03152 0.0138992 0)
(-0.0846132 1.84773 0)
(-0.0576979 1.81452 2.59309e-21)
(-0.0666296 1.83975 9.64928e-21)
(-0.0569121 1.76867 0)
(-0.0701247 1.80472 8.62437e-21)
(-0.054112 1.79625 -7.26646e-21)
(-0.0522496 1.78771 0)
(0.368269 1.72052 0)
(0.34033 1.33338 5.95719e-19)
(0.286674 1.3821 0)
(0.425427 1.28471 -7.69801e-19)
(0.489117 1.42707 0)
(0.43563 1.4002 3.80814e-19)
(1.02713 2.70417 -4.22923e-21)
(0.946198 2.41171 -2.67195e-19)
(0.870054 2.14688 3.68384e-19)
(0.846937 2.35881 1.36625e-19)
(0.847622 2.52926 0)
(0.909194 2.5182 0)
(0.878449 2.37659 0)
(0.915664 2.32702 -4.80793e-19)
(0.68119 2.50963 -2.7386e-20)
(0.81139 2.50094 -1.42278e-20)
(0.819529 2.47291 1.0893e-20)
(0.677945 2.35708 0)
(0.786155 2.36083 0)
(0.746065 2.36434 -2.3583e-19)
(0.764294 2.51486 0)
(0.575435 1.08564 0)
(0.468613 0.924274 -1.51461e-20)
(0.515219 0.954991 -2.19877e-21)
(0.499081 1.04988 0)
(0.498459 1.00556 2.60868e-20)
(0.7332 0.86926 8.99437e-21)
(0.757185 1.002 0)
(0.728951 0.960642 -5.37683e-20)
(0.601472 1.02646 0)
(0.616432 0.935847 0)
(1.15628 2.77672 4.11062e-20)
(1.13364 2.84287 1.10219e-19)
(0.928918 2.36992 -2.59171e-19)
(0.894953 2.34288 2.87156e-20)
(1.11987 2.74625 0)
(1.07234 2.7158 -3.44482e-20)
(1.07475 2.48687 -8.68418e-20)
(0.968592 2.21821 -2.9633e-20)
(0.499642 1.3639 0)
(0.498724 1.06705 7.20155e-20)
(0.553752 1.14583 0)
(0.858918 0.210839 0)
(0.821251 0.162792 0)
(0.778808 0.155666 0)
(0.845352 0.218889 -3.27531e-19)
(0.792753 0.219026 2.03059e-19)
(0.940587 0.0527902 -1.86807e-19)
(0.948198 0.100699 0)
(0.924211 0.103871 8.41199e-20)
(0.888434 0.0800164 3.44143e-19)
(0.882824 0.0493948 -2.11996e-19)
(1.16361 3.37782 -9.77248e-19)
(1.20837 3.29754 0)
(1.16488 3.40395 -1.92672e-18)
(0.652257 3.56453 1.65353e-18)
(0.879279 3.13043 3.8077e-19)
(0.494123 0.876413 2.24839e-19)
(0.422176 0.861712 0)
(0.354428 0.564088 -8.4951e-20)
(0.42511 0.698971 3.90201e-19)
(0.524751 0.541116 -1.16499e-19)
(0.508851 0.565104 1.31747e-19)
(0.65129 0.543733 2.80109e-19)
(0.677368 0.539526 0)
(0.613545 0.638291 0)
(0.577679 0.571164 0)
(0.927356 0.577144 -4.38122e-20)
(0.859807 0.514322 -2.02162e-19)
(0.880687 0.546578 1.02604e-19)
(0.921505 0.486716 -1.48323e-19)
(1.01147 0.47012 0)
(1.02896 0.550349 -1.04757e-20)
(0.830403 0.378172 -4.17364e-19)
(0.82913 0.363551 -4.90433e-19)
(0.783954 0.376537 3.28443e-19)
(0.772582 0.348996 -3.6764e-19)
(0.82048 0.310737 -2.75853e-19)
(0.780726 0.307216 3.38375e-19)
(1.0276 0.00227126 -1.90652e-19)
(1.02892 0.000690069 3.89503e-19)
(1.02816 -0.00671395 2.3256e-19)
(1.03208 -0.00877902 -2.8729e-19)
(1.03685 -0.00140893 0)
(1.03488 0.000535672 -4.67411e-19)
(-0.254382 1.99203 -1.21634e-19)
(-0.243743 1.79944 0)
(0.0122876 1.85875 -9.74771e-19)
(0.107892 1.84584 8.86448e-19)
(0.151233 1.67055 -5.49352e-19)
(-0.0221635 1.68799 0)
(-0.148783 1.84879 0)
(-0.131005 1.77263 -2.81503e-21)
(-0.0963283 1.77489 2.54245e-21)
(-0.0853727 1.80086 4.88314e-21)
(-0.0994907 1.85088 -1.19261e-20)
(-0.112834 1.85002 8.02055e-21)
(0.50376 1.37744 4.07559e-19)
(0.491139 1.39016 -4.37398e-19)
(0.441078 1.2813 3.9487e-19)
(0.413722 1.30054 -2.59832e-20)
(0.617221 1.29572 0)
(0.551691 1.3741 5.24777e-19)
(0.565932 1.3593 -5.07377e-19)
(0.454995 1.26144 -3.89387e-19)
(0.50323 1.21532 0)
(0.559016 1.18393 0)
(0.632078 2.46016 4.0336e-20)
(0.671465 2.47729 5.67376e-19)
(0.706217 2.49374 -3.87745e-19)
(0.604387 2.47806 -1.27305e-19)
(0.549465 2.56966 1.23719e-19)
(0.525853 2.53918 -3.4871e-19)
(0.959198 2.36287 -2.00726e-19)
(1.00037 2.38673 0)
(0.89131 2.1303 -2.68404e-19)
(1.04141 2.6969 0)
(1.0402 2.68323 0)
(0.622975 2.30306 2.45374e-19)
(1.04079 3.18029 4.78076e-19)
(0.913326 3.05037 -4.31872e-19)
(0.295827 0.976771 0)
(0.347613 0.847371 -1.53144e-19)
(0.490359 0.78966 -6.94953e-20)
(0.412541 2.05308 0)
(0.474769 2.79817 -2.65014e-19)
(0.437967 2.56364 0)
(0.639372 0.683016 -3.29593e-19)
(0.712206 0.660084 4.2757e-19)
(0.742412 0.604947 -4.18619e-19)
(0.631193 0.646479 -4.87593e-20)
(0.697184 0.593797 -1.99535e-19)
(1.00004 2.78746 -3.63412e-19)
(1.0327 2.84413 2.71699e-19)
(0.65256 2.20226 4.79122e-20)
(0.59867 1.74596 -6.59574e-20)
(0.695689 1.93467 9.05216e-20)
(0.982352 2.46951 -7.1468e-20)
(0.988378 2.47205 -1.4427e-19)
(0.671683 1.88901 -4.06445e-21)
(0.445124 1.35403 -6.97185e-20)
)
;

boundaryField
{
    wall-4
    {
        type            noSlip;
    }
    velocity-inlet-5
    {
        type            fixedValue;
        value           uniform (1 0 0);
    }
    velocity-inlet-6
    {
        type            fixedValue;
        value           uniform (0 3 0);
    }
    pressure-outlet-7
    {
        type            zeroGradient;
    }
    wall-8
    {
        type            noSlip;
    }
    frontAndBackPlanes
    {
        type            empty;
    }
}


// ************************************************************************* //
