/*--------------------------------*- C++ -*----------------------------------*\
  =========                 |
  \\      /  F ield         | OpenFOAM: The Open Source CFD Toolbox
   \\    /   O peration     | Website:  https://openfoam.org
    \\  /    A nd           | Version:  13
     \\/     M anipulation  |
\*---------------------------------------------------------------------------*/
FoamFile
{
    format      ascii;
    class       volScalarField;
    location    "0.76";
    object      T;
}
// * * * * * * * * * * * * * * * * * * * * * * * * * * * * * * * * * * * * * //

dimensions      [0 0 0 1 0 0 0];

internalField   nonuniform List<scalar> 
1000
(
4.34241e-212
2.18356e-211
1.27013e-210
7.40784e-210
4.31247e-209
2.5055e-208
1.45276e-207
8.40659e-207
4.85482e-206
2.79802e-205
1.60935e-204
9.2379e-204
5.29192e-203
3.02532e-202
1.72601e-201
9.82718e-201
5.58375e-200
3.16615e-199
1.79162e-198
1.01173e-197
5.70147e-197
3.20635e-196
1.79943e-195
1.00776e-194
5.63213e-194
3.14111e-193
1.74817e-192
9.70904e-192
5.3809e-191
2.97591e-190
1.64236e-189
9.04477e-189
4.97058e-188
2.7258e-187
1.49161e-186
8.14498e-186
4.43809e-185
2.41308e-184
1.30922e-183
7.08795e-183
3.82904e-182
2.06405e-181
1.11022e-180
5.95874e-180
3.1912e-179
1.70532e-178
9.09299e-178
4.83789e-177
2.56833e-176
1.36047e-175
7.19063e-175
3.79214e-174
1.99544e-173
1.04768e-172
5.48845e-172
2.8688e-171
1.49616e-170
7.78545e-170
4.04214e-169
2.09392e-168
1.08225e-167
5.58097e-167
2.87149e-166
1.47406e-165
7.54977e-165
3.85797e-164
1.96693e-163
1.00051e-162
5.07753e-162
2.57088e-161
1.29869e-160
6.54521e-160
3.29103e-159
1.65092e-158
8.26243e-158
4.12545e-157
2.05502e-156
1.02127e-155
5.06333e-155
2.50442e-154
1.2358e-153
6.08359e-153
2.98769e-152
1.46377e-151
7.1544e-151
3.48843e-150
1.69685e-149
8.23396e-149
3.98588e-148
1.92481e-147
9.2725e-147
4.45603e-146
2.13618e-145
1.02157e-144
4.87337e-144
2.31912e-143
1.1009e-142
5.21313e-142
2.46248e-141
1.16029e-140
5.45358e-140
2.55688e-139
1.19579e-138
5.57835e-138
2.59577e-137
1.20484e-136
5.57823e-136
2.5761e-135
1.18665e-134
5.45229e-134
2.49876e-133
1.14224e-132
5.20806e-132
2.36851e-131
1.07437e-130
4.86083e-130
2.19351e-129
9.87274e-129
4.43204e-128
1.98442e-127
8.86189e-127
3.94709e-126
1.75341e-125
7.76857e-125
3.4328e-124
1.51287e-123
6.64967e-123
2.91499e-122
1.27442e-121
5.55675e-121
2.41635e-120
1.04792e-119
4.53232e-119
1.95494e-118
8.40943e-118
3.60756e-117
1.54338e-116
6.58478e-116
2.80166e-115
1.18875e-114
5.02998e-114
2.12245e-113
8.931e-113
3.74759e-112
1.56816e-111
6.54353e-111
2.72278e-110
1.12977e-109
4.67452e-109
1.92866e-108
7.93484e-108
3.25524e-107
1.33164e-106
5.43185e-106
2.20932e-105
8.96023e-105
3.62347e-104
1.46107e-103
5.87428e-103
2.3549e-102
9.41287e-102
3.75144e-101
1.49073e-100
5.90633e-100
2.33321e-99
9.18971e-99
3.60877e-98
1.41293e-97
5.51551e-97
2.14658e-96
8.32921e-96
3.22218e-95
1.24275e-94
4.77857e-94
1.83186e-93
7.00103e-93
2.66749e-92
1.01323e-91
3.83691e-91
1.44848e-90
5.45128e-90
2.04521e-89
7.64932e-89
2.85202e-88
1.06004e-87
3.9276e-87
1.45065e-86
5.34106e-86
1.96027e-85
7.17171e-85
2.61544e-84
9.50778e-84
3.44524e-83
1.24441e-82
4.48028e-82
1.60784e-81
5.75134e-81
2.0506e-80
7.28746e-80
2.58136e-79
9.11366e-79
3.20705e-78
1.12482e-77
3.93207e-77
1.36998e-76
4.75729e-76
1.64646e-75
5.67916e-75
1.95234e-74
6.68897e-74
2.28398e-73
7.7723e-73
2.63588e-72
8.90877e-72
3.00068e-71
1.00723e-70
3.36927e-70
1.12316e-69
3.73111e-69
1.23515e-68
4.07462e-68
1.33946e-67
4.38779e-67
1.43229e-66
4.65882e-66
1.51001e-65
4.87684e-65
1.56944e-64
5.03262e-64
1.60798e-63
5.11921e-63
1.62387e-62
5.13246e-62
1.61628e-61
5.07132e-61
1.58538e-60
4.93798e-60
1.53237e-59
4.73771e-59
1.45936e-58
4.47856e-58
1.36928e-57
4.17077e-57
1.26563e-56
3.82613e-56
1.15231e-55
3.45722e-55
1.03331e-54
3.07662e-54
9.12538e-54
2.69623e-53
7.93573e-53
2.32667e-52
6.79507e-52
1.97679e-51
5.72832e-51
1.65345e-50
4.75382e-50
1.36138e-49
3.88324e-49
1.10327e-48
3.12203e-48
8.79941e-48
2.47016e-47
6.90632e-47
1.92314e-46
5.33354e-46
1.47316e-45
4.0524e-45
1.11018e-44
3.02893e-44
8.2299e-44
2.2269e-43
6.00073e-43
1.61027e-42
4.30303e-42
1.14507e-41
3.03429e-41
8.00665e-41
2.1038e-40
5.5044e-40
1.43405e-39
3.72013e-39
9.60919e-39
2.47141e-38
6.32883e-38
1.61368e-37
4.0966e-37
1.03545e-36
2.60576e-36
6.52873e-36
1.62857e-35
4.04447e-35
9.99972e-35
2.46137e-34
6.0315e-34
1.47138e-33
3.57328e-33
8.63871e-33
2.07903e-32
4.9808e-32
1.18783e-31
2.81982e-31
6.66334e-31
1.56733e-30
3.66963e-30
8.55198e-30
1.98376e-29
4.58018e-29
1.05254e-28
2.40744e-28
5.48051e-28
1.24174e-27
2.80011e-27
6.28422e-27
1.40362e-26
3.12007e-26
6.90221e-26
1.51955e-25
3.32917e-25
7.25848e-25
1.57484e-24
3.40019e-24
7.30526e-24
1.56181e-23
3.32259e-23
7.03348e-23
1.48151e-22
3.10505e-22
6.4753e-22
1.3436e-21
2.7739e-21
5.69792e-21
1.1645e-20
2.36784e-20
4.79015e-20
9.64102e-20
1.93048e-19
3.84566e-19
7.62134e-19
1.50259e-18
2.94707e-18
5.7501e-18
1.11606e-17
2.15487e-17
4.13874e-17
7.90717e-17
1.50271e-16
2.84067e-16
5.34138e-16
9.99e-16
1.85845e-15
3.43875e-15
6.32862e-15
1.15843e-14
2.10901e-14
3.81877e-14
6.87704e-14
1.2317e-13
2.19396e-13
3.88654e-13
6.84707e-13
1.19963e-12
2.09017e-12
3.62161e-12
6.24029e-12
1.06925e-11
1.82191e-11
3.08698e-11
5.20112e-11
8.71387e-11
1.45167e-10
2.40473e-10
3.96091e-10
6.48711e-10
1.0564e-09
1.7105e-09
2.75377e-09
4.40796e-09
7.01532e-09
1.11007e-08
1.74641e-08
2.73166e-08
4.24802e-08
6.56783e-08
1.00955e-07
1.54277e-07
2.34389e-07
3.54023e-07
5.31594e-07
7.93557e-07
1.17767e-06
1.73745e-06
2.54825e-06
3.71541e-06
5.38526e-06
7.75957e-06
1.11147e-05
1.58264e-05
2.24023e-05
3.15229e-05
4.40939e-05
6.13128e-05
8.47505e-05
0.000116453
0.000159066
0.000215982
0.000291526
0.00039116
0.000521733
0.000691771
0.000911795
0.00119469
0.0015561
0.00201487
0.00259352
0.00331869
0.00422166
0.0053388
0.00671203
0.00838918
0.0104243
0.0128779
0.0158169
0.0193144
0.0234498
0.0283076
0.033977
0.0405504
0.0481226
0.0567884
0.0666411
0.0777701
0.0902588
0.104182
0.119602
0.136568
0.155114
0.175253
0.196979
0.220263
0.245054
0.271274
0.298825
0.327583
0.357405
0.388126
0.419565
0.451527
0.483807
0.516193
0.548473
0.580435
0.611874
0.642595
0.672417
0.701175
0.728726
0.754946
0.779737
0.803021
0.824747
0.844886
0.863432
0.880398
0.895818
0.909741
0.92223
0.933359
0.943212
0.951877
0.95945
0.966023
0.971692
0.97655
0.980686
0.984183
0.987122
0.989576
0.991611
0.993288
0.994661
0.995778
0.996681
0.997406
0.997985
0.998444
0.998805
0.999088
0.999308
0.999477
0.999608
0.999707
0.999781
0.999837
0.999878
0.999907
0.999928
0.99994
0.999946
0.999946
0.99994
0.999928
0.999907
0.999878
0.999837
0.999781
0.999707
0.999608
0.999477
0.999308
0.999088
0.998805
0.998444
0.997985
0.997406
0.996681
0.995778
0.994661
0.993288
0.991611
0.989576
0.987122
0.984183
0.980686
0.97655
0.971692
0.966023
0.95945
0.951877
0.943212
0.933359
0.92223
0.909741
0.895818
0.880398
0.863432
0.844886
0.824747
0.803021
0.779737
0.754946
0.728726
0.701175
0.672417
0.642595
0.611874
0.580435
0.548473
0.516193
0.483807
0.451527
0.419565
0.388126
0.357405
0.327583
0.298825
0.271274
0.245054
0.220263
0.196979
0.175253
0.155114
0.136568
0.119602
0.104182
0.0902588
0.0777701
0.0666411
0.0567884
0.0481226
0.0405504
0.033977
0.0283076
0.0234498
0.0193144
0.0158169
0.0128779
0.0104243
0.00838918
0.00671203
0.0053388
0.00422166
0.00331869
0.00259352
0.00201487
0.0015561
0.00119469
0.000911795
0.000691771
0.000521733
0.00039116
0.000291526
0.000215982
0.000159066
0.000116453
8.47505e-05
6.13128e-05
4.40939e-05
3.15229e-05
2.24023e-05
1.58264e-05
1.11147e-05
7.75957e-06
5.38526e-06
3.71541e-06
2.54825e-06
1.73745e-06
1.17767e-06
7.93557e-07
5.31594e-07
3.54023e-07
2.34389e-07
1.54277e-07
1.00955e-07
6.56783e-08
4.24802e-08
2.73166e-08
1.74641e-08
1.11007e-08
7.01532e-09
4.40796e-09
2.75377e-09
1.7105e-09
1.0564e-09
6.48711e-10
3.96091e-10
2.40473e-10
1.45167e-10
8.71387e-11
5.20112e-11
3.08698e-11
1.82191e-11
1.06925e-11
6.24029e-12
3.62161e-12
2.09017e-12
1.19963e-12
6.84707e-13
3.88654e-13
2.19396e-13
1.2317e-13
6.87704e-14
3.81877e-14
2.10901e-14
1.15843e-14
6.32862e-15
3.43875e-15
1.85845e-15
9.99e-16
5.34138e-16
2.84067e-16
1.50271e-16
7.90717e-17
4.13874e-17
2.15487e-17
1.11606e-17
5.7501e-18
2.94707e-18
1.50259e-18
7.62134e-19
3.84566e-19
1.93048e-19
9.64102e-20
4.79015e-20
2.36784e-20
1.1645e-20
5.69792e-21
2.7739e-21
1.3436e-21
6.4753e-22
3.10505e-22
1.48151e-22
7.03348e-23
3.32259e-23
1.56181e-23
7.30526e-24
3.40019e-24
1.57484e-24
7.25848e-25
3.32917e-25
1.51955e-25
6.90221e-26
3.12007e-26
1.40362e-26
6.28422e-27
2.80011e-27
1.24174e-27
5.48051e-28
2.40744e-28
1.05254e-28
4.58018e-29
1.98376e-29
8.55198e-30
3.66963e-30
1.56733e-30
6.66334e-31
2.81982e-31
1.18783e-31
4.9808e-32
2.07903e-32
8.63871e-33
3.57328e-33
1.47138e-33
6.0315e-34
2.46137e-34
9.99972e-35
4.04447e-35
1.62857e-35
6.52873e-36
2.60576e-36
1.03545e-36
4.0966e-37
1.61368e-37
6.32883e-38
2.47141e-38
9.60919e-39
3.72013e-39
1.43405e-39
5.5044e-40
2.1038e-40
8.00665e-41
3.03429e-41
1.14507e-41
4.30303e-42
1.61027e-42
6.00073e-43
2.2269e-43
8.2299e-44
3.02893e-44
1.11018e-44
4.0524e-45
1.47316e-45
5.33354e-46
1.92314e-46
6.90632e-47
2.47016e-47
8.79941e-48
3.12203e-48
1.10327e-48
3.88324e-49
1.36138e-49
4.75382e-50
1.65345e-50
5.72832e-51
1.97679e-51
6.79507e-52
2.32667e-52
7.93573e-53
2.69623e-53
9.12538e-54
3.07662e-54
1.03331e-54
3.45722e-55
1.15231e-55
3.82613e-56
1.26563e-56
4.17077e-57
1.36928e-57
4.47856e-58
1.45936e-58
4.73771e-59
1.53237e-59
4.93798e-60
1.58538e-60
5.07132e-61
1.61628e-61
5.13246e-62
1.62387e-62
5.11921e-63
1.60798e-63
5.03262e-64
1.56944e-64
4.87684e-65
1.51001e-65
4.65882e-66
1.43229e-66
4.38779e-67
1.33946e-67
4.07462e-68
1.23515e-68
3.73111e-69
1.12316e-69
3.36927e-70
1.00723e-70
3.00068e-71
8.90877e-72
2.63588e-72
7.7723e-73
2.28398e-73
6.68897e-74
1.95234e-74
5.67916e-75
1.64646e-75
4.75729e-76
1.36998e-76
3.93207e-77
1.12482e-77
3.20705e-78
9.11366e-79
2.58136e-79
7.28746e-80
2.0506e-80
5.75134e-81
1.60784e-81
4.48028e-82
1.24441e-82
3.44524e-83
9.50778e-84
2.61544e-84
7.17171e-85
1.96027e-85
5.34106e-86
1.45065e-86
3.9276e-87
1.06004e-87
2.85202e-88
7.64932e-89
2.04521e-89
5.45128e-90
1.44848e-90
3.83691e-91
1.01323e-91
2.66749e-92
7.00103e-93
1.83186e-93
4.77857e-94
1.24275e-94
3.22218e-95
8.32921e-96
2.14658e-96
5.51551e-97
1.41293e-97
3.60877e-98
9.18971e-99
2.33321e-99
5.90633e-100
1.49073e-100
3.75144e-101
9.41287e-102
2.3549e-102
5.87428e-103
1.46107e-103
3.62347e-104
8.96023e-105
2.20932e-105
5.43185e-106
1.33164e-106
3.25524e-107
7.93484e-108
1.92866e-108
4.67452e-109
1.12977e-109
2.72278e-110
6.54353e-111
1.56816e-111
3.74759e-112
8.931e-113
2.12245e-113
5.02998e-114
1.18875e-114
2.80166e-115
6.58478e-116
1.54338e-116
3.60756e-117
8.40943e-118
1.95494e-118
4.53232e-119
1.04792e-119
2.41635e-120
5.55675e-121
1.27442e-121
2.91499e-122
6.64967e-123
1.51287e-123
3.4328e-124
7.76857e-125
1.75341e-125
3.94709e-126
8.86189e-127
1.98442e-127
4.43204e-128
9.87274e-129
2.19351e-129
4.86083e-130
1.07437e-130
2.36851e-131
5.20806e-132
1.14224e-132
2.49876e-133
5.45229e-134
1.18665e-134
2.5761e-135
5.57823e-136
1.20484e-136
2.59577e-137
5.57835e-138
1.19579e-138
2.55688e-139
5.45358e-140
1.16029e-140
2.46248e-141
5.21313e-142
1.1009e-142
2.31912e-143
4.87337e-144
1.02157e-144
2.13618e-145
4.45603e-146
9.2725e-147
1.92481e-147
3.98588e-148
8.23396e-149
1.69685e-149
3.48843e-150
7.1544e-151
1.46377e-151
2.98769e-152
6.08359e-153
1.2358e-153
2.50442e-154
5.06333e-155
1.02127e-155
2.05502e-156
4.12545e-157
8.26243e-158
1.65092e-158
3.29103e-159
6.54521e-160
1.29869e-160
2.57088e-161
5.07753e-162
1.00051e-162
1.96693e-163
3.85797e-164
7.54977e-165
1.47406e-165
2.87149e-166
5.58097e-167
1.08225e-167
2.09392e-168
4.04214e-169
7.78545e-170
1.49616e-170
2.8688e-171
5.48845e-172
1.04768e-172
1.99544e-173
3.79214e-174
7.19063e-175
1.36047e-175
2.56833e-176
4.83789e-177
9.09299e-178
1.70532e-178
3.1912e-179
5.95874e-180
1.11022e-180
2.06405e-181
3.82904e-182
7.08795e-183
1.30922e-183
2.41308e-184
4.43809e-185
8.14498e-186
1.49161e-186
2.7258e-187
4.97058e-188
9.04477e-189
1.64236e-189
2.97591e-190
5.3809e-191
9.70904e-192
1.74817e-192
3.14111e-193
5.63213e-194
1.00776e-194
1.79943e-195
3.20635e-196
5.70147e-197
1.01173e-197
1.79162e-198
3.16615e-199
5.58375e-200
9.82718e-201
1.72601e-201
3.02532e-202
5.29192e-203
9.2379e-204
1.60935e-204
2.79802e-205
4.85482e-206
8.40659e-207
1.45276e-207
2.5055e-208
4.31247e-209
7.40784e-210
1.27013e-210
2.18356e-211
4.34241e-212
)
;

boundaryField
{
    sides
    {
        type            zeroGradient;
    }
    empty
    {
        type            empty;
    }
}


// ************************************************************************* //
