/*--------------------------------*- C++ -*----------------------------------*\
  =========                 |
  \\      /  F ield         | OpenFOAM: The Open Source CFD Toolbox
   \\    /   O peration     | Website:  https://openfoam.org
    \\  /    A nd           | Version:  13
     \\/     M anipulation  |
\*---------------------------------------------------------------------------*/
FoamFile
{
    format      ascii;
    class       volScalarField;
    location    "59";
    object      p;
}
// * * * * * * * * * * * * * * * * * * * * * * * * * * * * * * * * * * * * * //

dimensions      [0 2 -2 0 0 0 0];

internalField   nonuniform List<scalar> 
918
(
0.556332
1.18521
0.000584345
0.555761
-0.00945535
1.15224
-0.508908
0.675867
0.536522
-0.110717
-0.0448758
0.536366
1.01275
0.778705
-1.12532
-0.0104571
0.651418
-0.383398
0.53562
-0.0552835
0.701571
0.54307
0.546096
0.536675
0.600053
0.754743
0.893652
0.0216376
0.011451
0.00497555
-0.0148671
-0.0367738
-0.0309663
1.0359
1.08698
1.10966
0.504367
0.331744
-0.374198
-0.445893
-0.435811
-0.547671
0.671356
0.669395
-0.20613
0.67916
0.682439
0.523576
0.53589
0.536799
0.53783
0.536809
0.538191
0.4038
-0.112968
-0.144851
-0.0912954
-0.0825076
0.0544285
-0.0453425
-0.0479216
-0.043707
-0.0430587
0.45367
0.530688
0.527612
0.541575
0.552316
1.12476
1.09669
1.12284
1.03643
1.05298
0.990746
0.963423
0.799448
0.821152
0.763754
0.752258
-1.55788
-2.51077
-0.534704
-0.283668
-0.0153151
-0.00828362
-0.00193367
0.647987
0.648777
0.651033
0.654426
1.07982
-0.38024
-0.481215
0.535759
0.534567
0.542898
0.543598
0.539616
0.538707
-0.0457084
-0.0418577
-0.0472257
-0.0511895
-0.050501
0.690483
0.690802
0.537206
0.534212
0.559439
0.579881
0.57089
0.278252
0.608386
0.623194
0.585126
0.748654
0.74118
0.75064
0.867128
0.830703
0.93094
0.954047
0.0173493
-0.00104966
-0.0151238
-0.0192516
-0.0181504
0.500212
0.492773
0.520037
0.507792
0.510291
0.248207
0.114504
0.416922
0.441951
-0.292137
-0.356881
-0.431035
-0.460188
-0.567804
0.610882
0.665211
0.662405
-0.218117
-0.145767
-0.277963
-0.0722522
-0.134768
0.513859
0.52086
0.515865
0.531398
0.525869
0.527831
0.540156
0.537228
0.538787
0.46617
0.589936
0.329908
0.294655
-0.246457
-0.161129
-0.247159
-0.0701734
-0.0652092
0.0682997
0.0936977
0.0414381
0.0297123
-0.0591304
-0.0506741
-0.0546985
-0.042098
-0.0419016
0.446452
0.435294
0.466345
0.473882
0.518566
0.519966
0.524297
0.522322
0.914243
0.936474
0.944129
0.918019
-3.50194
-6.28654
0.041631
0.178296
-0.00647632
-0.010606
0.00483292
-0.0106352
-0.00300008
-0.00449028
-0.00559993
-0.00702561
-0.00255074
-0.00119646
0.64161
0.642514
1.00145
1.00758
0.977856
0.93041
0.523955
0.526032
0.53154
0.527418
-0.0414784
-0.0419225
-0.0414877
0.685113
0.689331
0.687785
0.24002
0.150794
0.329029
0.357975
0.635098
0.623175
0.63338
0.644764
0.681206
0.961411
0.979655
0.977911
0.986371
1.03048
1.04694
1.01219
0.479696
0.489659
0.48462
0.523144
0.520917
0.52182
0.51763
0.518957
0.516905
-0.0362135
-0.416732
0.489861
0.507158
0.491579
0.494666
0.690978
0.769457
0.654578
0.65884
0.657657
-0.00372372
-0.0620692
0.250237
0.216494
0.386209
0.422505
0.401531
0.88533
0.845976
0.896018
0.869285
0.830802
0.85618
-0.368321
-1.86985
-0.98787
0.528099
0.342161
0.429177
0.0116044
-0.00530125
-0.000784235
1.00058
1.07356
0.645794
0.820266
0.823331
0.719107
0.748953
0.803876
0.730503
0.764434
0.798647
0.779686
0.567131
0.503089
0.518962
0.83865
0.894379
0.121294
0.0607317
0.0167286
0.112362
0.169433
0.143609
1.03405
0.94836
1.01871
0.533971
0.534688
-0.0038138
-0.0181016
0.538918
0.538971
-0.0163792
-0.00361903
0.412776
-0.833372
0.102637
0.527484
0.517439
0.534538
-0.0935663
0.35533
-0.0461098
0.0494586
-0.00603582
0.531317
0.464759
0.423987
0.00099938
-0.0189164
-0.0459253
-0.215811
0.531642
0.529947
0.534005
0.534952
0.53563
-0.0175361
-0.012741
-0.00955504
-0.0439033
-0.0388801
-0.0487974
0.498539
0.517456
-0.170595
0.534151
0.536282
0.536102
0.529351
0.534987
0.533235
-0.00994643
-0.016443
-0.0177291
0.22118
0.351452
0.652821
0.740721
0.623973
0.399852
0.164633
0.555893
0.619402
0.524888
0.678776
0.661248
0.676193
0.168182
0.0179351
0.176483
0.117838
0.525343
0.52405
0.515694
0.512668
0.529404
0.527515
0.532076
0.52909
0.532041
0.533426
-0.0508147
-0.0765571
-0.0878366
-0.157107
0.31
0.571708
0.253098
0.283452
0.14243
-0.0402727
-0.0410613
-0.0451113
-0.0508057
0.00266333
-0.0210889
0.0444702
0.0450317
0.0174672
-0.0085505
-0.00511753
-0.0160361
-0.0121382
0.524634
0.52375
0.528653
0.537392
0.474379
0.478153
0.44309
0.463797
0.449088
0.387982
0.42316
0.398402
-0.00723644
0.00308457
-0.00449466
-0.0162533
-0.0124587
-0.0317132
-0.0281635
-0.0243825
-0.0200126
-0.0266608
-0.0411425
-0.042876
-0.173239
-0.28808
0.988192
0.910244
0.135109
0.520799
0.527248
0.524013
0.528916
0.532044
0.532851
0.530567
0.52712
0.517797
0.519332
0.516155
0.517047
-0.102469
-0.242854
-0.0710233
-0.144083
0.143165
0.626831
0.363369
0.299645
0.294659
0.522424
0.917869
0.702482
0.677219
0.686727
-0.343402
0.0466977
-0.279374
0.336637
0.163421
0.65177
0.701366
0.723703
0.671154
0.624016
-0.104134
0.554527
-0.070073
-0.0188789
0.181853
0.0601821
0.672159
0.647088
0.651279
0.667505
0.683508
0.653049
0.638646
0.633776
0.662891
0.664882
0.487618
0.251998
0.203472
0.164905
0.641573
0.52272
0.575723
0.49301
0.520538
0.523145
0.521779
0.503359
0.510929
0.506461
0.512991
0.516474
0.525119
0.525573
0.520869
0.523
-0.0560328
-0.0600786
-0.0307196
-0.138862
-0.13251
-0.195247
-0.064162
0.0741337
0.034554
0.235968
0.340731
0.0516206
-0.059398
-0.0320693
0.00983713
0.179119
0.206254
0.0742724
0.162493
0.152279
0.134766
0.236764
0.24077
-0.0249307
-0.0287331
-0.0320223
-0.0341361
0.0204524
0.0907169
0.100507
-0.00286854
-0.00884854
-0.038368
-0.0381347
-0.0215193
-0.0262469
-0.0222971
0.00975475
-0.0515731
-0.0187594
-0.00452848
6.17465e-05
-0.00229627
-0.00782219
0.517254
0.519763
0.519315
0.525073
0.541286
0.5559
0.518118
0.496544
0.487349
0.490361
0.463265
0.473598
0.469256
0.482997
0.504147
0.513808
0.511126
0.513949
0.496275
0.497999
0.484499
0.488215
0.462961
0.443876
0.432019
-0.0412246
-0.00293564
-0.0105655
-0.0369269
-0.00785929
-0.0197062
-0.00796647
0.010282
-0.00554931
-0.00738947
-0.0171727
-0.024075
-0.0235225
-0.0750305
0.0112814
-0.184334
-0.220243
-0.292555
0.890042
1.01408
0.809954
0.583073
0.602651
0.845832
0.930567
0.543161
0.735168
0.758513
0.58585
0.85309
0.525633
0.525235
0.522836
0.522316
0.523532
-0.00765776
0.0979659
0.0977495
0.159806
0.275053
0.387016
0.317296
0.192826
0.323176
0.325694
0.619294
0.631364
0.586811
0.610869
0.610287
0.425315
0.500995
0.553139
0.511822
0.564245
0.585415
0.540091
0.572677
0.52288
0.47781
0.47368
0.424272
0.443937
0.419975
0.402969
0.514871
0.492555
0.502999
0.493405
0.512362
0.540148
0.535717
0.561172
0.575452
0.497248
0.452453
0.461847
0.492151
0.453073
0.468253
0.484808
0.230192
0.131851
0.214795
-0.0719255
0.000866351
-0.0123068
-0.0606386
-0.0103679
0.274252
-0.418164
-0.394258
-1.0224
0.500743
0.953131
0.612387
0.585333
0.681263
0.663666
0.6686
0.684993
0.688086
0.630144
0.641816
0.645737
0.607209
0.629054
0.648064
0.644992
0.524275
0.385533
0.383283
0.333043
0.203174
0.242235
0.440405
0.363707
0.288464
0.289071
0.457771
0.344571
0.414054
0.448682
0.380162
0.334535
0.537501
0.602473
0.595418
0.569657
0.483227
0.496541
0.520385
0.554554
0.579895
0.610478
0.512427
0.51834
0.519574
0.517056
0.514326
0.517378
0.517615
0.52016
0.520817
0.523804
0.522849
-0.0453908
-0.0333811
-0.0468418
-0.0549764
-0.0207097
-0.0234853
0.0198118
0.00514238
-0.0125929
-0.00699538
-0.0315919
-0.035898
-0.0314246
-0.0227572
0.098842
0.111484
0.0947818
0.0550947
0.24936
0.379064
0.453575
0.32875
0.22156
0.244607
0.264733
-0.0122436
0.0144227
0.00136956
0.0406638
0.032375
-0.0327653
-0.0369806
-0.0343059
-0.0272026
-0.0175509
-0.0342804
-0.0378919
-0.0290052
-0.0337449
-0.0359669
-0.0401909
0.498805
0.492275
0.493997
0.487803
0.486513
0.500932
0.505182
0.507168
0.512688
0.515091
0.505005
0.510842
0.51477
-0.00908829
-0.0320352
-0.0359892
-0.0249244
-0.0276735
-0.0257018
-0.0271942
0.122457
0.0522609
0.0569357
0.00880623
-0.122442
-0.0647998
0.490098
0.489129
0.478892
0.719848
0.569148
0.489664
0.58675
0.692418
0.274871
0.471851
0.306663
0.887543
0.783684
0.930108
0.541347
0.243395
0.405245
0.449798
0.26182
0.33686
0.32544
0.214216
0.245242
0.282156
0.381339
0.263659
0.240106
-0.00273397
0.187532
0.299928
0.281788
0.406743
0.467763
0.264432
0.18405
0.139184
0.6045
0.623831
0.63796
0.610234
0.631203
0.578222
0.569153
0.585379
0.593924
0.589526
-0.750514
-0.457105
-1.40328
-0.724219
-0.270145
0.530997
0.500908
0.767431
0.646674
0.688382
0.673776
0.632966
0.601899
0.623403
0.648075
0.344867
0.455962
0.431155
0.436335
0.338246
0.269162
0.567211
0.5633
0.596169
0.619389
0.591212
0.620674
0.510251
0.50997
0.509435
0.505688
0.503964
0.506325
0.0573619
0.0256368
0.0627364
0.0433802
0.0201597
0.00806514
-0.00550501
-0.015309
-0.0226619
-0.0226746
-0.00901037
-0.00490985
0.169889
0.108116
0.0280264
0.0578296
-0.00308321
-0.0719699
-0.0905269
0.0137738
0.110164
0.100399
0.404312
0.654185
0.474154
0.641649
0.4839
0.539662
0.467506
0.458962
0.484304
0.378193
0.458647
0.242748
-0.264398
-0.173431
0.790355
0.802775
0.579754
0.402527
0.171156
0.351752
0.543277
0.474733
0.510848
0.579895
0.56805
0.0234381
0.0831878
0.363938
0.590958
0.237666
0.228762
0.222552
0.404561
0.32418
)
;

boundaryField
{
    wall-4
    {
        type            zeroGradient;
    }
    velocity-inlet-5
    {
        type            zeroGradient;
    }
    velocity-inlet-6
    {
        type            zeroGradient;
    }
    pressure-outlet-7
    {
        type            fixedValue;
        value           uniform 0;
    }
    wall-8
    {
        type            zeroGradient;
    }
    frontAndBackPlanes
    {
        type            empty;
    }
}


// ************************************************************************* //
