/*--------------------------------*- C++ -*----------------------------------*\
  =========                 |
  \\      /  F ield         | OpenFOAM: The Open Source CFD Toolbox
   \\    /   O peration     | Website:  https://openfoam.org
    \\  /    A nd           | Version:  13
     \\/     M anipulation  |
\*---------------------------------------------------------------------------*/
FoamFile
{
    format      ascii;
    class       surfaceScalarField;
    location    "59";
    object      phi;
}
// * * * * * * * * * * * * * * * * * * * * * * * * * * * * * * * * * * * * * //

dimensions      [0 3 -1 0 0 0 0];

internalField   nonuniform List<scalar> 
1300
(
3.75095
5.62643
-3.32574
3.75095
-7.72509
5.62643
-4.37633
4.37633
-0.505541
0.505541
1.87639
1.87456
-2.7162
2.7162
-2.19802
2.19802
-2.53392
2.53392
-5.24648
5.24648
-5.06923
5.06923
4.65659
-4.65659
-6.29294
6.29294
-0.964568
0.964568
-3.66057
3.66057
3.16964
-3.16964
-2.13657
2.13657
-0.0336734
0.0336734
-0.553481
4.30443
3.19747
3.19747
-2.01117
2.01117
-4.86805
4.86805
6.21808
-6.21808
5.32067
-5.32067
-1.99494
-2.44019
1.79588
-11.5286
-5.92921
-5.92921
-8.44037
8.44037
-2.81394
2.81249
2.94579
-2.94579
-1.77563
1.77563
-4.33535
-0.0409868
-4.33535
4.34701
0.0293193
4.34701
-0.570558
0.0650177
-0.570558
3.97071
-3.97071
0.415922
0.0896183
0.415922
3.06527
-3.06527
-1.87711
3.7535
1.87384
-1.87189
6.17632
-1.87906
3.75363
-6.0147
6.0147
-2.93527
0.219066
-2.93527
2.5332
0.183002
2.5332
-6.83956
6.83956
-2.23548
0.0374567
-2.23548
2.16771
0.0303086
2.16771
2.87917
-2.87917
-2.64515
0.11123
-2.64515
2.40315
0.130777
2.40315
0.353512
5.27292
-5.97994
8.79243
-5.27292
0.0264334
5.20835
0.0381377
5.20835
-5.10604
0.0368158
-5.10604
5.01199
0.0572364
5.01199
4.74308
-0.0864856
4.74308
-4.77449
0.117897
-4.77449
-3.38443
-4.04832
-6.44437
0.151427
-6.44437
-1.04828
0.0837145
-1.04828
0.856981
0.107587
0.856981
-3.6811
3.6811
-4.08362
0.423046
-4.08362
3.12402
0.0456181
3.12402
1.86849
1.88246
5.61945
-5.61945
2.4498
-2.12013
-0.0164451
-2.12013
-2.18431
-3.13637
2.18431
-0.0477344
-0.266175
0.232502
-0.266175
3.15941
0.0380634
3.15941
2.23719
0.165953
-2.23719
0.226026
3.26812
-3.26812
1.33851
0.672653
1.33851
-5.56384
5.56384
4.95593
0.0560602
-4.95593
0.0878786
6.15685
0.0612234
6.15685
-6.19954
-0.0185325
-6.19954
2.53973
-4.97991
-2.60973
6.11085
0.18209
-6.11085
0.181643
2.91743
0.0283579
2.91743
-2.91982
2.91982
-2.98444
0.0386456
-2.98444
-2.17465
0.399014
-2.17465
1.47685
0.298779
1.47685
-4.23285
-0.102497
-4.23285
-4.23658
0.152961
4.23658
0.110432
1.12729
-1.12729
-0.672095
0.101537
-0.672095
-4.09535
-0.137502
4.09535
-0.124638
-3.86109
-0.109615
-3.86109
-3.02436
0.0399257
3.02436
0.0409031
3.11283
0.0465763
-3.11283
0.0475666
-1.87082
3.75328
-1.88013
3.75398
-5.63442
-0.380278
-5.63442
6.32442
-0.309716
6.32442
3.30964
0.350936
-3.30964
0.374371
2.3976
0.135599
2.3976
-6.804
-0.0355649
-6.804
6.8225
0.017065
6.8225
2.30258
0.0950234
-2.30258
0.0670974
2.13897
0.0287399
2.13897
2.89849
-0.0193172
2.89849
-2.87387
-0.00530008
-2.87387
2.79675
-2.79675
2.72525
0.0715073
-2.72525
0.0800944
-11.1331
11.1146
-0.0352868
-11.0978
5.17306
5.17306
4.17102
0.57206
4.17102
-4.99214
0.217649
-4.99214
2.67822
-5.28795
3.05908
-6.44351
4.6652
-16.1938
4.31
-8.35832
6.68661
-6.68661
6.57425
0.112356
-6.57425
0.12988
-1.16017
0.111892
-1.16017
-3.07778
-0.603323
-3.07778
4.32507
-0.643973
4.32507
-3.02827
3.02827
-3.07753
0.0492607
3.07753
0.0464926
2.11475
0.0242227
-2.11475
-0.00537477
0.340867
0.0750554
-0.340867
0.0746916
3.47728
-0.209162
3.47728
-3.07225
-0.195868
-3.07225
-1.25416
0.0939816
1.25416
0.0843572
-5.81416
0.250328
-5.81416
-11.1908
0.0929229
-11.1526
-6.10662
-6.10662
2.33375
11.1262
-2.89238
0.0185011
2.89238
0.0250583
2.97524
0.0530276
-2.97524
0.0554257
-2.8608
0.0640407
2.8608
0.0590223
-2.54982
0.375169
-2.54982
-1.07359
1.07359
-1.24058
0.166992
1.24058
0.236273
1.39775
-0.270462
1.39775
0.762746
0.0942352
-0.762746
0.0906508
-3.76518
-0.0959184
-3.76518
6.55766
-0.23324
6.55766
-2.95931
-0.112941
2.95931
-0.0608163
-0.0333111
11.1479
-5.13975
0.0337051
5.13975
-11.2091
11.2428
-3.22094
0.67112
3.22094
0.95008
5.28474
0.279097
-5.28474
0.292603
6.77144
0.0510607
-6.77144
0.0848306
-2.58523
-0.492552
-2.58523
-5.05175
-0.582675
5.05175
-0.726674
-11.4749
-0.204668
11.6796
-11.4177
6.01883
0.138021
-6.01883
11.3808
-1.03002
-0.0972652
1.03002
0.0435651
1.72441
-0.326655
1.72441
3.66843
-0.191156
-3.66843
-0.0967414
-6.70968
-0.0943186
6.70968
-0.152022
-2.14081
-0.444412
2.14081
-0.416409
-4.26709
4.30515
1.90923
-2.39765
-2.58227
-5.53401
1.85187
1.90141
4.30167
-10.1612
-6.0326
-9.97953
7.26233
-6.96973
-9.2474
9.16092
7.84573
-7.95534
-5.78495
5.83144
6.48274
-6.44184
1.87879
1.87471
7.97062
-7.75156
-15.6258
15.2455
7.50457
-7.46711
15.7782
-15.8138
-17.8591
17.9101
-5.69462
5.80585
-6.73751
6.73221
-6.97051
6.9097
-2.83502
-3.60849
13.1245
-12.9731
8.53653
-8.55297
-8.5896
9.01264
3.38257
0.922586
3.42915
-1.88217
3.76097
-1.87145
3.78068
2.70391
-5.53893
2.58404
-5.16631
4.32469
4.21184
-4.27695
-1.25706
-5.92386
5.95222
-5.81542
5.87444
9.11468
-9.15567
-1.88516
3.75987
-1.86882
3.77023
-3.42503
-2.35993
3.37941
0.922267
8.07824
5.04626
-8.26033
-1.7192
-8.01892
7.82776
-8.22085
8.02499
-0.43565
5.81885
-5.3832
4.4324
-1.56196
7.38081
5.70037
5.91802
5.86576
-5.58666
1.10397
-6.48717
-6.39929
-2.35184
2.45337
2.23522
-2.1456
6.10786
1.73786
5.98322
-5.73778
-2.21756
-5.8337
3.82074
2.01071
3.87
4.07814
2.4046
4.11807
3.03056
-3.03588
0.00531852
-3.05656
6.08712
0.723989
-5.41649
-4.49422
4.96746
3.00317
5.15046
-5.52636
-2.2252
-5.15198
-9.54828
-6.07753
-10.131
10.0941
5.15143
9.78439
-11.9682
11.8161
4.78953
2.71504
4.81984
-4.91929
-2.54782
-4.8522
11.639
-2.61779
-9.02124
-10.3252
-7.53386
10.3082
5.47006
10.968
6.94219
11.0528
4.42466
7.21436
-9.89472
2.36086
-3.8611
-1.83351
-3.78101
3.66211
2.14374
3.79289
-4.21661
-2.52091
-4.19811
-4.2941
-2.67641
4.31342
2.41879
-4.41441
-3.80645
4.52735
2.38235
4.03595
-10.0686
4.32237
-7.93086
-9.20263
-3.77044
-9.07275
3.49851
2.6054
-6.10392
-2.04042
8.46378
-4.25194
7.20672
-5.16617
-3.3868
-5.17155
-6.86615
-1.72345
-6.71319
-8.88399
8.39144
-9.18246
8.53849
12.5453
-5.66513
-6.88018
-3.96839
-2.47345
3.92082
-0.491677
-3.71059
3.71591
0.0503753
3.83106
4.75364
4.26197
-3.88492
-1.9305
-3.8295
3.8263
2.04815
3.89034
6.82531
2.28937
6.85463
-6.5866
-2.56907
-6.6891
9.04564
-8.64662
2.85149
-2.75751
5.38546
2.63952
-5.1763
-2.84262
6.2146
-3.21589
-2.99871
-12.1993
10.5327
1.66661
-4.81851
-0.386107
-0.352434
-5.49022
-3.75718
5.37233
0.545691
11.0784
7.32123
-5.51157
5.7619
6.16799
6.22405
-0.17524
5.81208
-5.14096
5.26713
-2.55583
-2.7113
5.44533
-5.58283
-1.24377
-5.494
4.25022
0.400396
1.54675
-1.31425
-1.83196
-0.519878
-1.74131
1.32664
0.908576
1.4017
0.930296
1.52308
-2.95132
0.557502
2.39382
-2.02102
-1.5881
-3.77657
-1.13092
4.90749
5.71674
2.11103
-5.62
-0.213703
2.57628
-2.46869
-0.75308
-3.02349
2.23408
-2.98716
-3.67411
-2.03461
5.70872
-3.36996
-0.459539
3.31693
0.553067
-3.82691
-2.09695
3.78826
0.32981
-3.12731
6.19052
-3.06321
-5.05781
2.52782
3.5593
4.53853
-4.78957
2.44735
2.34221
-1.23027
4.24406
0.906403
4.37965
-6.91356
4.68836
5.78628
3.22637
-6.13721
0.985227
-5.92833
8.53994
-7.36753
-1.17241
4.13795
4.40199
7.08221
5.4631
-5.68041
12.7626
-1.19902
-6.16851
7.12735
-3.90099
4.84986
-8.75085
-10.313
4.14445
-9.15896
10.9351
-1.77618
-3.62547
-8.34269
12.7844
-1.20846
-11.576
8.57593
-4.23581
-4.31814
8.55395
-6.8536
6.86596
-1.98696
-4.879
-10.113
-5.70079
10.2073
1.60882
-9.88352
12.2444
-2.66916
4.10316
0.716685
4.1319
3.28442
-5.46249
2.17806
3.56918
-5.55614
2.08691
-7.5494
-6.73508
12.067
-5.33187
-10.5055
-9.52423
-0.981298
2.53425
9.71012
-9.47644
7.43183
2.04461
3.30226
0.588081
-3.37376
-0.407246
0.238527
4.53079
-4.76931
4.03142
4.19737
3.29302
1.23777
3.8446
2.10761
-3.86966
-0.328442
-4.16214
1.48572
-1.74334
-3.69187
5.17759
-4.06617
0.374298
-2.74695
-3.50001
6.24696
-4.58046
3.03624
3.15429
5.08438
-4.9131
1.41308
-2.39353
-2.51956
2.65309
-4.39643
1.98909
3.1885
4.37144
0.564991
5.87479
6.19216
-8.4802
0.549335
11.2384
-9.51922
2.46831
8.58448
-9.90014
0.375912
-8.69683
0.993171
-5.24511
-5.11074
5.18904
-6.91249
-3.5618
6.19947
0.655162
-6.3099
-0.403289
-6.03759
-2.84641
-6.482
-3.04673
-6.13573
-8.72714
-1.65239
-7.07475
6.73905
-6.68605
-3.4449
7.41273
1.12576
-7.41219
7.31493
-7.49076
7.16411
0.0952885
3.62062
4.35725
1.8838
-2.39035
4.27415
-5.11088
7.40025
-8.69464
3.58376
4.1767
-6.74577
-4.51794
5.02535
4.02029
5.32413
8.89398
-10.3676
1.4736
-10.6674
12.0014
-1.33399
-16.4318
5.76438
-7.53784
2.46976
0.381734
2.58165
0.554846
2.50002
-3.05487
-2.20266
-2.11831
-2.42519
-3.46456
5.88975
1.1084
-3.51441
2.40601
-3.56968
4.67807
-0.190097
-3.32431
5.2857
-2.78568
5.66744
-3.75978
1.90766
3.42892
5.7495
-2.32058
4.3932
-1.75368
1.91398
-4.23456
-1.55059
-2.96272
5.10646
-3.28424
3.65854
-0.337141
3.99568
-4.06227
0.846373
-0.76925
3.42812
3.65414
4.30912
-3.07134
2.92415
-4.67783
-1.31041
-4.11284
-0.924336
-0.267386
-3.71266
3.98005
5.9925
-6.25988
-5.23787
9.53387
-4.29601
7.69724
-5.38477
-2.31247
-4.25614
-4.39048
3.88097
1.93111
9.62835
0.209647
-5.59442
-4.93131
-3.98123
3.12592
2.1412
-1.79163
3.45824
2.14407
-0.597313
0.456116
0.94558
1.78971
-1.3336
0.29398
1.49574
-1.02027
1.79047
0.785805
-1.88471
0.143401
-1.307
3.54108
1.08682
-1.9954
0.6618
0.993188
-3.54902
5.00754
-2.64893
-2.35861
6.00073
1.14424
-3.79317
4.34976
-3.94936
2.37329
-3.50422
-1.41988
-5.36924
-3.63137
-2.5298
4.93581
-3.35996
5.47098
1.2617
-5.25728
6.51898
-3.71131
1.6767
-3.07109
3.8569
-0.966766
-2.10433
2.89425
2.81447
-3.04318
0.0196968
-0.148934
2.4006
-2.54953
-0.586567
-2.60759
-4.5731
4.90291
-2.10565
4.553
2.1685
-1.91646
6.46946
1.80937
-3.72583
-3.24844
-3.70798
-1.38362
3.15491
-0.597038
-4.25516
-5.47604
4.16014
0.219518
-7.00558
7.81934
-0.813758
-4.00241
-0.685944
4.82389
-6.0421
0.485958
-3.95519
3.86416
4.77056
4.99008
-11.3624
-0.213563
-6.21097
1.12702
-7.33799
5.52901
-3.54604
7.69049
-10.3423
6.89744
-9.21658
6.51808
-0.819911
6.25075
-4.07269
2.77048
-8.47127
-6.86245
5.47613
-2.76109
6.19282
-3.1237
9.31652
-5.79286
5.26317
4.05335
-1.01023
-4.16132
-5.25797
4.24774
0.00520166
4.1371
4.97938
-2.87177
4.65094
2.26639
-4.65992
-2.13004
-6.49473
1.83481
-3.34044
-1.91993
3.75474
3.16445
3.75253
1.23518
-3.34528
7.1834
-8.16469
-1.85153
-3.25922
5.24335
-0.995604
3.38857
-6.64779
-1.85654
4.81025
-0.783879
-4.02637
0.854875
-4.41668
1.66823
-6.08491
5.24426
-5.64755
2.22194
-9.75978
-5.19025
-5.14669
-2.25894
-5.23182
-7.57702
5.31808
-1.81265
5.50228
-8.51684
7.73296
-3.4846
8.80269
-5.43111
-1.05089
5.84752
1.31659
10.1193
0.207123
-4.72506
-1.90604
3.86927
-1.96323
1.21988
-3.50554
0.363733
2.48956
3.51116
-6.73979
-0.00598117
-4.73105
-3.91879
7.93908
5.61508
11.6076
1.23999
9.12153
-1.18244
10.3615
4.14168
4.37796
-2.99877
4.47237
0.981279
4.56504
-0.913101
2.82076
1.66855
1.75226
0.716431
2.30636
1.34779
3.15273
0.097867
-2.02044
4.62371
-8.60495
-0.970707
-8.03289
1.12803
5.71134
-4.58331
2.98488
-0.843678
1.02165
-0.0575264
-1.33233
1.38986
-2.76883
-1.92965
-0.433911
-1.67625
2.33805
1.86483
-1.90414
-0.864691
0.358194
-3.98956
3.14602
-3.12632
-0.311855
6.20713
-2.81669
0.267159
-1.13999
-2.34043
-2.86031
2.71691
6.1761
0.293368
3.11289
5.19628
3.09933
0.227556
3.90325
-5.67943
-3.64615
-5.89299
-0.363983
4.45991
1.74762
7.9625
5.80097
4.80537
-1.84242
-10.0071
6.53383
-2.06146
5.19984
-1.17347
-4.91144
5.03525
2.365
-5.69042
0.0428665
-4.86857
-6.93004
-0.513701
8.24666
-9.60558
8.55468
5.70828
1.36648
-4.40782
-0.73887
4.24082
0.137133
10.4986
-1.12786
-6.74234
7.8702
-4.58348
3.61278
0.76739
2.69085
2.15725
1.31357
-5.42877
-10.0121
-2.02243
-1.52659
-4.38104
0.526448
-2.39128
6.22807
-2.6153
3.9156
5.2549
6.27655
-2.13673
-4.12316
6.43273
-2.51713
3.75943
)
;

boundaryField
{
    wall-4
    {
        type            calculated;
        value           uniform 0;
    }
    velocity-inlet-5
    {
        type            calculated;
        value           uniform -3.75095;
    }
    velocity-inlet-6
    {
        type            calculated;
        value           uniform -5.62643;
    }
    pressure-outlet-7
    {
        type            calculated;
        value           nonuniform List<scalar> 8(3.32574 7.72509 4.43513 9.7327 7.43275 5.14946 5.7373 8.9752);
    }
    wall-8
    {
        type            calculated;
        value           uniform 0;
    }
    frontAndBackPlanes
    {
        type            empty;
    }
}


// ************************************************************************* //
