/*--------------------------------*- C++ -*----------------------------------*\
  =========                 |
  \\      /  F ield         | OpenFOAM: The Open Source CFD Toolbox
   \\    /   O peration     | Website:  https://openfoam.org
    \\  /    A nd           | Version:  13
     \\/     M anipulation  |
\*---------------------------------------------------------------------------*/
FoamFile
{
    format      ascii;
    class       volScalarField;
    location    "53";
    object      p;
}
// * * * * * * * * * * * * * * * * * * * * * * * * * * * * * * * * * * * * * //

dimensions      [0 2 -2 0 0 0 0];

internalField   nonuniform List<scalar> 
918
(
0.558755
1.19223
0.00121194
0.558159
-0.00833905
1.15924
-0.50349
0.689721
0.538934
-0.102377
-0.0361118
0.537009
1.01998
0.787389
-1.12262
-0.00438293
0.655069
-0.382031
0.538011
-0.047353
0.716179
0.545491
0.548519
0.5391
0.605348
0.762244
0.901263
0.0214292
0.00991506
0.0046145
-0.0138267
-0.0351166
-0.029454
1.04288
1.09397
1.11667
0.506883
0.334582
-0.369666
-0.439013
-0.432068
-0.543142
0.684924
0.683355
-0.198106
0.692484
0.696336
0.526017
0.538302
0.539207
0.540251
0.539223
0.540609
0.409138
-0.105688
-0.138116
-0.0824275
-0.0736202
0.0618831
-0.0368084
-0.0396769
-0.0344631
-0.0343273
0.456492
0.531767
0.528748
0.542285
0.552108
1.13178
1.10369
1.12984
1.04356
1.06002
0.997945
0.9706
0.806935
0.828736
0.77398
0.760109
-1.55676
-2.51199
-0.530615
-0.278814
-0.0152197
-0.00274546
0.00376841
0.650839
0.651123
0.655386
0.660275
1.08333
-0.380541
-0.477298
0.538148
0.536951
0.545298
0.545996
0.542013
0.541105
-0.0373215
-0.0338971
-0.04352
-0.0452453
-0.0445413
0.705269
0.704629
0.539633
0.536642
0.558972
0.580021
0.57231
0.282239
0.610649
0.624727
0.592849
0.754453
0.748436
0.757139
0.87485
0.839234
0.938154
0.961247
0.0174964
-0.000267876
-0.0107738
-0.0169264
-0.0150989
0.502746
0.495346
0.522346
0.510289
0.512774
0.250677
0.116459
0.420094
0.445384
-0.286839
-0.349843
-0.427226
-0.45663
-0.566904
0.612797
0.677186
0.674143
-0.211757
-0.138805
-0.270306
-0.0651934
-0.126808
0.516329
0.523306
0.518323
0.533828
0.528306
0.530264
0.542558
0.539633
0.541191
0.471579
0.595327
0.335395
0.300604
-0.243306
-0.155707
-0.244206
-0.0612772
-0.0570128
0.0756461
0.100941
0.049022
0.0371819
-0.0504164
-0.0431861
-0.0464156
-0.0323591
-0.031482
0.449331
0.438253
0.469105
0.4766
0.520803
0.522119
0.525918
0.524176
0.921312
0.943697
0.95131
0.925032
-3.50585
-6.29547
0.0473378
0.184337
-0.00510018
-0.00967041
0.00517055
-0.0092821
-0.00235891
-0.00408913
0.00152766
-0.000235051
0.00418074
0.00595132
0.643869
0.644448
1.00379
1.0082
0.981733
0.933684
0.526311
0.528399
0.53392
0.529791
-0.0315265
-0.0321932
-0.0311722
0.698366
0.702825
0.701356
0.244286
0.155606
0.332711
0.361447
0.637172
0.62601
0.63585
0.653654
0.691222
0.968665
0.986927
0.985106
0.993487
1.03747
1.05383
1.01928
0.482367
0.492254
0.487253
0.525492
0.523239
0.524155
0.519865
0.521236
0.519139
-0.0346592
-0.416227
0.494297
0.512317
0.495088
0.499386
0.692397
0.769992
0.661367
0.668674
0.666467
0.0032294
-0.0549798
0.256571
0.223193
0.389426
0.425544
0.404654
0.892616
0.852902
0.903041
0.87625
0.837415
0.863313
-0.367935
-1.87253
-0.988954
0.535508
0.34906
0.436752
0.0191248
0.00203084
0.00668632
1.00163
1.0763
0.651136
0.823968
0.828232
0.72499
0.754407
0.813526
0.74177
0.77498
0.806775
0.784774
0.56948
0.507703
0.522429
0.83904
0.894702
0.126598
0.0669563
0.0228472
0.119441
0.176263
0.150513
1.03746
0.949113
1.01982
0.536399
0.537111
-0.00081509
-0.0140455
0.541319
0.541369
-0.01343
0.000328576
0.419444
-0.831364
0.108832
0.529864
0.519882
0.53695
-0.0854929
0.361479
-0.0374141
0.0568216
0.00168678
0.534057
0.467458
0.427044
0.00478208
-0.0141602
-0.0401652
-0.213452
0.534069
0.532375
0.536416
0.537371
0.538045
-0.0131172
-0.00889644
-0.00645584
-0.0381132
-0.0338328
-0.0438615
0.501062
0.519658
-0.166233
0.536556
0.538685
0.538506
0.531739
0.53738
0.535625
-0.00484903
-0.0124235
-0.0130135
0.225984
0.354896
0.660399
0.748733
0.632025
0.406728
0.170535
0.562742
0.626293
0.531652
0.685701
0.673613
0.688475
0.174072
0.0239446
0.183164
0.124423
0.527722
0.526415
0.518137
0.515136
0.531809
0.529914
0.53448
0.531483
0.534435
0.535826
-0.0433721
-0.06722
-0.0808651
-0.148517
0.31628
0.578096
0.258549
0.289023
0.149332
-0.0319424
-0.0321283
-0.0364197
-0.043638
0.0107733
-0.0131795
0.051938
0.0526444
0.0254934
-0.00127071
0.00289719
-0.00804514
-0.00483886
0.527061
0.525477
0.531809
0.541095
0.477022
0.480791
0.445993
0.46651
0.451881
0.391174
0.426281
0.40147
-0.00320422
0.00806508
-0.00118299
-0.0105036
-0.00601301
-0.0248231
-0.0223442
-0.0180612
-0.0141401
-0.0214612
-0.0350243
-0.0335798
-0.171577
-0.287052
0.990462
0.915454
0.134032
0.523235
0.529675
0.526447
0.531326
0.534454
0.535269
0.532993
0.529547
0.520047
0.521621
0.518367
0.519167
-0.0985906
-0.23957
-0.0673167
-0.139397
0.145412
0.628697
0.366833
0.303739
0.298636
0.525713
0.925562
0.712058
0.687744
0.701072
-0.340121
0.0520587
-0.275029
0.342309
0.167167
0.659767
0.707639
0.728691
0.677586
0.630935
-0.103341
0.556951
-0.0645143
-0.0142447
0.185576
0.0657096
0.685115
0.658221
0.661344
0.67849
0.695098
0.664392
0.648237
0.642982
0.67489
0.678004
0.49387
0.257146
0.208795
0.170286
0.64527
0.529829
0.583598
0.499453
0.522855
0.525501
0.524122
0.505863
0.513401
0.508963
0.51535
0.518785
0.527519
0.527957
0.523275
0.525418
-0.047906
-0.0512453
-0.025189
-0.134817
-0.126231
-0.188158
-0.0606172
0.0777241
0.0393185
0.237592
0.343366
0.0547105
-0.0567644
-0.0294232
0.0108687
0.181517
0.20752
0.0806544
0.16909
0.157865
0.141132
0.24256
0.247048
-0.0170292
-0.0213752
-0.0243421
-0.0260585
0.0280237
0.0978119
0.107707
0.00572709
-0.000314492
-0.0295321
-0.0293292
-0.0149195
-0.0191269
-0.0155214
0.0184891
-0.0432722
-0.0113983
0.00390978
0.00885343
0.00574387
0.000471281
0.519299
0.521662
0.521257
0.528145
0.546678
0.562521
0.519202
0.49907
0.489927
0.492923
0.466026
0.47628
0.471964
0.485675
0.506768
0.516198
0.513495
0.516267
0.498916
0.500585
0.487085
0.4908
0.465796
0.446944
0.435094
-0.033771
0.00368762
-0.00341748
-0.0311235
-0.0029215
-0.015025
-0.000577225
0.0185265
0.00232162
-0.000236733
-0.0103412
-0.0168219
-0.0161355
-0.0728441
0.0127016
-0.181282
-0.2189
-0.289574
0.892118
1.01604
0.813358
0.586575
0.604724
0.847885
0.933026
0.548242
0.738489
0.762361
0.587876
0.85363
0.528057
0.527662
0.525264
0.52474
0.52596
-0.00531841
0.099225
0.100088
0.161281
0.277435
0.389885
0.31848
0.193274
0.324168
0.327138
0.621034
0.633517
0.589083
0.613185
0.61328
0.429173
0.505119
0.557335
0.514661
0.566865
0.587772
0.543438
0.575708
0.525923
0.480478
0.476486
0.427359
0.446984
0.423494
0.406351
0.51801
0.49525
0.505838
0.496053
0.515464
0.540355
0.53649
0.567536
0.57893
0.499526
0.455593
0.464826
0.495232
0.456147
0.471132
0.487331
0.232562
0.133862
0.216279
-0.0716786
0.00272206
-0.0111063
-0.0589934
-0.00964271
0.275348
-0.418352
-0.39431
-1.02361
0.502009
0.958722
0.631346
0.604289
0.692041
0.674034
0.678767
0.695483
0.699583
0.634912
0.649903
0.652441
0.615375
0.638238
0.657763
0.654951
0.527004
0.390744
0.387636
0.338359
0.208549
0.24697
0.446983
0.369533
0.294297
0.29525
0.462477
0.349708
0.418595
0.454229
0.385478
0.339545
0.542948
0.608037
0.600125
0.57453
0.490129
0.503616
0.527645
0.562534
0.588383
0.619234
0.514868
0.520749
0.52199
0.519481
0.516737
0.519754
0.519962
0.522501
0.523198
0.526171
0.525202
-0.0382103
-0.0260228
-0.0389881
-0.0470729
-0.0149824
-0.0185598
0.0246623
0.0109015
-0.00477665
0.00121838
-0.0250002
-0.0293559
-0.0243683
-0.0153086
0.103499
0.115935
0.0994361
0.0600182
0.251157
0.381524
0.455111
0.330763
0.223512
0.246988
0.26776
-0.00563771
0.0219481
0.00888563
0.0476733
0.039114
-0.023757
-0.0280318
-0.0254512
-0.0188008
-0.00927507
-0.0250289
-0.0268918
-0.0193166
-0.0232423
-0.0247878
-0.0271863
0.501311
0.494822
0.496525
0.490381
0.4891
0.503365
0.507586
0.509558
0.515004
0.517281
0.507412
0.513153
0.516934
-0.000241363
-0.0237107
-0.0273127
-0.0158062
-0.0189638
-0.0176061
-0.0198488
0.123245
0.0516107
0.056197
0.0098458
-0.12077
-0.0631106
0.491655
0.491396
0.482732
0.721108
0.570554
0.491209
0.58862
0.693939
0.275138
0.473138
0.307265
0.88906
0.784576
0.931002
0.542792
0.244632
0.404966
0.451634
0.262737
0.336248
0.329036
0.216994
0.248369
0.284186
0.384535
0.265846
0.241979
-0.000429576
0.189309
0.302303
0.284026
0.40983
0.471522
0.265465
0.186314
0.140545
0.606922
0.626034
0.641193
0.613429
0.634467
0.578604
0.567921
0.586009
0.595461
0.59038
-0.751293
-0.45784
-1.40387
-0.723185
-0.269949
0.53254
0.500687
0.768032
0.650099
0.697027
0.682255
0.641092
0.609204
0.629373
0.655452
0.351287
0.46268
0.43781
0.442879
0.344415
0.275702
0.574763
0.569821
0.603746
0.627408
0.597917
0.628462
0.512677
0.512368
0.51189
0.508169
0.506432
0.508751
0.0635291
0.0324823
0.0681329
0.0487658
0.0258177
0.0142674
0.00349182
-0.00587647
-0.0131277
-0.0137764
-0.000594978
0.0030146
0.170245
0.10918
0.0290254
0.0589806
-0.00121651
-0.0703524
-0.0879476
0.0144169
0.109835
0.10037
0.40513
0.65576
0.475687
0.643048
0.48465
0.540484
0.471668
0.463346
0.489468
0.380811
0.460851
0.241247
-0.265591
-0.174418
0.789726
0.803188
0.583192
0.403927
0.172617
0.354827
0.5475
0.480052
0.516858
0.58579
0.574613
0.0225801
0.0837705
0.360679
0.587988
0.238999
0.229961
0.224014
0.404487
0.324893
)
;

boundaryField
{
    wall-4
    {
        type            zeroGradient;
    }
    velocity-inlet-5
    {
        type            zeroGradient;
    }
    velocity-inlet-6
    {
        type            zeroGradient;
    }
    pressure-outlet-7
    {
        type            fixedValue;
        value           uniform 0;
    }
    wall-8
    {
        type            zeroGradient;
    }
    frontAndBackPlanes
    {
        type            empty;
    }
}


// ************************************************************************* //
