/*--------------------------------*- C++ -*----------------------------------*\
  =========                 |
  \\      /  F ield         | OpenFOAM: The Open Source CFD Toolbox
   \\    /   O peration     | Website:  https://openfoam.org
    \\  /    A nd           | Version:  13
     \\/     M anipulation  |
\*---------------------------------------------------------------------------*/
FoamFile
{
    format      ascii;
    class       surfaceScalarField;
    location    "53";
    object      phi;
}
// * * * * * * * * * * * * * * * * * * * * * * * * * * * * * * * * * * * * * //

dimensions      [0 3 -1 0 0 0 0];

internalField   nonuniform List<scalar> 
1300
(
3.75095
5.62643
-3.29725
3.75095
-7.75404
5.62643
-4.34962
4.34962
-0.603792
0.603792
1.8764
1.87456
-2.78362
2.78362
-2.25323
2.25323
-2.54063
2.54063
-5.24645
5.24645
-5.0685
5.0685
4.659
-4.659
-6.2982
6.2982
-0.99552
0.99552
-3.68529
3.68529
3.16967
-3.16967
-2.15808
2.15808
-0.0808545
0.0808545
-0.55349
4.30444
3.19746
3.19746
-2.00055
2.00055
-4.8678
4.8678
6.2181
-6.2181
5.29434
-5.29434
-1.99709
-2.42398
1.8071
-11.5605
-5.94694
-5.94694
-8.44039
8.44039
-2.81396
2.81247
2.94536
-2.94536
-1.77914
1.77914
-4.31113
-0.03849
-4.31113
4.32113
0.0284946
4.32113
-0.673632
0.0698402
-0.673632
3.95241
-3.95241
0.500545
0.103247
0.500545
3.06518
-3.06518
-1.8771
3.7535
1.87385
-1.87188
6.17633
-1.87907
3.75363
-6.00602
6.00602
-3.00109
0.217464
-3.00109
2.60044
0.183186
2.60044
-6.82571
6.82571
-2.2904
0.0371739
-2.2904
2.22225
0.0309833
2.22225
2.87717
-2.87717
-2.64908
0.10845
-2.64908
2.42202
0.118603
2.42202
0.35353
5.2729
-5.97996
8.79243
-5.2729
0.0264474
5.20839
0.0380591
5.20839
-5.10585
0.0373474
-5.10585
5.01232
0.0561809
5.01232
4.7466
-0.0876053
4.7466
-4.77564
0.116639
-4.77564
-3.39745
-4.0272
-6.44285
0.144646
-6.44285
-1.06625
0.0707311
-1.06625
0.906134
0.0893856
0.906134
-3.67091
3.67091
-4.08244
0.397151
-4.08244
3.12407
0.0456011
3.12407
1.8685
1.88246
5.61945
-5.61945
2.44978
-2.15273
-0.00535634
-2.15273
-2.1968
-3.09753
2.1968
-0.0387212
-0.311034
0.23018
-0.311034
3.15938
0.038081
3.15938
2.25533
0.166694
-2.25533
0.254784
3.26134
-3.26134
1.3388
0.661748
1.3388
-5.565
5.565
4.95533
0.0569986
-4.95532
0.0875246
6.15635
0.0617468
6.15635
-6.19951
-0.0185859
-6.19951
2.56078
-4.98476
-2.59016
6.12264
0.175556
-6.12264
0.175703
2.91675
0.0286147
2.91675
-2.92004
2.92004
-2.98417
0.0388112
-2.98417
-2.17819
0.399053
-2.17819
1.48032
0.298817
1.48032
-4.21182
-0.0993135
-4.21182
-4.21419
0.131755
4.21419
0.106932
1.12379
-1.12379
-0.767963
0.0943307
-0.767963
-4.07613
-0.135687
4.07613
-0.12372
-3.84326
-0.109146
-3.84326
-3.0242
0.0400252
3.0242
0.0409822
3.11279
0.0465951
-3.11279
0.0476051
-1.87083
3.75328
-1.88013
3.75398
-5.626
-0.380025
-5.626
6.31457
-0.308551
6.31457
3.35941
0.325873
-3.35941
0.358325
2.45879
0.141646
2.45879
-6.79068
-0.03503
-6.79068
6.8085
0.0172081
6.8085
2.35715
0.10164
-2.35715
0.0667472
2.19808
0.0241648
2.19808
2.8958
-0.0186213
2.8958
-2.87245
-0.00472129
-2.87245
2.79706
-2.79706
2.72715
0.069915
-2.72715
0.0780734
-11.1331
11.1145
-0.0352514
-11.0978
5.17314
5.17314
4.17502
0.571582
4.17502
-4.99217
0.216531
-4.99217
2.69905
-5.28921
3.03245
-6.4299
4.65784
-16.2184
4.32264
-8.34984
6.67607
-6.67607
6.56787
0.108201
-6.56787
0.125026
-1.17105
0.104795
-1.17105
-3.06648
-0.60443
-3.06648
4.31635
-0.645448
4.31635
-3.02842
3.02842
-3.07762
0.0492056
3.07762
0.0464442
2.17539
0.0226907
-2.17539
0.0226644
0.405833
0.0947121
-0.405833
0.0947985
3.46761
-0.206266
3.46761
-3.06742
-0.193927
-3.06742
-1.26046
0.0894188
1.26046
0.0783329
-5.81508
0.25008
-5.81508
-11.1908
0.0929415
-11.1527
-6.10657
-6.10657
2.33382
11.1262
-2.89139
0.0189326
2.89139
0.0253634
2.9754
0.0530176
-2.9754
0.0553613
-2.8612
0.0641308
2.8612
0.0588431
-2.55338
0.375192
-2.55338
-1.07572
1.07572
-1.24436
0.168638
1.24436
0.235963
1.39089
-0.267098
1.39089
0.834987
0.0711475
-0.834987
0.0670235
-3.74941
-0.0938526
-3.74941
6.54653
-0.231956
6.54653
-2.95574
-0.111677
2.95574
-0.0599445
-0.0333376
11.1478
-5.1398
0.0339528
5.1398
-11.2096
11.2435
-3.22461
0.671233
3.22461
0.950407
5.28481
0.280193
-5.28481
0.29264
6.75882
0.0496795
-6.75882
0.0827508
-2.57439
-0.492083
-2.57439
-5.04342
-0.582579
5.04342
-0.727066
-11.4754
-0.202958
11.6783
-11.4192
6.01804
0.138315
-6.01804
11.3818
-1.0294
-0.0943933
1.0294
0.046321
1.71576
-0.324869
1.71576
3.65546
-0.187845
-3.65546
-0.0939552
-6.69746
-0.0932221
6.69746
-0.15093
-2.13106
-0.443328
2.13106
-0.415306
-4.26707
4.30515
1.90925
-2.42209
-2.56266
-5.51963
1.85189
1.90139
4.30168
-10.169
-6.04941
-9.99325
7.26245
-6.96981
-9.25211
9.16451
7.8213
-7.93045
-5.78505
5.83149
6.4826
-6.44161
1.87874
1.87475
7.94936
-7.7319
-15.6422
15.2622
7.49652
-7.45935
15.7827
-15.8177
-17.8578
17.9075
-5.69874
5.80719
-6.73497
6.73024
-6.96566
6.90572
-2.8572
-3.5727
13.1241
-12.9795
8.54325
-8.5486
-8.57191
8.96906
3.38254
0.92261
3.42914
-1.88221
3.76095
-1.87142
3.78068
2.68731
-5.54451
2.6019
-5.16457
4.31908
4.22417
-4.28036
-1.23927
-5.92309
5.95171
-5.81656
5.87541
9.08159
-9.12008
-1.88514
3.75989
-1.86884
3.77023
-3.42504
-2.36001
3.37944
0.922235
8.0876
5.03655
-8.26316
-1.73009
-8.00278
7.81493
-8.2123
8.01837
-0.435434
5.81873
-5.3833
4.43237
-1.56058
7.37932
5.70187
5.9184
5.8661
-5.58591
1.10371
-6.48701
-6.39948
-2.37653
2.47086
2.27111
-2.16786
6.09097
1.73033
5.96725
-5.72151
-2.20894
-5.81536
3.82084
2.01065
3.87005
4.07788
2.40472
4.1179
3.03062
-3.03583
0.00520849
-3.05652
6.08714
0.724062
-5.41652
-4.49429
4.96037
2.98899
5.14356
-5.50829
-2.2236
-5.14997
-9.55767
-6.08453
-10.1403
10.1016
5.1606
9.79302
-11.9739
11.823
4.78662
2.70991
4.8176
-4.91904
-2.54031
-4.8523
11.6314
-2.60631
-9.02513
-10.3258
-7.53202
10.3086
5.47413
10.9673
6.94018
11.0501
4.42084
7.2106
-9.89496
2.36294
-3.86154
-1.83719
-3.78347
3.66781
2.13938
3.78641
-4.21582
-2.51915
-4.19688
-4.29263
-2.67303
4.31126
2.41899
-4.41155
-3.80075
4.52323
2.38249
4.01717
-10.0666
4.33266
-7.90536
-9.20033
-3.77917
-9.0753
3.48485
2.61621
-6.10106
-2.05966
8.46349
-4.23932
7.22422
-5.17665
-3.37195
-5.15398
-6.83075
-1.74116
-6.69899
-8.89552
8.40344
-9.1937
8.54825
12.5786
-5.68012
-6.89848
-3.96833
-2.47328
3.92073
-0.491591
-3.71066
3.71587
0.0502938
3.83097
4.75358
4.26199
-3.88535
-1.93121
-3.82999
3.82747
2.04794
3.8916
6.79812
2.28347
6.82662
-6.56835
-2.55174
-6.66766
9.05389
-8.65484
2.86714
-2.77772
5.37613
2.64224
-5.16986
-2.83292
6.21146
-3.21221
-2.99924
-12.2
10.5378
1.66221
-4.8207
-0.388337
-0.307483
-5.49162
-3.76049
5.37498
0.543419
11.0812
7.32073
-5.51187
5.76195
6.16644
6.22344
-0.176038
5.81769
-5.14645
5.27312
-2.53916
-2.73396
5.43169
-5.56737
-1.23597
-5.47926
4.24329
0.399878
1.58442
-1.35424
-1.84846
-0.528074
-1.78143
1.3529
0.918206
1.44761
0.926661
1.5442
-2.9411
0.553821
2.38728
-2.01444
-1.61404
-3.75229
-1.11746
4.86975
5.70238
2.11255
-5.60842
-0.206939
2.59689
-2.5075
-0.750637
-3.00165
2.21661
-2.96724
-3.668
-2.00651
5.67451
-3.37014
-0.459853
3.31712
0.552929
-3.82666
-2.09644
3.78785
0.330054
-3.12688
6.19053
-3.06365
-5.05809
2.528
3.55914
4.53865
-4.7896
2.44714
2.34246
-1.23046
4.23914
0.904417
4.38079
-6.86381
4.64021
5.77734
3.19172
-6.10321
0.953248
-5.91056
8.52101
-7.34048
-1.18053
4.12936
4.39165
7.10044
5.47816
-5.69228
12.7927
-1.17681
-6.16367
7.08737
-3.89565
4.82786
-8.72351
-10.306
4.14235
-9.17258
10.9437
-1.77108
-3.62493
-8.34899
12.7975
-1.21207
-11.5854
8.58095
-4.221
-4.30275
8.52375
-6.82731
6.84306
-1.98077
-4.86228
-10.1164
-5.70131
10.2096
1.61336
-9.8674
12.2303
-2.6568
4.10573
0.711873
4.12989
3.27217
-5.44158
2.16941
3.55514
-5.53591
2.082
-7.52358
-6.72022
12.0493
-5.32906
-10.4994
-9.5142
-0.985196
2.53335
9.69699
-9.47352
7.43125
2.04228
3.30427
0.587332
-3.37418
-0.409289
0.232828
4.53725
-4.77008
4.01924
4.18593
3.30868
1.22858
3.84386
2.10785
-3.86922
-0.32766
-4.16038
1.48735
-1.7414
-3.68839
5.17574
-4.06568
0.377293
-2.74426
-3.50106
6.24532
-4.58145
3.03698
3.15355
5.08492
-4.91184
1.41078
-2.39443
-2.51741
2.6549
-4.3963
1.98635
3.18939
4.36884
0.568097
5.85357
6.19571
-8.46978
0.564424
11.2323
-9.50216
2.46498
8.58508
-9.89622
0.38202
-8.69328
0.999053
-5.23838
-5.10201
5.16113
-6.90229
-3.56239
6.17595
0.650668
-6.28288
-0.416113
-6.0454
-2.85012
-6.48873
-3.0501
-6.14359
-8.74239
-1.65541
-7.08698
6.74802
-6.693
-3.44726
7.42006
1.12819
-7.41764
7.32324
-7.49795
7.17308
0.0951718
3.62069
4.35716
1.88388
-2.39023
4.27411
-5.10496
7.38844
-8.69451
3.58955
4.17522
-6.72696
-4.51929
5.03047
4.02342
5.32929
8.90774
-10.3845
1.47674
-10.686
12.024
-1.33791
-16.4566
5.77054
-7.54885
2.49753
0.369607
2.60233
0.565986
2.49954
-3.06553
-2.21173
-2.1334
-2.41582
-3.46308
5.8789
1.12087
-3.50277
2.3819
-3.56543
4.6863
-0.172282
-3.33048
5.28967
-2.79013
5.65927
-3.73771
1.92156
3.42133
5.7463
-2.32497
4.39001
-1.74776
1.906
-4.23097
-1.55709
-2.96244
5.10182
-3.28288
3.66017
-0.331736
3.99191
-4.07832
0.866102
-0.769639
3.41629
3.67108
4.30258
-3.07401
2.92763
-4.67539
-1.30334
-4.10729
-0.917902
-0.27255
-3.73471
4.00726
6.00602
-6.27857
-5.24122
9.54131
-4.30009
7.70318
-5.38814
-2.31504
-4.26065
-4.39419
3.88546
1.93223
9.63541
0.210654
-5.59879
-4.9358
-3.98539
3.1346
2.13852
-1.82008
3.48229
2.12756
-0.543143
0.47174
0.975875
1.79601
-1.32427
0.283569
1.51244
-1.07067
1.83181
0.76508
-1.90295
0.121522
-1.31239
3.52899
1.07489
-1.9931
0.668826
0.99317
-3.53233
4.99043
-2.63958
-2.35086
5.98361
1.14138
-3.78096
4.33788
-3.93801
2.36693
-3.48439
-1.41403
-5.35203
-3.6217
-2.53623
4.91812
-3.34268
5.45523
1.25013
-5.24829
6.49842
-3.69383
1.68731
-3.07959
3.84467
-0.992474
-2.08712
2.87832
2.79619
-3.02207
0.020425
-0.14375
2.38753
-2.53128
-0.579716
-2.59416
-4.57286
4.90291
-2.10597
4.55312
2.16814
-1.91609
6.46921
1.80972
-3.72582
-3.24837
-3.70822
-1.38336
3.15529
-0.593137
-4.25916
-5.45542
4.15752
0.223268
-6.96775
7.78165
-0.813905
-3.97876
-0.66145
4.79081
-6.01893
0.483017
-3.93693
3.84472
4.74914
4.97241
-11.3777
-0.207767
-6.21707
1.13388
-7.35095
5.52553
-3.56085
7.7032
-10.3601
6.91281
-9.23188
6.52267
-0.828281
6.24729
-4.07788
2.77784
-8.47915
-6.86579
5.46254
-2.75263
6.17441
-3.11432
9.28873
-5.77112
5.24929
4.03944
-0.998239
-4.15574
-5.24613
4.24789
0.00316287
4.13305
4.9783
-2.87046
4.65065
2.2648
-4.65923
-2.1315
-6.49513
1.8359
-3.34158
-1.91905
3.75495
3.16587
3.7532
1.23754
-3.34392
7.171
-8.15619
-1.84194
-3.26007
5.23325
-0.985356
3.37709
-6.63716
-1.86129
4.83211
-0.786162
-4.04595
0.848007
-4.41039
1.67816
-6.08856
5.22413
-5.64024
2.22149
-9.77034
-5.19614
-5.14982
-2.25924
-5.23871
-7.58797
5.32874
-1.81743
5.50581
-8.53453
7.74837
-3.48942
8.81816
-5.4377
-1.05102
5.85301
1.32008
10.1382
0.206922
-4.72621
-1.90833
3.89273
-1.9844
1.22628
-3.52779
0.364936
2.47972
3.50389
-6.723
-0.00395207
-4.73016
-3.92168
7.9451
5.61964
11.6257
1.24118
9.12884
-1.18374
10.37
4.14555
4.38151
-3.02036
4.4971
0.986903
4.57645
-0.904369
2.82593
1.69796
1.76869
0.738813
2.30719
1.36389
3.17329
0.107763
-2.02564
4.62608
-8.61148
-0.972707
-8.0399
1.12461
5.71456
-4.58995
3.01285
-0.874325
1.02845
-0.0304825
-1.38923
1.41971
-2.76445
-1.93237
-0.419931
-1.6661
2.33493
1.86289
-1.91499
-0.849452
0.354701
-3.9764
3.12969
-3.10926
-0.313076
6.18534
-2.80678
0.275499
-1.11946
-2.31866
-2.84673
2.72521
6.17628
0.292929
3.11263
5.19584
3.09941
0.228951
3.90414
-5.67523
-3.61944
-5.88299
-0.357468
4.43334
1.74461
7.95238
5.78405
4.79869
-1.83847
-9.99466
6.56263
-2.06554
5.22473
-1.17878
-4.90978
5.02371
2.36472
-5.67438
0.0341398
-4.87564
-6.94117
-0.515308
8.26368
-9.62293
8.5719
5.72178
1.3652
-4.41215
-0.737674
4.24351
0.138002
10.508
-1.12737
-6.75847
7.88584
-4.58719
3.61448
0.779117
2.70318
2.19883
1.32451
-5.43396
-10.0239
-2.00309
-1.52924
-4.35394
0.515801
-2.37869
6.23361
-2.61913
3.91857
5.26671
6.29516
-2.14025
-4.13832
6.44034
-2.52177
3.77339
)
;

boundaryField
{
    wall-4
    {
        type            calculated;
        value           uniform 0;
    }
    velocity-inlet-5
    {
        type            calculated;
        value           uniform -3.75095;
    }
    velocity-inlet-6
    {
        type            calculated;
        value           uniform -5.62643;
    }
    pressure-outlet-7
    {
        type            calculated;
        value           nonuniform List<scalar> 8(3.29725 7.75404 4.42107 9.75343 7.42465 5.15094 5.73149 8.98048);
    }
    wall-8
    {
        type            calculated;
        value           uniform 0;
    }
    frontAndBackPlanes
    {
        type            empty;
    }
}


// ************************************************************************* //
